GROningen MAchine for Chemical Simulation
95940
    1G5    HO5'    1   4.960   5.497   2.112
    1G5     O5'    2   4.913   5.510   2.028
    1G5     C5'    3   4.793   5.431   2.028
    1G5     H5'    4   4.715   5.457   1.956
    1G5    H5''    5   4.740   5.454   2.120
    1G5     C4'    6   4.835   5.279   2.019
    1G5     H4'    7   4.756   5.220   1.973
    1G5     O4'    8   4.946   5.248   1.934
    1G5     C1'    9   5.007   5.125   1.981
    1G5     H1'   10   4.984   5.044   1.911
    1G5      N9   11   5.153   5.140   1.999
    1G5      C8   12   5.234   5.243   1.959
    1G5      H8   13   5.190   5.338   1.930
    1G5      N7   14   5.359   5.215   1.935
    1G5      C5   15   5.363   5.081   1.969
    1G5      C6   16   5.463   4.979   1.955
    1G5      O6   17   5.577   4.988   1.912
    1G5      N1   18   5.427   4.853   1.990
    1G5      H1   19   5.500   4.783   1.995
    1G5      C2   20   5.303   4.813   2.007
    1G5      N2   21   5.288   4.687   2.044
    1G5     H21   22   5.364   4.622   2.035
    1G5     H22   23   5.196   4.646   2.054
    1G5      N3   24   5.196   4.894   2.012
    1G5      C4   25   5.239   5.029   1.999
    1G5     C3'   26   4.889   5.221   2.154
    1G5     H3'   27   4.976   5.281   2.180
    1G5     C2'   28   4.950   5.082   2.115
    1G5     H2'   29   5.025   5.054   2.189
    1G5     O2'   30   4.844   4.988   2.098
    1G5    HO2'   31   4.891   4.905   2.100
    1G5     O3'   32   4.796   5.232   2.259
    2G        P   33   4.840   5.233   2.414
    2G      OP1   34   4.718   5.202   2.494
    2G      OP2   35   4.923   5.351   2.442
    2G      O5'   36   4.942   5.100   2.420
    2G      C5'   37   4.880   4.971   2.449
    2G      H5'   38   4.800   4.957   2.377
    2G     H5''   39   4.832   4.982   2.547
    2G      C4'   40   4.978   4.850   2.447
    2G      H4'   41   4.916   4.762   2.461
    2G      O4'   42   5.056   4.846   2.326
    2G      C1'   43   5.198   4.815   2.347
    2G      H1'   44   5.231   4.743   2.272
    2G       N9   45   5.296   4.926   2.334
    2G       C8   46   5.270   5.058   2.335
    2G       H8   47   5.170   5.095   2.351
    2G       N7   48   5.368   5.130   2.289
    2G       C5   49   5.478   5.045   2.291
    2G       C6   50   5.619   5.072   2.260
    2G       O6   51   5.675   5.171   2.226
    2G       N1   52   5.691   4.955   2.266
    2G       H1   53   5.790   4.966   2.248
    2G       C2   54   5.644   4.829   2.303
    2G       N2   55   5.728   4.728   2.281
    2G      H21   56   5.821   4.752   2.250
    2G      H22   57   5.694   4.633   2.274
    2G       N3   58   5.511   4.801   2.323
    2G       C4   59   5.434   4.918   2.320
    2G      C3'   60   5.081   4.842   2.559
    2G      H3'   61   5.107   4.944   2.587
    2G      C2'   62   5.193   4.767   2.494
    2G      H2'   63   5.283   4.788   2.553
    2G      O2'   64   5.171   4.628   2.504
    2G     HO2'   65   5.121   4.617   2.585
    2G      O3'   66   5.033   4.775   2.668
    3G        P   67   5.086   4.810   2.816
    3G      OP1   68   5.036   4.715   2.920
    3G      OP2   69   5.068   4.953   2.848
    3G      O5'   70   5.243   4.794   2.808
    3G      C5'   71   5.295   4.657   2.821
    3G      H5'   72   5.248   4.591   2.748
    3G     H5''   73   5.268   4.602   2.911
    3G      C4'   74   5.448   4.669   2.804
    3G      H4'   75   5.504   4.576   2.808
    3G      O4'   76   5.482   4.733   2.682
    3G      C1'   77   5.607   4.811   2.692
    3G      H1'   78   5.687   4.767   2.633
    3G       N9   79   5.583   4.952   2.658
    3G       C8   80   5.463   5.022   2.649
    3G       H8   81   5.369   4.973   2.669
    3G       N7   82   5.478   5.147   2.607
    3G       C5   83   5.613   5.152   2.575
    3G       C6   84   5.691   5.262   2.519
    3G       O6   85   5.646   5.371   2.493
    3G       N1   86   5.829   5.236   2.503
    3G       H1   87   5.892   5.312   2.487
    3G       C2   88   5.878   5.116   2.537
    3G       N2   89   6.012   5.104   2.527
    3G      H21   90   6.072   5.173   2.484
    3G      H22   91   6.041   5.008   2.528
    3G       N3   92   5.813   5.011   2.593
    3G       C4   93   5.676   5.042   2.616
    3G      C3'   94   5.509   4.770   2.907
    3G      H3'   95   5.448   4.860   2.906
    3G      C2'   96   5.645   4.799   2.840
    3G      H2'   97   5.693   4.885   2.885
    3G      O2'   98   5.724   4.685   2.867
    3G     HO2'   99   5.684   4.633   2.937
    3G      O3'  100   5.525   4.710   3.037
    4U        P  101   5.502   4.799   3.165
    4U      OP1  102   5.547   4.719   3.282
    4U      OP2  103   5.362   4.855   3.156
    4U      O5'  104   5.606   4.922   3.145
    4U      C5'  105   5.750   4.901   3.150
    4U      H5'  106   5.762   4.818   3.080
    4U     H5''  107   5.782   4.869   3.249
    4U      C4'  108   5.831   5.022   3.096
    4U      H4'  109   5.936   4.998   3.082
    4U      O4'  110   5.790   5.062   2.961
    4U      C1'  111   5.805   5.203   2.951
    4U      H1'  112   5.885   5.222   2.879
    4U       N1  113   5.684   5.269   2.910
    4U       C6  114   5.554   5.220   2.947
    4U       H6  115   5.552   5.132   3.010
    4U       C5  116   5.446   5.275   2.893
    4U       H5  117   5.350   5.226   2.900
    4U       C4  118   5.455   5.393   2.812
    4U       O4  119   5.359   5.461   2.769
    4U       N3  120   5.580   5.439   2.789
    4U       H3  121   5.589   5.501   2.710
    4U       C2  122   5.699   5.387   2.834
    4U       O2  123   5.812   5.435   2.809
    4U      C3'  124   5.805   5.145   3.181
    4U      H3'  125   5.699   5.167   3.186
    4U      C2'  126   5.852   5.255   3.088
    4U      H2'  127   5.815   5.348   3.131
    4U      O2'  128   5.993   5.261   3.090
    4U     HO2'  129   6.026   5.240   3.177
    4U      O3'  130   5.866   5.149   3.313
    5U        P  131   5.790   5.210   3.438
    5U      OP1  132   5.854   5.159   3.566
    5U      OP2  133   5.648   5.188   3.422
    5U      O5'  134   5.817   5.362   3.415
    5U      C5'  135   5.943   5.417   3.421
    5U      H5'  136   6.018   5.361   3.364
    5U     H5''  137   5.971   5.405   3.525
    5U      C4'  138   5.956   5.562   3.373
    5U      H4'  139   6.061   5.589   3.385
    5U      O4'  140   5.917   5.574   3.237
    5U      C1'  141   5.845   5.696   3.225
    5U      H1'  142   5.898   5.738   3.140
    5U       N1  143   5.698   5.672   3.189
    5U       C6  144   5.633   5.553   3.223
    5U       H6  145   5.700   5.480   3.266
    5U       C5  146   5.507   5.531   3.182
    5U       H5  147   5.456   5.439   3.205
    5U       C4  148   5.427   5.640   3.116
    5U       O4  149   5.304   5.630   3.091
    5U       N3  150   5.496   5.760   3.093
    5U       H3  151   5.450   5.833   3.041
    5U       C2  152   5.630   5.781   3.129
    5U       O2  153   5.672   5.891   3.111
    5U      C3'  154   5.869   5.660   3.453
    5U      H3'  155   5.770   5.617   3.464
    5U      C2'  156   5.859   5.774   3.356
    5U      H2'  157   5.772   5.835   3.381
    5U      O2'  158   5.973   5.853   3.347
    5U     HO2'  159   5.968   5.926   3.409
    5U      O3'  160   5.917   5.705   3.575
    6A        P  161   5.803   5.731   3.691
    6A      OP1  162   5.882   5.740   3.820
    6A      OP2  163   5.687   5.642   3.691
    6A      O5'  164   5.757   5.873   3.652
    6A      C5'  165   5.640   5.931   3.708
    6A      H5'  166   5.660   5.966   3.809
    6A     H5''  167   5.556   5.863   3.717
    6A      C4'  168   5.587   6.045   3.625
    6A      H4'  169   5.662   6.122   3.641
    6A      O4'  170   5.579   6.013   3.487
    6A      C1'  171   5.455   6.054   3.436
    6A      H1'  172   5.469   6.101   3.338
    6A       N9  173   5.374   5.928   3.429
    6A       C8  174   5.409   5.798   3.461
    6A       H8  175   5.501   5.777   3.515
    6A       N7  176   5.324   5.706   3.431
    6A       C5  177   5.218   5.787   3.388
    6A       C6  178   5.081   5.757   3.348
    6A       N6  179   5.023   5.640   3.321
    6A      H61  180   4.932   5.640   3.278
    6A      H62  181   5.082   5.558   3.329
    6A       N1  182   4.997   5.852   3.309
    6A       C2  183   5.047   5.976   3.315
    6A       H2  184   4.974   6.050   3.286
    6A       N3  185   5.161   6.027   3.348
    6A       C4  186   5.248   5.921   3.383
    6A      C3'  187   5.447   6.097   3.660
    6A      H3'  188   5.386   6.010   3.686
    6A      C2'  189   5.397   6.165   3.530
    6A      H2'  190   5.288   6.169   3.526
    6A      O2'  191   5.457   6.290   3.508
    6A     HO2'  192   5.484   6.327   3.593
    6A      O3'  193   5.453   6.194   3.768
    7G        P  194   5.357   6.185   3.892
    7G      OP1  195   5.376   6.302   3.977
    7G      OP2  196   5.378   6.055   3.949
    7G      O5'  197   5.210   6.188   3.819
    7G      C5'  198   5.156   6.300   3.751
    7G      H5'  199   5.213   6.313   3.659
    7G     H5''  200   5.171   6.394   3.805
    7G      C4'  201   5.006   6.286   3.729
    7G      H4'  202   4.968   6.387   3.718
    7G      O4'  203   4.981   6.213   3.606
    7G      C1'  204   4.876   6.113   3.622
    7G      H1'  205   4.807   6.120   3.538
    7G       N9  206   4.935   5.981   3.644
    7G       C8  207   5.070   5.949   3.668
    7G       H8  208   5.142   6.030   3.671
    7G       N7  209   5.099   5.825   3.669
    7G       C5  210   4.972   5.763   3.648
    7G       C6  211   4.939   5.625   3.632
    7G       O6  212   5.012   5.524   3.639
    7G       N1  213   4.802   5.601   3.602
    7G       H1  214   4.766   5.509   3.584
    7G       C2  215   4.716   5.703   3.577
    7G       N2  216   4.587   5.672   3.564
    7G      H21  217   4.562   5.576   3.549
    7G      H22  218   4.525   5.751   3.546
    7G       N3  219   4.739   5.833   3.605
    7G       C4  220   4.874   5.858   3.634
    7G      C3'  221   4.931   6.209   3.840
    7G      H3'  222   4.987   6.128   3.886
    7G      C2'  223   4.811   6.149   3.753
    7G      H2'  224   4.774   6.066   3.813
    7G      O2'  225   4.715   6.249   3.721
    7G     HO2'  226   4.699   6.314   3.790
    7G      O3'  227   4.897   6.299   3.935
    8G        P  228   4.881   6.256   4.088
    8G      OP1  229   4.841   6.373   4.161
    8G      OP2  230   4.991   6.171   4.127
    8G      O5'  231   4.756   6.163   4.090
    8G      C5'  232   4.622   6.204   4.085
    8G      H5'  233   4.616   6.271   3.999
    8G     H5''  234   4.591   6.264   4.171
    8G      C4'  235   4.535   6.082   4.078
    8G      H4'  236   4.431   6.114   4.083
    8G      O4'  237   4.565   5.998   3.963
    8G      C1'  238   4.557   5.859   4.000
    8G      H1'  239   4.489   5.803   3.936
    8G       N9  240   4.691   5.802   3.997
    8G       C8  241   4.812   5.864   3.986
    8G       H8  242   4.819   5.970   4.005
    8G       N7  243   4.920   5.788   3.979
    8G       C5  244   4.864   5.665   3.979
    8G       C6  245   4.929   5.537   3.963
    8G       O6  246   5.047   5.507   3.945
    8G       N1  247   4.847   5.429   3.976
    8G       H1  248   4.891   5.339   3.991
    8G       C2  249   4.710   5.440   3.993
    8G       N2  250   4.632   5.335   3.997
    8G      H21  251   4.673   5.243   3.995
    8G      H22  252   4.534   5.358   4.012
    8G       N3  253   4.644   5.555   4.001
    8G       C4  254   4.724   5.667   3.988
    8G      C3'  255   4.552   5.993   4.206
    8G      H3'  256   4.657   5.983   4.235
    8G      C2'  257   4.498   5.859   4.143
    8G      H2'  258   4.540   5.776   4.199
    8G      O2'  259   4.359   5.855   4.130
    8G     HO2'  260   4.324   5.884   4.215
    8G      O3'  261   4.470   6.023   4.320
    9G        P  262   4.524   6.019   4.463
    9G      OP1  263   4.411   6.054   4.552
    9G      OP2  264   4.645   6.098   4.470
    9G      O5'  265   4.565   5.865   4.487
    9G      C5'  266   4.467   5.762   4.496
    9G      H5'  267   4.391   5.764   4.417
    9G     H5''  268   4.412   5.769   4.590
    9G      C4'  269   4.533   5.620   4.478
    9G      H4'  270   4.453   5.545   4.473
    9G      O4'  271   4.607   5.610   4.354
    9G      C1'  272   4.716   5.510   4.368
    9G      H1'  273   4.693   5.431   4.297
    9G       N9  274   4.845   5.570   4.334
    9G       C8  275   4.863   5.709   4.316
    9G       H8  276   4.783   5.778   4.335
    9G       N7  277   4.979   5.733   4.264
    9G       C5  278   5.038   5.608   4.248
    9G       C6  279   5.176   5.578   4.210
    9G       O6  280   5.262   5.654   4.171
    9G       N1  281   5.203   5.440   4.216
    9G       H1  282   5.296   5.408   4.193
    9G       C2  283   5.121   5.351   4.266
    9G       N2  284   5.175   5.229   4.271
    9G      H21  285   5.272   5.213   4.249
    9G      H22  286   5.116   5.150   4.294
    9G       N3  287   4.994   5.370   4.309
    9G       C4  288   4.962   5.504   4.298
    9G      C3'  289   4.631   5.577   4.591
    9G      H3'  290   4.705   5.656   4.604
    9G      C2'  291   4.699   5.452   4.514
    9G      H2'  292   4.796   5.416   4.549
    9G      O2'  293   4.608   5.340   4.501
    9G     HO2'  294   4.588   5.326   4.593
    9G      O3'  295   4.560   5.544   4.705
   10U        P  296   4.640   5.498   4.837
   10U      OP1  297   4.573   5.547   4.959
   10U      OP2  298   4.787   5.525   4.817
   10U      O5'  299   4.616   5.334   4.820
   10U      C5'  300   4.493   5.279   4.869
   10U      H5'  301   4.422   5.315   4.794
   10U     H5''  302   4.467   5.316   4.968
   10U      C4'  303   4.506   5.127   4.857
   10U      H4'  304   4.408   5.087   4.882
   10U      O4'  305   4.528   5.097   4.723
   10U      C1'  306   4.602   4.975   4.719
   10U      H1'  307   4.539   4.903   4.667
   10U       N1  308   4.723   4.991   4.634
   10U       C6  309   4.819   5.096   4.643
   10U       H6  310   4.807   5.162   4.727
   10U       C5  311   4.922   5.102   4.556
   10U       H5  312   4.999   5.178   4.559
   10U       C4  313   4.937   5.004   4.451
   10U       O4  314   5.034   4.993   4.379
   10U       N3  315   4.844   4.904   4.442
   10U       H3  316   4.852   4.837   4.367
   10U       C2  317   4.742   4.887   4.534
   10U       O2  318   4.662   4.794   4.524
   10U      C3'  319   4.613   5.067   4.942
   10U      H3'  320   4.693   5.137   4.920
   10U      C2'  321   4.623   4.928   4.863
   10U      H2'  322   4.722   4.883   4.871
   10U      O2'  323   4.519   4.843   4.907
   10U     HO2'  324   4.560   4.815   4.989
   10U      O3'  325   4.589   5.050   5.077
   11U        P  326   4.702   5.009   5.181
   11U      OP1  327   4.656   5.010   5.319
   11U      OP2  328   4.826   5.085   5.154
   11U      O5'  329   4.739   4.869   5.133
   11U      C5'  330   4.676   4.754   5.200
   11U      H5'  331   4.569   4.751   5.177
   11U     H5''  332   4.686   4.757   5.308
   11U      C4'  333   4.725   4.616   5.164
   11U      H4'  334   4.660   4.535   5.200
   11U      O4'  335   4.720   4.611   5.019
   11U      C1'  336   4.823   4.524   4.974
   11U      H1'  337   4.781   4.433   4.931
   11U       N1  338   4.893   4.581   4.858
   11U       C6  339   4.927   4.716   4.863
   11U       H6  340   4.909   4.767   4.957
   11U       C5  341   4.979   4.779   4.753
   11U       H5  342   4.994   4.886   4.758
   11U       C4  343   5.001   4.703   4.632
   11U       O4  344   5.063   4.751   4.538
   11U       N3  345   4.989   4.568   4.648
   11U       H3  346   5.017   4.514   4.567
   11U       C2  347   4.938   4.496   4.753
   11U       O2  348   4.931   4.371   4.755
   11U      C3'  349   4.872   4.584   5.199
   11U      H3'  350   4.938   4.671   5.189
   11U      C2'  351   4.913   4.486   5.090
   11U      H2'  352   5.015   4.479   5.050
   11U      O2'  353   4.874   4.359   5.119
   11U     HO2'  354   4.840   4.362   5.209
   11U      O3'  355   4.896   4.528   5.326
   12A        P  356   4.963   4.618   5.436
   12A      OP1  357   4.965   4.546   5.564
   12A      OP2  358   4.908   4.755   5.437
   12A      O5'  359   5.110   4.629   5.375
   12A      C5'  360   5.189   4.509   5.372
   12A      H5'  361   5.151   4.429   5.309
   12A     H5''  362   5.189   4.483   5.478
   12A      C4'  363   5.335   4.545   5.325
   12A      H4'  364   5.393   4.454   5.336
   12A      O4'  365   5.345   4.591   5.192
   12A      C1'  366   5.414   4.713   5.185
   12A      H1'  367   5.484   4.717   5.102
   12A       N9  368   5.313   4.829   5.172
   12A       C8  369   5.171   4.809   5.151
   12A       H8  370   5.124   4.712   5.151
   12A       N7  371   5.102   4.921   5.142
   12A       C5  372   5.213   5.018   5.138
   12A       C6  373   5.221   5.156   5.120
   12A       N6  374   5.119   5.230   5.102
   12A      H61  375   5.144   5.328   5.095
   12A      H62  376   5.026   5.191   5.097
   12A       N1  377   5.336   5.221   5.127
   12A       C2  378   5.444   5.153   5.156
   12A       H2  379   5.535   5.211   5.164
   12A       N3  380   5.450   5.024   5.180
   12A       C4  381   5.332   4.956   5.160
   12A      C3'  382   5.405   4.649   5.414
   12A      H3'  383   5.328   4.722   5.440
   12A      C2'  384   5.496   4.721   5.319
   12A      H2'  385   5.521   4.824   5.344
   12A      O2'  386   5.623   4.651   5.312
   12A     HO2'  387   5.624   4.585   5.382
   12A      O3'  388   5.477   4.600   5.524
   13G        P  389   5.470   4.676   5.664
   13G      OP1  390   5.566   4.619   5.755
   13G      OP2  391   5.328   4.685   5.700
   13G      O5'  392   5.513   4.826   5.639
   13G      C5'  393   5.646   4.856   5.618
   13G      H5'  394   5.683   4.797   5.535
   13G     H5''  395   5.704   4.832   5.707
   13G      C4'  396   5.663   5.011   5.592
   13G      H4'  397   5.765   5.049   5.587
   13G      O4'  398   5.592   5.055   5.471
   13G      C1'  399   5.533   5.185   5.493
   13G      H1'  400   5.568   5.260   5.422
   13G       N9  401   5.380   5.173   5.489
   13G       C8  402   5.308   5.056   5.486
   13G       H8  403   5.350   4.957   5.499
   13G       N7  404   5.186   5.075   5.449
   13G       C5  405   5.173   5.213   5.456
   13G       C6  406   5.065   5.301   5.431
   13G       O6  407   4.953   5.276   5.390
   13G       N1  408   5.091   5.434   5.445
   13G       H1  409   5.013   5.497   5.440
   13G       C2  410   5.216   5.484   5.472
   13G       N2  411   5.227   5.613   5.478
   13G      H21  412   5.142   5.665   5.497
   13G      H22  413   5.318   5.640   5.514
   13G       N3  414   5.322   5.406   5.497
   13G       C4  415   5.295   5.274   5.483
   13G      C3'  416   5.590   5.097   5.704
   13G      H3'  417   5.493   5.050   5.716
   13G      C2'  418   5.575   5.231   5.633
   13G      H2'  419   5.488   5.284   5.674
   13G      O2'  420   5.690   5.309   5.636
   13G     HO2'  421   5.734   5.310   5.721
   13G      O3'  422   5.664   5.095   5.825
   14G        P  423   5.599   5.105   5.968
   14G      OP1  424   5.701   5.152   6.064
   14G      OP2  425   5.517   4.979   5.997
   14G      O5'  426   5.500   5.225   5.934
   14G      C5'  427   5.544   5.364   5.949
   14G      H5'  428   5.624   5.369   5.875
   14G     H5''  429   5.594   5.389   6.042
   14G      C4'  430   5.428   5.466   5.934
   14G      H4'  431   5.472   5.565   5.932
   14G      O4'  432   5.354   5.441   5.811
   14G      C1'  433   5.215   5.468   5.839
   14G      H1'  434   5.175   5.542   5.769
   14G       N9  435   5.136   5.346   5.809
   14G       C8  436   5.171   5.216   5.839
   14G       H8  437   5.265   5.195   5.887
   14G       N7  438   5.075   5.125   5.804
   14G       C5  439   4.979   5.208   5.741
   14G       C6  440   4.859   5.173   5.665
   14G       O6  441   4.819   5.067   5.631
   14G       N1  442   4.788   5.285   5.631
   14G       H1  443   4.699   5.258   5.592
   14G       C2  444   4.831   5.408   5.662
   14G       N2  445   4.760   5.502   5.618
   14G      H21  446   4.671   5.480   5.577
   14G      H22  447   4.789   5.599   5.616
   14G       N3  448   4.943   5.443   5.724
   14G       C4  449   5.014   5.341   5.756
   14G      C3'  450   5.320   5.445   6.044
   14G      H3'  451   5.294   5.340   6.048
   14G      C2'  452   5.201   5.519   5.982
   14G      H2'  453   5.111   5.479   6.027
   14G      O2'  454   5.222   5.662   5.973
   14G     HO2'  455   5.201   5.698   6.060
   14G      O3'  456   5.359   5.493   6.176
   15G        P  457   5.306   5.415   6.296
   15G      OP1  458   5.356   5.480   6.423
   15G      OP2  459   5.331   5.270   6.279
   15G      O5'  460   5.147   5.435   6.296
   15G      C5'  461   5.095   5.559   6.346
   15G      H5'  462   5.150   5.642   6.302
   15G     H5''  463   5.124   5.579   6.449
   15G      C4'  464   4.946   5.573   6.318
   15G      H4'  465   4.910   5.673   6.343
   15G      O4'  466   4.912   5.557   6.185
   15G      C1'  467   4.790   5.490   6.180
   15G      H1'  468   4.717   5.544   6.121
   15G       N9  469   4.814   5.359   6.107
   15G       C8  470   4.920   5.277   6.113
   15G       H8  471   5.013   5.309   6.157
   15G       N7  472   4.899   5.162   6.063
   15G       C5  473   4.770   5.164   6.012
   15G       C6  474   4.694   5.071   5.945
   15G       O6  475   4.732   4.960   5.918
   15G       N1  476   4.564   5.119   5.923
   15G       H1  477   4.503   5.060   5.869
   15G       C2  478   4.523   5.246   5.935
   15G       N2  479   4.402   5.276   5.893
   15G      H21  480   4.350   5.216   5.830
   15G      H22  481   4.370   5.372   5.895
   15G       N3  482   4.599   5.341   5.995
   15G       C4  483   4.719   5.289   6.037
   15G      C3'  484   4.862   5.471   6.398
   15G      H3'  485   4.901   5.369   6.401
   15G      C2'  486   4.733   5.473   6.320
   15G      H2'  487   4.690   5.373   6.320
   15G      O2'  488   4.650   5.577   6.363
   15G     HO2'  489   4.679   5.603   6.451
   15G      O3'  490   4.830   5.526   6.528
   16U        P  491   4.860   5.450   6.658
   16U      OP1  492   4.842   5.536   6.775
   16U      OP2  493   4.988   5.382   6.646
   16U      O5'  494   4.743   5.348   6.657
   16U      C5'  495   4.608   5.392   6.674
   16U      H5'  496   4.604   5.487   6.622
   16U     H5''  497   4.589   5.408   6.781
   16U      C4'  498   4.509   5.294   6.622
   16U      H4'  499   4.408   5.332   6.640
   16U      O4'  500   4.514   5.264   6.482
   16U      C1'  501   4.496   5.122   6.467
   16U      H1'  502   4.404   5.113   6.411
   16U       N1  503   4.618   5.065   6.394
   16U       C6  504   4.748   5.110   6.415
   16U       H6  505   4.768   5.188   6.487
   16U       C5  506   4.849   5.051   6.351
   16U       H5  507   4.947   5.094   6.367
   16U       C4  508   4.826   4.939   6.262
   16U       O4  509   4.908   4.876   6.201
   16U       N3  510   4.695   4.901   6.242
   16U       H3  511   4.688   4.810   6.198
   16U       C2  512   4.589   4.956   6.306
   16U       O2  513   4.471   4.933   6.278
   16U      C3'  514   4.522   5.158   6.700
   16U      H3'  515   4.628   5.148   6.723
   16U      C2'  516   4.486   5.049   6.597
   16U      H2'  517   4.566   4.974   6.600
   16U      O2'  518   4.356   4.986   6.622
   16U     HO2'  519   4.356   4.944   6.709
   16U      O3'  520   4.459   5.171   6.835
   17U        P  521   4.475   5.073   6.952
   17U      OP1  522   4.404   5.119   7.067
   17U      OP2  523   4.615   5.038   6.959
   17U      O5'  524   4.400   4.940   6.905
   17U      C5'  525   4.256   4.931   6.920
   17U      H5'  526   4.223   5.011   6.854
   17U     H5''  527   4.220   4.950   7.021
   17U      C4'  528   4.207   4.796   6.865
   17U      H4'  529   4.100   4.804   6.882
   17U      O4'  530   4.229   4.778   6.732
   17U      C1'  531   4.277   4.647   6.703
   17U      H1'  532   4.225   4.600   6.619
   17U       N1  533   4.410   4.659   6.648
   17U       C6  534   4.526   4.670   6.729
   17U       H6  535   4.508   4.688   6.834
   17U       C5  536   4.646   4.669   6.675
   17U       H5  537   4.734   4.670   6.737
   17U       C4  538   4.666   4.650   6.531
   17U       O4  539   4.777   4.640   6.481
   17U       N3  540   4.553   4.645   6.457
   17U       H3  541   4.560   4.626   6.358
   17U       C2  542   4.423   4.635   6.514
   17U       O2  543   4.334   4.623   6.434
   17U      C3'  544   4.268   4.674   6.940
   17U      H3'  545   4.370   4.705   6.959
   17U      C2'  546   4.262   4.564   6.835
   17U      H2'  547   4.345   4.495   6.847
   17U      O2'  548   4.126   4.520   6.818
   17U     HO2'  549   4.095   4.472   6.895
   17U      O3'  550   4.200   4.641   7.056
   18A        P  551   4.267   4.547   7.168
   18A      OP1  552   4.229   4.589   7.307
   18A      OP2  553   4.415   4.526   7.130
   18A      O5'  554   4.193   4.413   7.133
   18A      C5'  555   4.056   4.386   7.172
   18A      H5'  556   4.007   4.476   7.135
   18A     H5''  557   4.043   4.378   7.280
   18A      C4'  558   4.008   4.254   7.109
   18A      H4'  559   3.900   4.246   7.123
   18A      O4'  560   4.038   4.252   6.971
   18A      C1'  561   4.125   4.142   6.941
   18A      H1'  562   4.086   4.088   6.855
   18A       N9  563   4.259   4.191   6.905
   18A       C8  564   4.374   4.213   6.985
   18A       H8  565   4.382   4.197   7.092
   18A       N7  566   4.480   4.256   6.915
   18A       C5  567   4.427   4.266   6.787
   18A       C6  568   4.474   4.308   6.662
   18A       N6  569   4.595   4.349   6.632
   18A      H61  570   4.607   4.369   6.533
   18A      H62  571   4.670   4.341   6.699
   18A       N1  572   4.393   4.320   6.558
   18A       C2  573   4.266   4.281   6.567
   18A       H2  574   4.200   4.291   6.482
   18A       N3  575   4.209   4.245   6.678
   18A       C4  576   4.296   4.233   6.782
   18A      C3'  577   4.079   4.133   7.181
   18A      H3'  578   4.162   4.176   7.238
   18A      C2'  579   4.117   4.044   7.064
   18A      H2'  580   4.210   3.988   7.066
   18A      O2'  581   4.019   3.954   7.025
   18A     HO2'  582   4.045   3.868   7.058
   18A      O3'  583   3.979   4.073   7.276
   19G        P  584   4.022   3.955   7.372
   19G      OP1  585   3.911   3.939   7.477
   19G      OP2  586   4.158   3.985   7.418
   19G      O5'  587   4.021   3.828   7.284
   19G      C5'  588   3.899   3.768   7.240
   19G      H5'  589   3.843   3.828   7.168
   19G     H5''  590   3.836   3.750   7.327
   19G      C4'  591   3.916   3.633   7.174
   19G      H4'  592   3.819   3.583   7.173
   19G      O4'  593   3.981   3.656   7.052
   19G      C1'  594   4.100   3.584   7.052
   19G      H1'  595   4.122   3.548   6.951
   19G       N9  596   4.219   3.669   7.078
   19G       C8  597   4.295   3.686   7.195
   19G       H8  598   4.266   3.635   7.285
   19G       N7  599   4.394   3.768   7.174
   19G       C5  600   4.394   3.809   7.039
   19G       C6  601   4.475   3.891   6.958
   19G       O6  602   4.579   3.950   6.990
   19G       N1  603   4.433   3.901   6.826
   19G       H1  604   4.505   3.939   6.767
   19G       C2  605   4.333   3.827   6.774
   19G       N2  606   4.306   3.837   6.646
   19G      H21  607   4.372   3.888   6.590
   19G      H22  608   4.236   3.778   6.603
   19G       N3  609   4.255   3.742   6.849
   19G       C4  610   4.288   3.740   6.983
   19G      C3'  611   4.004   3.535   7.263
   19G      H3'  612   4.069   3.594   7.327
   19G      C2'  613   4.085   3.468   7.146
   19G      H2'  614   4.178   3.429   7.188
   19G      O2'  615   4.009   3.372   7.067
   19G     HO2'  616   4.032   3.284   7.096
   19G      O3'  617   3.936   3.440   7.351
   20G        P  618   4.003   3.400   7.490
   20G      OP1  619   3.903   3.324   7.571
   20G      OP2  620   4.071   3.516   7.551
   20G      O5'  621   4.112   3.299   7.439
   20G      C5'  622   4.074   3.176   7.384
   20G      H5'  623   3.987   3.193   7.321
   20G     H5''  624   4.046   3.111   7.467
   20G      C4'  625   4.186   3.104   7.308
   20G      H4'  626   4.145   3.010   7.271
   20G      O4'  627   4.226   3.192   7.207
   20G      C1'  628   4.373   3.185   7.202
   20G      H1'  629   4.411   3.170   7.101
   20G       N9  630   4.431   3.315   7.233
   20G       C8  631   4.471   3.360   7.359
   20G       H8  632   4.433   3.314   7.450
   20G       N7  633   4.554   3.463   7.353
   20G       C5  634   4.578   3.493   7.218
   20G       C6  635   4.651   3.600   7.150
   20G       O6  636   4.719   3.690   7.198
   20G       N1  637   4.625   3.597   7.011
   20G       H1  638   4.666   3.668   6.952
   20G       C2  639   4.544   3.503   6.944
   20G       N2  640   4.526   3.524   6.814
   20G      H21  641   4.575   3.597   6.763
   20G      H22  642   4.478   3.450   6.765
   20G       N3  643   4.470   3.413   7.010
   20G       C4  644   4.489   3.409   7.143
   20G      C3'  645   4.307   3.067   7.397
   20G      H3'  646   4.317   3.144   7.474
   20G      C2'  647   4.410   3.069   7.287
   20G      H2'  648   4.509   3.087   7.329
   20G      O2'  649   4.411   2.952   7.205
   20G     HO2'  650   4.454   2.885   7.260
   20G      O3'  651   4.291   2.945   7.467
   21G3       P  652   4.400   2.880   7.559
   21G3     OP1  653   4.340   2.767   7.632
   21G3     OP2  654   4.465   2.988   7.642
   21G3     O5'  655   4.505   2.824   7.454
   21G3     C5'  656   4.485   2.699   7.389
   21G3     H5'  657   4.387   2.693   7.341
   21G3    H5''  658   4.478   2.618   7.461
   21G3     C4'  659   4.608   2.669   7.298
   21G3     H4'  660   4.586   2.573   7.253
   21G3     O4'  661   4.642   2.770   7.204
   21G3     C1'  662   4.772   2.816   7.235
   21G3     H1'  663   4.829   2.833   7.143
   21G3      N9  664   4.771   2.951   7.302
   21G3      C8  665   4.803   2.977   7.434
   21G3      H8  666   4.807   2.903   7.513
   21G3      N7  667   4.833   3.106   7.451
   21G3      C5  668   4.819   3.161   7.328
   21G3      C6  669   4.849   3.292   7.277
   21G3      O6  670   4.885   3.394   7.347
   21G3      N1  671   4.826   3.309   7.145
   21G3      H1  672   4.843   3.400   7.105
   21G3      C2  673   4.774   3.216   7.063
   21G3      N2  674   4.762   3.243   6.939
   21G3     H21  675   4.805   3.327   6.903
   21G3     H22  676   4.729   3.173   6.873
   21G3      N3  677   4.746   3.090   7.104
   21G3      C4  678   4.773   3.066   7.235
   21G3     C3'  679   4.731   2.631   7.386
   21G3     H3'  680   4.706   2.680   7.480
   21G3     C2'  681   4.845   2.700   7.309
   21G3     H2'  682   4.916   2.747   7.377
   21G3     O2'  683   4.908   2.619   7.219
   21G3    HO2'  684   4.938   2.544   7.271
   21G3     O3'  685   4.755   2.492   7.393
   21G3    HO3'  686   4.791   2.480   7.481
   22Cl-    Cl-  687   2.942   8.319   0.995
   23Cl-    Cl-  688   2.326   0.408   7.818
   24Cl-    Cl-  689   7.651   1.808   1.907
   25Cl-    Cl-  690   1.469   7.473   3.330
   26Cl-    Cl-  691   6.837   0.542   1.088
   27Cl-    Cl-  692   9.156   8.829   8.016
   28Cl-    Cl-  693   8.242   3.162   9.615
   29Cl-    Cl-  694   8.905   5.716   7.984
   30Cl-    Cl-  695   7.506   6.478   9.438
   31Cl-    Cl-  696   7.057   4.047   1.158
   32Cl-    Cl-  697   6.811   3.798   8.712
   33Cl-    Cl-  698   6.997   9.356   7.403
   34Cl-    Cl-  699   4.671   2.616   4.973
   35Cl-    Cl-  700   3.540   2.495   9.391
   36Cl-    Cl-  701   7.379   3.403   8.045
   37Cl-    Cl-  702   8.347   6.319   8.370
   38Cl-    Cl-  703   8.109   0.656   9.101
   39Cl-    Cl-  704   8.220   3.295   5.470
   40Cl-    Cl-  705   8.896   0.873   5.243
   41Cl-    Cl-  706   9.013   9.772   1.381
   42Cl-    Cl-  707   0.883   7.653   0.370
   43Cl-    Cl-  708   9.860   0.807   3.408
   44Cl-    Cl-  709   4.680   8.457   0.572
   45Cl-    Cl-  710   6.958   7.300   2.076
   46Cl-    Cl-  711   2.962   5.289   7.955
   47Cl-    Cl-  712   8.002   8.641   2.381
   48Cl-    Cl-  713   9.096   1.518   9.364
   49Cl-    Cl-  714   1.528   6.054   0.510
   50Cl-    Cl-  715   1.919   9.386   2.301
   51Cl-    Cl-  716   4.658   0.986   6.577
   52Cl-    Cl-  717   7.509   7.133   8.252
   53Cl-    Cl-  718   4.410   0.607   4.915
   54Cl-    Cl-  719   3.652   5.630   1.934
   55Cl-    Cl-  720   6.548   1.382   9.077
   56Cl-    Cl-  721   1.597   7.654   6.890
   57Cl-    Cl-  722   0.117   5.424   2.368
   58Cl-    Cl-  723   4.102   4.483   1.913
   59Cl-    Cl-  724   2.861   3.757   8.945
   60Cl-    Cl-  725   8.203   3.267   1.824
   61Cl-    Cl-  726   6.574   6.495   1.715
   62Cl-    Cl-  727   5.916   8.701   2.186
   63Cl-    Cl-  728   2.002   3.682   2.083
   64Cl-    Cl-  729   0.084   7.308   7.432
   65Cl-    Cl-  730   9.343   2.409   4.036
   66Cl-    Cl-  731   3.958   3.059   4.649
   67Cl-    Cl-  732   0.082   8.419   3.882
   68Cl-    Cl-  733   8.703   7.989   6.596
   69Cl-    Cl-  734   1.975   5.049   0.528
   70Cl-    Cl-  735   9.085   8.336   3.524
   71Cl-    Cl-  736   3.450   0.701   8.219
   72Cl-    Cl-  737   7.623   6.526   0.293
   73Cl-    Cl-  738   4.697   7.929   4.195
   74Cl-    Cl-  739   8.451   2.226   4.182
   75Cl-    Cl-  740   3.280   2.963   2.863
   76Cl-    Cl-  741   7.115   5.161   5.703
   77Cl-    Cl-  742   2.095   9.297   0.551
   78Cl-    Cl-  743   7.003   2.639   7.752
   79Cl-    Cl-  744   1.153   7.322   8.696
   80Cl-    Cl-  745   0.803   5.608   2.200
   81Cl-    Cl-  746   5.119   1.676   3.920
   82Cl-    Cl-  747   9.426   1.887   7.240
   83Cl-    Cl-  748   7.625   7.061   3.428
   84Cl-    Cl-  749   9.538   7.860   5.261
   85Cl-    Cl-  750   1.224   0.601   4.283
   86Cl-    Cl-  751   8.808   2.983   7.011
   87Cl-    Cl-  752   3.610   7.345   5.424
   88Cl-    Cl-  753   5.705   5.267   0.088
   89Cl-    Cl-  754   4.439   0.936   2.889
   90Cl-    Cl-  755   8.268   7.574   9.738
   91Cl-    Cl-  756   1.118   3.868   6.904
   92Cl-    Cl-  757   0.837   9.635   4.684
   93Cl-    Cl-  758   2.972   3.566   5.440
   94Cl-    Cl-  759   9.360   5.351   9.259
   95Cl-    Cl-  760   8.375   5.644   5.964
   96Cl-    Cl-  761   1.303   8.373   1.873
   97Cl-    Cl-  762   1.632   1.565   5.185
   98Cl-    Cl-  763   8.986   5.768   5.139
   99Cl-    Cl-  764   5.539   0.786   2.989
  100Cl-    Cl-  765   5.656   7.973   6.942
  101Cl-    Cl-  766   5.771   4.726   4.239
  102Cl-    Cl-  767   5.378   2.022   8.136
  103Cl-    Cl-  768   5.477   2.774   2.560
  104Cl-    Cl-  769   7.198   4.600   0.027
  105Cl-    Cl-  770   0.757   0.915   0.767
  106Cl-    Cl-  771   1.187   0.757   1.698
  107K+      K+  772   4.283   8.940   0.350
  108K+      K+  773   2.347   2.542   6.585
  109K+      K+  774   5.369   5.344   2.444
  110K+      K+  775   4.660   6.588   4.514
  111K+      K+  776   8.761   8.242   2.462
  112K+      K+  777   9.602   7.282   7.191
  113K+      K+  778   4.943   5.771   0.501
  114K+      K+  779   7.175   4.113   9.787
  115K+      K+  780   5.563   3.632   7.172
  116K+      K+  781   1.195   6.430   2.420
  117K+      K+  782   2.875   4.064   1.461
  118K+      K+  783   8.465   2.625   6.861
  119K+      K+  784   0.232   9.827   2.010
  120K+      K+  785   4.939   4.990   5.379
  121K+      K+  786   5.160   5.438   2.970
  122K+      K+  787   4.551   0.384   8.353
  123K+      K+  788   8.337   6.955   1.104
  124K+      K+  789   8.642   1.408   0.567
  125K+      K+  790   6.030   0.347   8.307
  126K+      K+  791   6.332   1.280   1.270
  127K+      K+  792   3.634   4.953   3.222
  128K+      K+  793   9.448   3.193   0.006
  129K+      K+  794   2.941   1.855   8.027
  130K+      K+  795   4.251   5.290   7.240
  131K+      K+  796   7.209   2.758   7.946
  132K+      K+  797   9.295   4.647   4.139
  133K+      K+  798   3.817   4.002   8.447
  134K+      K+  799   0.600   1.383   5.091
  135K+      K+  800   3.091   5.475   3.203
  136K+      K+  801   1.807   0.791   7.960
  137K+      K+  802   8.679   2.882   4.007
  138K+      K+  803   8.245   5.959   5.461
  139K+      K+  804   5.451   5.703   6.332
  140K+      K+  805   5.287   9.060   5.302
  141K+      K+  806   8.678   9.282   7.544
  142K+      K+  807   1.348   8.594   1.209
  143K+      K+  808   5.050   4.936   5.997
  144K+      K+  809   8.807   5.577   0.878
  145K+      K+  810   5.239   5.818   3.932
  146K+      K+  811   2.567   4.891   9.590
  147K+      K+  812   7.111   6.561   0.352
  148K+      K+  813   6.750   3.153   1.310
  149K+      K+  814   8.390   1.602   3.092
  150K+      K+  815   0.645   5.821   6.348
  151K+      K+  816   9.662   5.295   6.405
  152K+      K+  817   7.335   8.303   1.850
  153K+      K+  818   5.104   3.264   1.834
  154K+      K+  819   3.662   7.968   2.993
  155K+      K+  820   8.495   1.544   1.302
  156K+      K+  821   4.123   9.309   1.875
  157K+      K+  822   1.414   5.754   9.696
  158K+      K+  823   7.216   8.863   3.909
  159K+      K+  824   8.412   5.442   6.592
  160K+      K+  825   8.247   5.789   7.959
  161K+      K+  826   6.920   0.245   8.074
  162K+      K+  827   6.349   8.181   8.368
  163K+      K+  828   5.994   4.859   7.503
  164K+      K+  829   4.623   3.932   7.268
  165K+      K+  830   4.221   3.079   0.596
  166K+      K+  831   8.846   2.597   8.906
  167K+      K+  832   2.409   2.903   3.288
  168K+      K+  833   8.280   3.535   9.812
  169K+      K+  834   6.735   4.617   8.871
  170K+      K+  835   6.386   7.963   5.871
  171K+      K+  836   4.809   8.030   5.310
  172K+      K+  837   6.814   7.021   3.008
  173K+      K+  838   0.728   9.130   4.582
  174K+      K+  839   7.358   5.666   0.610
  175K+      K+  840   5.267   5.475   3.576
  176K+      K+  841   6.966   4.581   7.128
  177K+      K+  842   5.585   9.702   0.453
  178K+      K+  843   5.339   6.029   4.300
  179K+      K+  844   5.614   4.612   3.656
  180K+      K+  845   3.060   2.425   3.708
  181K+      K+  846   9.689   5.866   0.483
  182K+      K+  847   6.959   5.585   6.998
  183K+      K+  848   9.411   0.193   0.006
  184K+      K+  849   9.800   0.831   3.065
  185K+      K+  850   3.264   9.379   4.528
  186K+      K+  851   4.937   6.568   1.977
  187K+      K+  852   6.328   2.550   5.006
  188K+      K+  853   5.917   2.405   3.642
  189K+      K+  854   4.446   2.895   5.804
  190K+      K+  855   8.234   7.788   3.477
  191K+      K+  856   1.370   0.311   0.229
  192K+      K+  857   1.428   0.025   2.195
  193K+      K+  858   1.778   5.861   5.046
  194K+      K+  859   0.733   6.739   1.316
  195K+      K+  860   0.874   0.754   3.507
  196K+      K+  861   2.063   8.705   7.396
  197K+      K+  862   1.726   7.683   0.123
  198K+      K+  863   3.254   9.779   7.404
  199K+      K+  864   0.728   1.987   5.937
  200K+      K+  865   2.687   8.878   1.537
  201K+      K+  866   2.201   6.216   0.397
  202K+      K+  867   2.623   8.114   8.364
  203K+      K+  868   5.249   4.947   4.535
  204K+      K+  869   7.294   5.360   0.985
  205K+      K+  870   0.992   6.165   4.627
  206K+      K+  871   0.979   2.386   6.710
  207K+      K+  872   9.436   8.618   7.971
  208K+      K+  873   2.662   0.998   5.020
  209K+      K+  874   4.805   4.790   5.688
  210K+      K+  875   1.488   5.001   2.938
  211K+      K+  876   3.902   3.178   6.467
  212WAT      O  877   2.370   1.207   5.693
  212WAT     H1  878   2.304   1.257   5.636
  212WAT     H2  879   2.459   1.205   5.647
  213WAT      O  880   0.545   1.908   8.509
  213WAT     H1  881   0.555   2.008   8.513
  213WAT     H2  882   0.615   1.865   8.565
  214WAT      O  883   5.048   0.795   6.655
  214WAT     H1  884   5.107   0.836   6.585
  214WAT     H2  885   5.028   0.700   6.630
  215WAT      O  886   7.755   9.719   4.086
  215WAT     H1  887   7.714   9.791   4.031
  215WAT     H2  888   7.765   9.751   4.180
  216WAT      O  889   8.716   4.020   0.568
  216WAT     H1  890   8.672   4.061   0.648
  216WAT     H2  891   8.650   3.963   0.518
  217WAT      O  892   4.819   1.163   5.379
  217WAT     H1  893   4.777   1.085   5.334
  217WAT     H2  894   4.889   1.202   5.319
  218WAT      O  895   1.230   9.197   4.265
  218WAT     H1  896   1.278   9.285   4.274
  218WAT     H2  897   1.170   9.184   4.344
  219WAT      O  898   8.891   0.831   1.036
  219WAT     H1  899   8.870   0.928   1.044
  219WAT     H2  900   8.958   0.806   1.106
  220WAT      O  901   7.805   1.227   1.696
  220WAT     H1  902   7.728   1.167   1.677
  220WAT     H2  903   7.836   1.270   1.611
  221WAT      O  904   4.186   5.547   2.449
  221WAT     H1  905   4.281   5.569   2.470
  221WAT     H2  906   4.182   5.459   2.402
  222WAT      O  907   2.715   8.751   4.520
  222WAT     H1  908   2.628   8.774   4.565
  222WAT     H2  909   2.744   8.660   4.549
  223WAT      O  910   4.032   6.321   5.991
  223WAT     H1  911   4.053   6.353   6.083
  223WAT     H2  912   4.056   6.391   5.924
  224WAT      O  913   8.858   2.275   1.048
  224WAT     H1  914   8.920   2.196   1.052
  224WAT     H2  915   8.843   2.310   1.140
  225WAT      O  916   2.510   3.650   2.978
  225WAT     H1  917   2.589   3.701   3.013
  225WAT     H2  918   2.532   3.612   2.888
  226WAT      O  919   5.329   2.475   5.159
  226WAT     H1  920   5.273   2.554   5.134
  226WAT     H2  921   5.331   2.466   5.259
  227WAT      O  922   5.909   1.580   0.043
  227WAT     H1  923   5.826   1.602   0.096
  227WAT     H2  924   5.883   1.526  -0.037
  228WAT      O  925   8.700   0.913   4.254
  228WAT     H1  926   8.606   0.914   4.219
  228WAT     H2  927   8.700   0.880   4.349
  229WAT      O  928   0.937   4.234   1.175
  229WAT     H1  929   0.891   4.309   1.126
  229WAT     H2  930   0.870   4.164   1.198
  230WAT      O  931   4.265   1.149   3.920
  230WAT     H1  932   4.361   1.176   3.905
  230WAT     H2  933   4.210   1.230   3.938
  231WAT      O  934   5.703   9.421   1.847
  231WAT     H1  935   5.789   9.384   1.882
  231WAT     H2  936   5.716   9.516   1.818
  232WAT      O  937   8.348   0.057   4.038
  232WAT     H1  938   8.413   0.089   4.107
  232WAT     H2  939   8.281   0.129   4.020
  233WAT      O  940   4.045   5.868   1.390
  233WAT     H1  941   4.040   5.888   1.488
  233WAT     H2  942   4.129   5.819   1.370
  234WAT      O  943   5.240   1.291   5.611
  234WAT     H1  944   5.265   1.344   5.531
  234WAT     H2  945   5.292   1.206   5.613
  235WAT      O  946   9.142   1.267   5.466
  235WAT     H1  947   9.140   1.169   5.446
  235WAT     H2  948   9.227   1.307   5.432
  236WAT      O  949   2.278   4.547   3.286
  236WAT     H1  950   2.315   4.460   3.318
  236WAT     H2  951   2.341   4.588   3.219
  237WAT      O  952   1.388   9.120   0.719
  237WAT     H1  953   1.413   9.150   0.810
  237WAT     H2  954   1.354   9.026   0.723
  238WAT      O  955   6.055   4.198   6.210
  238WAT     H1  956   6.142   4.162   6.177
  238WAT     H2  957   5.982   4.177   6.144
  239WAT      O  958   0.499   2.655   4.019
  239WAT     H1  959   0.444   2.738   4.004
  239WAT     H2  960   0.475   2.616   4.108
  240WAT      O  961   9.694   1.987   2.268
  240WAT     H1  962   9.773   1.936   2.302
  240WAT     H2  963   9.712   2.019   2.176
  241WAT      O  964   6.930   1.355   3.371
  241WAT     H1  965   6.953   1.440   3.322
  241WAT     H2  966   7.003   1.334   3.436
  242WAT      O  967   2.888   8.040   7.721
  242WAT     H1  968   2.975   8.034   7.672
  242WAT     H2  969   2.900   8.010   7.815
  243WAT      O  970   7.353   3.447   7.679
  243WAT     H1  971   7.406   3.492   7.750
  243WAT     H2  972   7.286   3.385   7.722
  244WAT      O  973   1.534   5.445   4.230
  244WAT     H1  974   1.598   5.522   4.230
  244WAT     H2  975   1.509   5.422   4.324
  245WAT      O  976   1.340   6.719   6.382
  245WAT     H1  977   1.253   6.709   6.432
  245WAT     H2  978   1.324   6.769   6.297
  246WAT      O  979   9.764   2.412   0.609
  246WAT     H1  980   9.862   2.426   0.622
  246WAT     H2  981   9.723   2.384   0.696
  247WAT      O  982   2.491   0.818   4.596
  247WAT     H1  983   2.434   0.807   4.515
  247WAT     H2  984   2.521   0.728   4.628
  248WAT      O  985   2.396   2.594   1.799
  248WAT     H1  986   2.301   2.597   1.766
  248WAT     H2  987   2.458   2.609   1.722
  249WAT      O  988   1.121   8.492   4.598
  249WAT     H1  989   1.190   8.563   4.610
  249WAT     H2  990   1.067   8.511   4.516
  250WAT      O  991   4.577   3.366   4.796
  250WAT     H1  992   4.648   3.352   4.727
  250WAT     H2  993   4.566   3.283   4.851
  251WAT      O  994   1.932   5.900   0.236
  251WAT     H1  995   1.962   5.984   0.280
  251WAT     H2  996   1.891   5.839   0.304
  252WAT      O  997   8.582   3.942   9.418
  252WAT     H1  998   8.647   3.972   9.488
  252WAT     H2  999   8.489   3.960   9.449
  253WAT      O 1000   4.789   6.621   7.023
  253WAT     H1 1001   4.814   6.713   6.992
  253WAT     H2 1002   4.714   6.586   6.968
  254WAT      O 1003   1.392   9.571   3.992
  254WAT     H1 1004   1.331   9.506   3.948
  254WAT     H2 1005   1.339   9.631   4.052
  255WAT      O 1006   3.720   4.788   0.593
  255WAT     H1 1007   3.758   4.851   0.660
  255WAT     H2 1008   3.681   4.840   0.517
  256WAT      O 1009   5.503   9.010   2.722
  256WAT     H1 1010   5.417   9.016   2.672
  256WAT     H2 1011   5.578   9.039   2.662
  257WAT      O 1012   3.069   2.117   5.229
  257WAT     H1 1013   3.023   2.051   5.170
  257WAT     H2 1014   3.162   2.132   5.196
  258WAT      O 1015   6.640   6.332   6.175
  258WAT     H1 1016   6.609   6.401   6.109
  258WAT     H2 1017   6.647   6.373   6.266
  259WAT      O 1018   2.937   3.906   8.477
  259WAT     H1 1019   2.924   3.978   8.544
  259WAT     H2 1020   3.021   3.855   8.498
  260WAT      O 1021   0.222   5.906   8.630
  260WAT     H1 1022   0.173   5.922   8.716
  260WAT     H2 1023   0.316   5.940   8.639
  261WAT      O 1024   3.536   8.427   1.910
  261WAT     H1 1025   3.580   8.349   1.865
  261WAT     H2 1026   3.525   8.407   2.008
  262WAT      O 1027   0.656   1.616   3.338
  262WAT     H1 1028   0.607   1.645   3.420
  262WAT     H2 1029   0.591   1.589   3.267
  263WAT      O 1030   3.598   3.171   1.293
  263WAT     H1 1031   3.499   3.161   1.283
  263WAT     H2 1032   3.619   3.264   1.324
  264WAT      O 1033   0.519   7.960   6.908
  264WAT     H1 1034   0.544   7.899   6.984
  264WAT     H2 1035   0.454   7.912   6.848
  265WAT      O 1036   1.154   1.832   7.936
  265WAT     H1 1037   1.107   1.911   7.975
  265WAT     H2 1038   1.141   1.752   7.994
  266WAT      O 1039   0.464   7.927   4.761
  266WAT     H1 1040   0.448   8.021   4.730
  266WAT     H2 1041   0.472   7.926   4.860
  267WAT      O 1042   8.676   6.484   0.832
  267WAT     H1 1043   8.697   6.570   0.786
  267WAT     H2 1044   8.602   6.498   0.898
  268WAT      O 1045   2.709   9.108   0.941
  268WAT     H1 1046   2.693   9.028   0.883
  268WAT     H2 1047   2.738   9.185   0.884
  269WAT      O 1048   2.287   5.139   5.439
  269WAT     H1 1049   2.294   5.235   5.467
  269WAT     H2 1050   2.194   5.119   5.409
  270WAT      O 1051   1.203   1.743   5.871
  270WAT     H1 1052   1.235   1.654   5.838
  270WAT     H2 1053   1.270   1.782   5.934
  271WAT      O 1054   5.771   5.964   4.447
  271WAT     H1 1055   5.679   6.001   4.435
  271WAT     H2 1056   5.831   5.998   4.376
  272WAT      O 1057   4.802   8.663   6.286
  272WAT     H1 1058   4.829   8.599   6.358
  272WAT     H2 1059   4.707   8.691   6.299
  273WAT      O 1060   2.477   2.224   8.920
  273WAT     H1 1061   2.451   2.307   8.871
  273WAT     H2 1062   2.524   2.249   9.005
  274WAT      O 1063   8.566   3.421   3.706
  274WAT     H1 1064   8.580   3.328   3.672
  274WAT     H2 1065   8.597   3.486   3.637
  275WAT      O 1066   1.446   5.888   7.487
  275WAT     H1 1067   1.460   5.967   7.428
  275WAT     H2 1068   1.521   5.882   7.554
  276WAT      O 1069   5.674   3.501   9.289
  276WAT     H1 1070   5.763   3.456   9.277
  276WAT     H2 1071   5.672   3.586   9.236
  277WAT      O 1072   7.807   6.833   5.334
  277WAT     H1 1073   7.765   6.870   5.417
  277WAT     H2 1074   7.736   6.805   5.270
  278WAT      O 1075   6.558   0.503   6.036
  278WAT     H1 1076   6.475   0.514   5.980
  278WAT     H2 1077   6.638   0.528   5.982
  279WAT      O 1078   5.776   6.403   6.398
  279WAT     H1 1079   5.804   6.489   6.355
  279WAT     H2 1080   5.855   6.342   6.404
  280WAT      O 1081   5.614   8.041   3.327
  280WAT     H1 1082   5.593   7.946   3.303
  280WAT     H2 1083   5.610   8.052   3.426
  281WAT      O 1084   2.632   2.834   3.452
  281WAT     H1 1085   2.704   2.896   3.419
  281WAT     H2 1086   2.593   2.871   3.536
  282WAT      O 1087   2.690   6.710   2.109
  282WAT     H1 1088   2.696   6.653   2.027
  282WAT     H2 1089   2.687   6.651   2.190
  283WAT      O 1090   0.832   5.920   0.863
  283WAT     H1 1091   0.805   5.984   0.935
  283WAT     H2 1092   0.918   5.876   0.889
  284WAT      O 1093   3.263   6.501   0.511
  284WAT     H1 1094   3.288   6.576   0.573
  284WAT     H2 1095   3.220   6.428   0.563
  285WAT      O 1096   6.083   1.509   0.267
  285WAT     H1 1097   6.016   1.533   0.197
  285WAT     H2 1098   6.148   1.585   0.277
  286WAT      O 1099   2.463   2.627   9.139
  286WAT     H1 1100   2.400   2.704   9.140
  286WAT     H2 1101   2.412   2.541   9.146
  287WAT      O 1102   5.758   9.196   7.516
  287WAT     H1 1103   5.713   9.178   7.603
  287WAT     H2 1104   5.702   9.161   7.441
  288WAT      O 1105   7.247   4.538   1.475
  288WAT     H1 1106   7.346   4.526   1.466
  288WAT     H2 1107   7.201   4.501   1.395
  289WAT      O 1108   8.503   9.503   7.573
  289WAT     H1 1109   8.526   9.594   7.609
  289WAT     H2 1110   8.484   9.510   7.475
  290WAT      O 1111   0.593   5.068   0.744
  290WAT     H1 1112   0.508   5.091   0.791
  290WAT     H2 1113   0.662   5.136   0.766
  291WAT      O 1114   3.058   2.011   7.722
  291WAT     H1 1115   2.965   2.010   7.760
  291WAT     H2 1116   3.083   2.106   7.701
  292WAT      O 1117   1.751   7.153   2.885
  292WAT     H1 1118   1.824   7.192   2.942
  292WAT     H2 1119   1.696   7.227   2.847
  293WAT      O 1120   7.689   0.485   9.112
  293WAT     H1 1121   7.678   0.584   9.105
  293WAT     H2 1122   7.780   0.459   9.081
  294WAT      O 1123   5.442   4.288   4.433
  294WAT     H1 1124   5.367   4.308   4.369
  294WAT     H2 1125   5.513   4.357   4.423
  295WAT      O 1126   4.840   0.074   2.088
  295WAT     H1 1127   4.940   0.076   2.090
  295WAT     H2 1128   4.805   0.168   2.083
  296WAT      O 1129   4.139   8.499   1.177
  296WAT     H1 1130   4.136   8.530   1.272
  296WAT     H2 1131   4.233   8.483   1.150
  297WAT      O 1132   8.280   0.314   6.469
  297WAT     H1 1133   8.252   0.336   6.375
  297WAT     H2 1134   8.344   0.384   6.501
  298WAT      O 1135   6.073   4.493   1.337
  298WAT     H1 1136   6.041   4.452   1.422
  298WAT     H2 1137   6.125   4.576   1.357
  299WAT      O 1138   7.566   0.370   2.662
  299WAT     H1 1139   7.579   0.469   2.654
  299WAT     H2 1140   7.509   0.337   2.586
  300WAT      O 1141   9.677   6.655   7.045
  300WAT     H1 1142   9.743   6.676   7.118
  300WAT     H2 1143   9.618   6.580   7.074
  301WAT      O 1144   9.350   3.005   3.824
  301WAT     H1 1145   9.380   2.957   3.906
  301WAT     H2 1146   9.358   2.944   3.745
  302WAT      O 1147   5.602   4.547   8.823
  302WAT     H1 1148   5.616   4.643   8.799
  302WAT     H2 1149   5.576   4.540   8.920
  303WAT      O 1150   2.685   6.640   5.588
  303WAT     H1 1151   2.622   6.655   5.512
  303WAT     H2 1152   2.778   6.626   5.553
  304WAT      O 1153   7.019   3.794   2.864
  304WAT     H1 1154   7.089   3.799   2.794
  304WAT     H2 1155   6.951   3.725   2.839
  305WAT      O 1156   2.159   0.955   1.106
  305WAT     H1 1157   2.206   0.884   1.054
  305WAT     H2 1158   2.099   1.007   1.046
  306WAT      O 1159   5.869   2.335   5.263
  306WAT     H1 1160   5.799   2.294   5.205
  306WAT     H2 1161   5.959   2.316   5.225
  307WAT      O 1162   3.146   8.797   1.306
  307WAT     H1 1163   3.233   8.789   1.356
  307WAT     H2 1164   3.146   8.734   1.229
  308WAT      O 1165   2.020   0.212   2.653
  308WAT     H1 1166   1.928   0.173   2.650
  308WAT     H2 1167   2.075   0.163   2.720
  309WAT      O 1168   5.509   9.509   2.017
  309WAT     H1 1169   5.492   9.439   2.086
  309WAT     H2 1170   5.567   9.472   1.945
  310WAT      O 1171   2.782   9.710   3.662
  310WAT     H1 1172   2.855   9.645   3.681
  310WAT     H2 1173   2.816   9.804   3.673
  311WAT      O 1174   2.486   2.756   5.891
  311WAT     H1 1175   2.402   2.716   5.856
  311WAT     H2 1176   2.559   2.688   5.887
  312WAT      O 1177   1.696   1.987   9.601
  312WAT     H1 1178   1.771   1.945   9.652
  312WAT     H2 1179   1.729   2.020   9.513
  313WAT      O 1180   1.504   1.631   6.440
  313WAT     H1 1181   1.540   1.629   6.533
  313WAT     H2 1182   1.515   1.723   6.402
  314WAT      O 1183   2.679   3.273   2.109
  314WAT     H1 1184   2.680   3.371   2.124
  314WAT     H2 1185   2.704   3.253   2.014
  315WAT      O 1186   3.777   9.067   6.259
  315WAT     H1 1187   3.778   9.063   6.359
  315WAT     H2 1188   3.705   9.129   6.229
  316WAT      O 1189   5.673   0.437   7.114
  316WAT     H1 1190   5.652   0.359   7.054
  316WAT     H2 1191   5.766   0.429   7.147
  317WAT      O 1192   2.388   0.591   4.926
  317WAT     H1 1193   2.387   0.551   5.018
  317WAT     H2 1194   2.376   0.518   4.859
  318WAT      O 1195   3.903   2.657   5.570
  318WAT     H1 1196   3.986   2.628   5.617
  318WAT     H2 1197   3.886   2.596   5.492
  319WAT      O 1198   8.939   7.945   1.846
  319WAT     H1 1199   8.958   7.849   1.867
  319WAT     H2 1200   8.933   7.997   1.931
  320WAT      O 1201   9.082   9.433   3.364
  320WAT     H1 1202   9.158   9.475   3.314
  320WAT     H2 1203   9.007   9.498   3.370
  321WAT      O 1204   6.099   4.378   3.887
  321WAT     H1 1205   6.063   4.422   3.804
  321WAT     H2 1206   6.045   4.406   3.966
  322WAT      O 1207   8.667   2.555   0.292
  322WAT     H1 1208   8.575   2.527   0.265
  322WAT     H2 1209   8.673   2.555   0.392
  323WAT      O 1210   1.497   0.820   1.798
  323WAT     H1 1211   1.521   0.901   1.746
  323WAT     H2 1212   1.402   0.795   1.780
  324WAT      O 1213   1.546   2.536   6.994
  324WAT     H1 1214   1.551   2.586   6.908
  324WAT     H2 1215   1.519   2.598   7.067
  325WAT      O 1216   8.989   1.974   8.287
  325WAT     H1 1217   9.067   1.970   8.224
  325WAT     H2 1218   8.993   2.059   8.339
  326WAT      O 1219   3.431   8.779   9.118
  326WAT     H1 1220   3.503   8.727   9.073
  326WAT     H2 1221   3.414   8.741   9.209
  327WAT      O 1222   7.907   9.307   6.679
  327WAT     H1 1223   7.912   9.406   6.673
  327WAT     H2 1224   7.971   9.274   6.749
  328WAT      O 1225   0.563   7.362   3.828
  328WAT     H1 1226   0.652   7.408   3.832
  328WAT     H2 1227   0.534   7.339   3.921
  329WAT      O 1228   8.891   7.062   7.233
  329WAT     H1 1229   8.949   6.982   7.249
  329WAT     H2 1230   8.829   7.074   7.310
  330WAT      O 1231   3.974   7.316   9.578
  330WAT     H1 1232   4.046   7.303   9.646
  330WAT     H2 1233   4.011   7.301   9.487
  331WAT      O 1234   0.238   8.768   0.695
  331WAT     H1 1235   0.270   8.678   0.665
  331WAT     H2 1236   0.188   8.758   0.781
  332WAT      O 1237   4.257   2.703   4.605
  332WAT     H1 1238   4.253   2.795   4.566
  332WAT     H2 1239   4.291   2.708   4.698
  333WAT      O 1240   9.080   2.396   9.489
  333WAT     H1 1241   9.056   2.301   9.505
  333WAT     H2 1242   8.999   2.454   9.494
  334WAT      O 1243   2.576   4.521   5.437
  334WAT     H1 1244   2.590   4.424   5.417
  334WAT     H2 1245   2.658   4.572   5.412
  335WAT      O 1246   5.202   6.698   2.233
  335WAT     H1 1247   5.107   6.712   2.262
  335WAT     H2 1248   5.225   6.601   2.241
  336WAT      O 1249   4.264   8.112   1.719
  336WAT     H1 1250   4.352   8.099   1.765
  336WAT     H2 1251   4.191   8.118   1.786
  337WAT      O 1252   2.982   4.913   0.389
  337WAT     H1 1253   3.062   4.881   0.440
  337WAT     H2 1254   2.915   4.951   0.453
  338WAT      O 1255   3.405   2.421   0.717
  338WAT     H1 1256   3.387   2.410   0.814
  338WAT     H2 1257   3.318   2.422   0.667
  339WAT      O 1258   7.873   1.136   2.325
  339WAT     H1 1259   7.777   1.110   2.338
  339WAT     H2 1260   7.887   1.163   2.230
  340WAT      O 1261   2.834   5.544   7.232
  340WAT     H1 1262   2.765   5.616   7.219
  340WAT     H2 1263   2.909   5.557   7.167
  341WAT      O 1264   2.091   6.458   4.498
  341WAT     H1 1265   2.009   6.464   4.440
  341WAT     H2 1266   2.066   6.475   4.593
  342WAT      O 1267   9.078   9.661   5.146
  342WAT     H1 1268   9.129   9.636   5.063
  342WAT     H2 1269   9.093   9.592   5.216
  343WAT      O 1270   9.345   3.133   1.738
  343WAT     H1 1271   9.263   3.102   1.788
  343WAT     H2 1272   9.320   3.161   1.646
  344WAT      O 1273   1.390   9.206   6.807
  344WAT     H1 1274   1.394   9.127   6.869
  344WAT     H2 1275   1.413   9.289   6.858
  345WAT      O 1276   5.898   8.229   9.556
  345WAT     H1 1277   5.969   8.181   9.606
  345WAT     H2 1278   5.936   8.311   9.514
  346WAT      O 1279   5.414   5.003   8.579
  346WAT     H1 1280   5.318   4.985   8.556
  346WAT     H2 1281   5.423   5.021   8.677
  347WAT      O 1282   7.378   0.415   0.939
  347WAT     H1 1283   7.406   0.425   1.034
  347WAT     H2 1284   7.279   0.402   0.934
  348WAT      O 1285   7.235   3.763   3.059
  348WAT     H1 1286   7.226   3.732   3.154
  348WAT     H2 1287   7.151   3.743   3.009
  349WAT      O 1288   0.172   4.498   9.570
  349WAT     H1 1289   0.237   4.468   9.500
  349WAT     H2 1290   0.210   4.478   9.660
  350WAT      O 1291   0.102   6.347   2.297
  350WAT     H1 1292   0.005   6.364   2.315
  350WAT     H2 1293   0.129   6.394   2.214
  351WAT      O 1294   7.232   2.490   3.874
  351WAT     H1 1295   7.329   2.508   3.864
  351WAT     H2 1296   7.196   2.454   3.788
  352WAT      O 1297   7.789   9.241   1.199
  352WAT     H1 1298   7.775   9.245   1.100
  352WAT     H2 1299   7.870   9.186   1.219
  353WAT      O 1300   2.570   7.409   8.463
  353WAT     H1 1301   2.475   7.384   8.478
  353WAT     H2 1302   2.575   7.500   8.423
  354WAT      O 1303   7.359   6.891   3.647
  354WAT     H1 1304   7.367   6.968   3.711
  354WAT     H2 1305   7.406   6.914   3.561
  355WAT      O 1306   0.825   3.513   8.942
  355WAT     H1 1307   0.814   3.591   9.004
  355WAT     H2 1308   0.847   3.545   8.850
  356WAT      O 1309   6.939   3.677   0.514
  356WAT     H1 1310   6.965   3.761   0.466
  356WAT     H2 1311   6.906   3.609   0.448
  357WAT      O 1312   2.405   0.977   4.073
  357WAT     H1 1313   2.367   0.886   4.089
  357WAT     H2 1314   2.376   1.011   3.984
  358WAT      O 1315   4.204   1.669   3.611
  358WAT     H1 1316   4.131   1.655   3.678
  358WAT     H2 1317   4.164   1.678   3.520
  359WAT      O 1318   3.879   4.659   1.318
  359WAT     H1 1319   3.957   4.624   1.370
  359WAT     H2 1320   3.834   4.583   1.271
  360WAT      O 1321   0.828   8.658   1.411
  360WAT     H1 1322   0.897   8.722   1.379
  360WAT     H2 1323   0.856   8.564   1.390
  361WAT      O 1324   2.204   0.449   1.068
  361WAT     H1 1325   2.196   0.418   1.163
  361WAT     H2 1326   2.283   0.406   1.026
  362WAT      O 1327   7.918   1.220   9.356
  362WAT     H1 1328   7.839   1.243   9.299
  362WAT     H2 1329   7.945   1.126   9.339
  363WAT      O 1330   6.296   7.450   0.750
  363WAT     H1 1331   6.320   7.353   0.740
  363WAT     H2 1332   6.356   7.492   0.818
  364WAT      O 1333   9.837   1.702   0.329
  364WAT     H1 1334   9.804   1.712   0.423
  364WAT     H2 1335   9.840   1.605   0.305
  365WAT      O 1336   0.731   3.842   9.466
  365WAT     H1 1337   0.718   3.886   9.377
  365WAT     H2 1338   0.700   3.747   9.460
  366WAT      O 1339   7.793   5.160   7.651
  366WAT     H1 1340   7.860   5.114   7.708
  366WAT     H2 1341   7.706   5.168   7.701
  367WAT      O 1342   7.190   9.318   8.939
  367WAT     H1 1343   7.259   9.334   9.009
  367WAT     H2 1344   7.221   9.246   8.877
  368WAT      O 1345   0.404   6.084   5.684
  368WAT     H1 1346   0.426   5.989   5.660
  368WAT     H2 1347   0.482   6.126   5.731
  369WAT      O 1348   5.863   9.410   0.093
  369WAT     H1 1349   5.852   9.501   0.053
  369WAT     H2 1350   5.939   9.411   0.157
  370WAT      O 1351   7.022   1.551   5.600
  370WAT     H1 1352   6.999   1.624   5.665
  370WAT     H2 1353   7.112   1.569   5.561
  371WAT      O 1354   3.304   4.958   1.850
  371WAT     H1 1355   3.340   4.995   1.764
  371WAT     H2 1356   3.273   4.864   1.834
  372WAT      O 1357   0.707   5.100   5.635
  372WAT     H1 1358   0.784   5.090   5.698
  372WAT     H2 1359   0.738   5.087   5.541
  373WAT      O 1360   3.704   2.224   9.318
  373WAT     H1 1361   3.615   2.266   9.336
  373WAT     H2 1362   3.777   2.289   9.338
  374WAT      O 1363   9.147   1.723   6.279
  374WAT     H1 1364   9.072   1.785   6.301
  374WAT     H2 1365   9.126   1.673   6.195
  375WAT      O 1366   8.911   4.961   9.707
  375WAT     H1 1367   8.969   5.032   9.746
  375WAT     H2 1368   8.895   4.890   9.775
  376WAT      O 1369   8.868   1.099   4.232
  376WAT     H1 1370   8.810   1.018   4.233
  376WAT     H2 1371   8.823   1.173   4.181
  377WAT      O 1372   1.542   9.356   3.561
  377WAT     H1 1373   1.558   9.405   3.647
  377WAT     H2 1374   1.580   9.264   3.568
  378WAT      O 1375   6.089   1.209   2.273
  378WAT     H1 1376   5.998   1.250   2.260
  378WAT     H2 1377   6.158   1.265   2.228
  379WAT      O 1378   6.445   3.556   7.288
  379WAT     H1 1379   6.420   3.563   7.384
  379WAT     H2 1380   6.409   3.471   7.250
  380WAT      O 1381   4.900   1.224   0.802
  380WAT     H1 1382   4.807   1.207   0.770
  380WAT     H2 1383   4.898   1.292   0.876
  381WAT      O 1384   7.473   0.233   3.072
  381WAT     H1 1385   7.468   0.135   3.087
  381WAT     H2 1386   7.380   0.269   3.060
  382WAT      O 1387   8.710   6.738   0.751
  382WAT     H1 1388   8.655   6.821   0.750
  382WAT     H2 1389   8.796   6.756   0.800
  383WAT      O 1390   2.696   2.710   1.758
  383WAT     H1 1391   2.638   2.677   1.684
  383WAT     H2 1392   2.645   2.710   1.844
  384WAT      O 1393   2.281   6.427   1.529
  384WAT     H1 1394   2.337   6.493   1.581
  384WAT     H2 1395   2.281   6.339   1.577
  385WAT      O 1396   7.916   5.036   5.410
  385WAT     H1 1397   8.004   5.044   5.363
  385WAT     H2 1398   7.909   4.945   5.452
  386WAT      O 1399   1.727   1.915   2.070
  386WAT     H1 1400   1.753   1.943   2.162
  386WAT     H2 1401   1.808   1.886   2.020
  387WAT      O 1402   4.746   9.364   9.459
  387WAT     H1 1403   4.722   9.271   9.430
  387WAT     H2 1404   4.795   9.410   9.385
  388WAT      O 1405   3.927   1.334   0.280
  388WAT     H1 1406   3.964   1.422   0.250
  388WAT     H2 1407   3.980   1.300   0.358
  389WAT      O 1408   4.114   5.362   6.442
  389WAT     H1 1409   4.054   5.437   6.468
  389WAT     H2 1410   4.141   5.311   6.524
  390WAT      O 1411   5.226   0.496   1.525
  390WAT     H1 1412   5.252   0.511   1.621
  390WAT     H2 1413   5.126   0.493   1.518
  391WAT      O 1414   8.270   8.239   2.709
  391WAT     H1 1415   8.276   8.188   2.795
  391WAT     H2 1416   8.268   8.174   2.633
  392WAT      O 1417   2.966   2.219   4.153
  392WAT     H1 1418   2.931   2.308   4.181
  392WAT     H2 1419   3.055   2.203   4.195
  393WAT      O 1420   9.796   1.234   7.845
  393WAT     H1 1421   9.702   1.260   7.865
  393WAT     H2 1422   9.849   1.315   7.819
  394WAT      O 1423   1.622   9.278   3.063
  394WAT     H1 1424   1.657   9.246   3.151
  394WAT     H2 1425   1.546   9.220   3.034
  395WAT      O 1426   8.701   8.465   8.400
  395WAT     H1 1427   8.783   8.484   8.347
  395WAT     H2 1428   8.697   8.527   8.478
  396WAT      O 1429   9.748   2.535   3.686
  396WAT     H1 1430   9.650   2.551   3.692
  396WAT     H2 1431   9.798   2.617   3.714
  397WAT      O 1432   4.578   1.737   8.642
  397WAT     H1 1433   4.523   1.812   8.604
  397WAT     H2 1434   4.564   1.733   8.741
  398WAT      O 1435   3.867   5.860   1.894
  398WAT     H1 1436   3.906   5.905   1.974
  398WAT     H2 1437   3.809   5.784   1.923
  399WAT      O 1438   5.094   7.293   5.525
  399WAT     H1 1439   5.149   7.333   5.452
  399WAT     H2 1440   5.150   7.229   5.578
  400WAT      O 1441   0.763   3.591   5.633
  400WAT     H1 1442   0.821   3.609   5.553
  400WAT     H2 1443   0.821   3.571   5.712
  401WAT      O 1444   9.837   2.431   5.299
  401WAT     H1 1445   9.747   2.398   5.328
  401WAT     H2 1446   9.859   2.514   5.350
  402WAT      O 1447   5.580   1.081   5.665
  402WAT     H1 1448   5.486   1.092   5.695
  402WAT     H2 1449   5.582   1.019   5.586
  403WAT      O 1450   4.044   8.748   3.958
  403WAT     H1 1451   4.008   8.656   3.974
  403WAT     H2 1452   4.089   8.752   3.869
  404WAT      O 1453   8.222   5.657   4.575
  404WAT     H1 1454   8.140   5.690   4.623
  404WAT     H2 1455   8.266   5.586   4.630
  405WAT      O 1456   8.595   0.323   9.452
  405WAT     H1 1457   8.520   0.267   9.417
  405WAT     H2 1458   8.671   0.320   9.387
  406WAT      O 1459   2.054   8.617   4.139
  406WAT     H1 1460   2.151   8.637   4.155
  406WAT     H2 1461   2.024   8.545   4.201
  407WAT      O 1462   1.745   3.187   3.928
  407WAT     H1 1463   1.694   3.113   3.883
  407WAT     H2 1464   1.841   3.159   3.940
  408WAT      O 1465   8.123   0.405   1.729
  408WAT     H1 1466   8.097   0.402   1.825
  408WAT     H2 1467   8.054   0.455   1.677
  409WAT      O 1468   7.199   6.216   6.857
  409WAT     H1 1469   7.212   6.193   6.953
  409WAT     H2 1470   7.280   6.189   6.804
  410WAT      O 1471   8.537   5.006   7.053
  410WAT     H1 1472   8.592   4.998   7.136
  410WAT     H2 1473   8.494   5.097   7.051
  411WAT      O 1474   2.611   5.565   4.622
  411WAT     H1 1475   2.640   5.481   4.576
  411WAT     H2 1476   2.685   5.632   4.621
  412WAT      O 1477   0.298   8.531   9.669
  412WAT     H1 1478   0.199   8.548   9.667
  412WAT     H2 1479   0.326   8.488   9.583
  413WAT      O 1480   8.694   5.081   8.706
  413WAT     H1 1481   8.776   5.029   8.731
  413WAT     H2 1482   8.638   5.027   8.644
  414WAT      O 1483   9.111   8.066   8.665
  414WAT     H1 1484   9.129   8.092   8.570
  414WAT     H2 1485   9.049   7.987   8.667
  415WAT      O 1486   6.802   6.945   1.769
  415WAT     H1 1487   6.728   7.011   1.751
  415WAT     H2 1488   6.874   6.957   1.700
  416WAT      O 1489   2.683   5.711   0.662
  416WAT     H1 1490   2.614   5.708   0.735
  416WAT     H2 1491   2.681   5.626   0.610
  417WAT      O 1492   5.015   1.607   7.999
  417WAT     H1 1493   5.033   1.555   7.915
  417WAT     H2 1494   5.101   1.644   8.033
  418WAT      O 1495   9.087   8.976   1.853
  418WAT     H1 1496   9.062   8.977   1.756
  418WAT     H2 1497   9.005   8.959   1.908
  419WAT      O 1498   7.279   0.260   9.875
  419WAT     H1 1499   7.180   0.273   9.880
  419WAT     H2 1500   7.321   0.338   9.829
  420WAT      O 1501   9.138   0.884   0.565
  420WAT     H1 1502   9.139   0.858   0.662
  420WAT     H2 1503   9.057   0.846   0.521
  421WAT      O 1504   8.716   3.898   2.014
  421WAT     H1 1505   8.710   3.799   2.008
  421WAT     H2 1506   8.771   3.924   2.093
  422WAT      O 1507   4.223   7.397   6.693
  422WAT     H1 1508   4.237   7.492   6.720
  422WAT     H2 1509   4.294   7.339   6.733
  423WAT      O 1510   3.248   1.657   9.037
  423WAT     H1 1511   3.203   1.619   9.118
  423WAT     H2 1512   3.190   1.730   8.999
  424WAT      O 1513   2.147   8.150   1.909
  424WAT     H1 1514   2.140   8.147   1.809
  424WAT     H2 1515   2.143   8.245   1.940
  425WAT      O 1516   9.185   8.367   9.049
  425WAT     H1 1517   9.185   8.312   9.132
  425WAT     H2 1518   9.103   8.347   8.995
  426WAT      O 1519   2.368   5.762   8.586
  426WAT     H1 1520   2.314   5.798   8.510
  426WAT     H2 1521   2.417   5.680   8.557
  427WAT      O 1522   5.582   6.651   6.151
  427WAT     H1 1523   5.539   6.712   6.218
  427WAT     H2 1524   5.513   6.590   6.112
  428WAT      O 1525   0.026   9.489   2.383
  428WAT     H1 1526   0.098   9.419   2.386
  428WAT     H2 1527  -0.017   9.498   2.473
  429WAT      O 1528   1.042   7.131   2.596
  429WAT     H1 1529   0.975   7.075   2.548
  429WAT     H2 1530   1.090   7.075   2.663
  430WAT      O 1531   2.200   1.041   6.700
  430WAT     H1 1532   2.141   1.002   6.771
  430WAT     H2 1533   2.155   1.033   6.612
  431WAT      O 1534   1.496   0.273   2.372
  431WAT     H1 1535   1.398   0.278   2.391
  431WAT     H2 1536   1.528   0.362   2.338
  432WAT      O 1537   5.763   6.551   8.090
  432WAT     H1 1538   5.713   6.538   8.005
  432WAT     H2 1539   5.718   6.621   8.145
  433WAT      O 1540   6.724   2.752   3.891
  433WAT     H1 1541   6.776   2.796   3.817
  433WAT     H2 1542   6.640   2.804   3.907
  434WAT      O 1543   9.405   5.560   0.829
  434WAT     H1 1544   9.396   5.623   0.905
  434WAT     H2 1545   9.342   5.483   0.842
  435WAT      O 1546   7.372   6.663   7.760
  435WAT     H1 1547   7.360   6.762   7.751
  435WAT     H2 1548   7.421   6.643   7.844
  436WAT      O 1549   4.845   4.268   6.433
  436WAT     H1 1550   4.933   4.312   6.450
  436WAT     H2 1551   4.860   4.174   6.401
  437WAT      O 1552   9.118   2.461   4.886
  437WAT     H1 1553   9.105   2.407   4.803
  437WAT     H2 1554   9.153   2.551   4.861
  438WAT      O 1555   0.739   5.515   1.796
  438WAT     H1 1556   0.810   5.455   1.761
  438WAT     H2 1557   0.781   5.594   1.841
  439WAT      O 1558   2.165   4.437   1.656
  439WAT     H1 1559   2.253   4.399   1.687
  439WAT     H2 1560   2.117   4.476   1.735
  440WAT      O 1561   7.198   5.682   8.454
  440WAT     H1 1562   7.153   5.748   8.394
  440WAT     H2 1563   7.167   5.696   8.548
  441WAT      O 1564   2.859   7.120   9.696
  441WAT     H1 1565   2.938   7.103   9.755
  441WAT     H2 1566   2.887   7.114   9.600
  442WAT      O 1567   5.196   9.583   2.303
  442WAT     H1 1568   5.118   9.611   2.359
  442WAT     H2 1569   5.239   9.664   2.263
  443WAT      O 1570   7.164   0.736   0.381
  443WAT     H1 1571   7.119   0.825   0.374
  443WAT     H2 1572   7.263   0.748   0.382
  444WAT      O 1573   1.104   3.579   9.821
  444WAT     H1 1574   1.176   3.520   9.857
  444WAT     H2 1575   1.091   3.561   9.724
  445WAT      O 1576   2.125   6.434   2.476
  445WAT     H1 1577   2.096   6.341   2.452
  445WAT     H2 1578   2.142   6.438   2.574
  446WAT      O 1579   0.612   2.058   5.335
  446WAT     H1 1580   0.603   2.132   5.401
  446WAT     H2 1581   0.698   2.068   5.286
  447WAT      O 1582   8.714   5.603   0.495
  447WAT     H1 1583   8.755   5.536   0.433
  447WAT     H2 1584   8.664   5.555   0.567
  448WAT      O 1585   5.212   9.646   8.887
  448WAT     H1 1586   5.208   9.653   8.787
  448WAT     H2 1587   5.194   9.552   8.914
  449WAT      O 1588   2.414   3.780   8.450
  449WAT     H1 1589   2.501   3.740   8.479
  449WAT     H2 1590   2.358   3.711   8.405
  450WAT      O 1591   3.951   1.986   6.981
  450WAT     H1 1592   3.861   1.981   7.026
  450WAT     H2 1593   3.977   2.082   6.970
  451WAT      O 1594   4.167   9.633   3.897
  451WAT     H1 1595   4.230   9.622   3.974
  451WAT     H2 1596   4.073   9.640   3.931
  452WAT      O 1597   5.206   8.188   6.932
  452WAT     H1 1598   5.163   8.265   6.979
  452WAT     H2 1599   5.305   8.199   6.934
  453WAT      O 1600   9.653   5.415   1.575
  453WAT     H1 1601   9.709   5.363   1.510
  453WAT     H2 1602   9.710   5.486   1.617
  454WAT      O 1603   2.425   7.280   7.095
  454WAT     H1 1604   2.468   7.367   7.070
  454WAT     H2 1605   2.428   7.269   7.194
  455WAT      O 1606   7.654   0.928   4.965
  455WAT     H1 1607   7.743   0.944   5.008
  455WAT     H2 1608   7.589   0.999   4.993
  456WAT      O 1609   1.787   9.555   2.651
  456WAT     H1 1610   1.727   9.583   2.726
  456WAT     H2 1611   1.799   9.456   2.654
  457WAT      O 1612   1.788   5.704   8.557
  457WAT     H1 1613   1.887   5.703   8.574
  457WAT     H2 1614   1.762   5.622   8.507
  458WAT      O 1615   4.899   1.512   3.016
  458WAT     H1 1616   4.968   1.580   2.991
  458WAT     H2 1617   4.941   1.443   3.075
  459WAT      O 1618   6.030   0.649   7.879
  459WAT     H1 1619   6.053   0.709   7.802
  459WAT     H2 1620   6.085   0.674   7.958
  460WAT      O 1621   4.917   7.966   5.575
  460WAT     H1 1622   4.846   8.032   5.552
  460WAT     H2 1623   4.889   7.913   5.655
  461WAT      O 1624   1.975   1.016   8.004
  461WAT     H1 1625   1.914   1.020   7.925
  461WAT     H2 1626   1.965   1.098   8.059
  462WAT      O 1627   7.934   0.722   8.681
  462WAT     H1 1628   7.998   0.649   8.705
  462WAT     H2 1629   7.904   0.710   8.586
  463WAT      O 1630   3.413   7.844   4.952
  463WAT     H1 1631   3.406   7.776   4.879
  463WAT     H2 1632   3.399   7.936   4.914
  464WAT      O 1633   1.357   4.509   9.279
  464WAT     H1 1634   1.432   4.572   9.299
  464WAT     H2 1635   1.353   4.438   9.350
  465WAT      O 1636   8.495   0.811   3.564
  465WAT     H1 1637   8.457   0.747   3.630
  465WAT     H2 1638   8.503   0.766   3.475
  466WAT      O 1639   7.474   9.265   9.519
  466WAT     H1 1640   7.487   9.324   9.439
  466WAT     H2 1641   7.543   9.193   9.518
  467WAT      O 1642   6.352   9.591   1.735
  467WAT     H1 1643   6.415   9.558   1.804
  467WAT     H2 1644   6.400   9.652   1.672
  468WAT      O 1645   2.940   3.180   5.224
  468WAT     H1 1646   2.960   3.278   5.231
  468WAT     H2 1647   2.921   3.143   5.315
  469WAT      O 1648   3.517   7.828   7.552
  469WAT     H1 1649   3.457   7.825   7.632
  469WAT     H2 1650   3.482   7.895   7.486
  470WAT      O 1651   5.074   8.277   5.005
  470WAT     H1 1652   5.058   8.371   5.037
  470WAT     H2 1653   5.171   8.266   4.984
  471WAT      O 1654   1.365   6.624   3.424
  471WAT     H1 1655   1.293   6.638   3.492
  471WAT     H2 1656   1.374   6.527   3.404
  472WAT      O 1657   1.818   5.627   1.302
  472WAT     H1 1658   1.790   5.591   1.213
  472WAT     H2 1659   1.741   5.622   1.365
  473WAT      O 1660   4.806   4.149   3.827
  473WAT     H1 1661   4.743   4.209   3.875
  473WAT     H2 1662   4.765   4.058   3.818
  474WAT      O 1663   2.464   6.220   7.863
  474WAT     H1 1664   2.559   6.251   7.872
  474WAT     H2 1665   2.425   6.206   7.954
  475WAT      O 1666   1.522   6.268   3.239
  475WAT     H1 1667   1.550   6.175   3.215
  475WAT     H2 1668   1.557   6.291   3.330
  476WAT      O 1669   7.075   3.437   0.636
  476WAT     H1 1670   7.087   3.392   0.725
  476WAT     H2 1671   7.066   3.535   0.650
  477WAT      O 1672   7.324   2.100   2.917
  477WAT     H1 1673   7.239   2.103   2.970
  477WAT     H2 1674   7.344   2.006   2.890
  478WAT      O 1675   7.068   0.066   0.923
  478WAT     H1 1676   7.051   0.033   0.830
  478WAT     H2 1677   7.031   0.000   0.989
  479WAT      O 1678   7.930   3.211   0.739
  479WAT     H1 1679   8.026   3.186   0.730
  479WAT     H2 1680   7.895   3.178   0.826
  480WAT      O 1681   7.586   0.730   9.724
  480WAT     H1 1682   7.675   0.750   9.765
  480WAT     H2 1683   7.565   0.801   9.656
  481WAT      O 1684   6.462   6.229   0.392
  481WAT     H1 1685   6.421   6.318   0.371
  481WAT     H2 1686   6.560   6.241   0.410
  482WAT      O 1687   3.971   5.143   1.957
  482WAT     H1 1688   3.902   5.205   1.921
  482WAT     H2 1689   3.951   5.050   1.926
  483WAT      O 1690   2.712   4.512   4.561
  483WAT     H1 1691   2.662   4.554   4.485
  483WAT     H2 1692   2.672   4.422   4.581
  484WAT      O 1693   3.883   7.776   4.142
  484WAT     H1 1694   3.912   7.680   4.143
  484WAT     H2 1695   3.962   7.834   4.121
  485WAT      O 1696   9.300   2.251   5.473
  485WAT     H1 1697   9.337   2.299   5.552
  485WAT     H2 1698   9.248   2.315   5.416
  486WAT      O 1699   4.243   1.101   1.566
  486WAT     H1 1700   4.186   1.164   1.617
  486WAT     H2 1701   4.331   1.089   1.613
  487WAT      O 1702   4.528   6.372   0.273
  487WAT     H1 1703   4.447   6.368   0.330
  487WAT     H2 1704   4.580   6.455   0.294
  488WAT      O 1705   5.059   3.635   7.338
  488WAT     H1 1706   4.999   3.556   7.329
  488WAT     H2 1707   5.046   3.676   7.429
  489WAT      O 1708   1.187   8.540   1.439
  489WAT     H1 1709   1.176   8.610   1.509
  489WAT     H2 1710   1.214   8.454   1.482
  490WAT      O 1711   8.196   7.193   1.516
  490WAT     H1 1712   8.288   7.227   1.535
  490WAT     H2 1713   8.188   7.099   1.548
  491WAT      O 1714   6.345   4.479   3.961
  491WAT     H1 1715   6.435   4.488   3.918
  491WAT     H2 1716   6.293   4.409   3.913
  492WAT      O 1717   3.592   1.378   7.006
  492WAT     H1 1718   3.601   1.285   7.041
  492WAT     H2 1719   3.501   1.391   6.968
  493WAT      O 1720   2.894   0.071   8.364
  493WAT     H1 1721   2.822   0.061   8.433
  493WAT     H2 1722   2.853   0.064   8.273
  494WAT      O 1723   8.284   1.020   3.336
  494WAT     H1 1724   8.214   1.021   3.408
  494WAT     H2 1725   8.370   0.989   3.375
  495WAT      O 1726   7.591   5.275   8.086
  495WAT     H1 1727   7.525   5.214   8.130
  495WAT     H2 1728   7.682   5.234   8.088
  496WAT      O 1729   9.551   9.287   3.470
  496WAT     H1 1730   9.585   9.319   3.558
  496WAT     H2 1731   9.608   9.212   3.437
  497WAT      O 1732   6.169   1.313   6.766
  497WAT     H1 1733   6.090   1.320   6.705
  497WAT     H2 1734   6.144   1.259   6.846
  498WAT      O 1735   1.589   2.535   2.697
  498WAT     H1 1736   1.540   2.614   2.661
  498WAT     H2 1737   1.570   2.455   2.639
  499WAT      O 1738   1.792   4.378   4.325
  499WAT     H1 1739   1.741   4.347   4.406
  499WAT     H2 1740   1.881   4.333   4.323
  500WAT      O 1741   9.710   8.992   6.279
  500WAT     H1 1742   9.654   9.038   6.349
  500WAT     H2 1743   9.721   8.896   6.302
  501WAT      O 1744   4.348   6.139   3.325
  501WAT     H1 1745   4.281   6.198   3.368
  501WAT     H2 1746   4.440   6.166   3.354
  502WAT      O 1747   0.928   1.633   5.550
  502WAT     H1 1748   1.020   1.667   5.534
  502WAT     H2 1749   0.916   1.545   5.504
  503WAT      O 1750   5.049   7.253   8.669
  503WAT     H1 1751   5.059   7.321   8.597
  503WAT     H2 1752   4.991   7.178   8.635
  504WAT      O 1753   1.330   8.659   4.681
  504WAT     H1 1754   1.294   8.664   4.774
  504WAT     H2 1755   1.360   8.750   4.652
  505WAT      O 1756   5.742   8.195   6.217
  505WAT     H1 1757   5.793   8.114   6.187
  505WAT     H2 1758   5.666   8.166   6.275
  506WAT      O 1759   3.087   0.075   5.246
  506WAT     H1 1760   3.065   0.011   5.173
  506WAT     H2 1761   3.007   0.131   5.268
  507WAT      O 1762   5.449   9.597   4.072
  507WAT     H1 1763   5.361   9.645   4.074
  507WAT     H2 1764   5.482   9.586   4.166
  508WAT      O 1765   9.087   5.917   8.159
  508WAT     H1 1766   9.016   5.864   8.112
  508WAT     H2 1767   9.175   5.900   8.116
  509WAT      O 1768   1.637   0.347   8.133
  509WAT     H1 1769   1.610   0.381   8.222
  509WAT     H2 1770   1.560   0.299   8.091
  510WAT      O 1771   6.036   2.293   6.397
  510WAT     H1 1772   6.059   2.197   6.414
  510WAT     H2 1773   6.027   2.308   6.299
  511WAT      O 1774   2.037   1.177   2.529
  511WAT     H1 1775   2.064   1.113   2.457
  511WAT     H2 1776   2.070   1.268   2.507
  512WAT      O 1777   8.595   5.172   0.468
  512WAT     H1 1778   8.507   5.125   0.466
  512WAT     H2 1779   8.642   5.152   0.554
  513WAT      O 1780   3.634   8.684   2.732
  513WAT     H1 1781   3.570   8.760   2.740
  513WAT     H2 1782   3.728   8.718   2.738
  514WAT      O 1783   4.202   6.645   1.805
  514WAT     H1 1784   4.250   6.620   1.889
  514WAT     H2 1785   4.122   6.701   1.828
  515WAT      O 1786   8.743   4.602   1.186
  515WAT     H1 1787   8.694   4.515   1.187
  515WAT     H2 1788   8.840   4.586   1.172
  516WAT      O 1789   3.845   0.248   3.237
  516WAT     H1 1790   3.885   0.325   3.186
  516WAT     H2 1791   3.801   0.282   3.320
  517WAT      O 1792   1.440   4.241   5.404
  517WAT     H1 1793   1.527   4.198   5.380
  517WAT     H2 1794   1.457   4.335   5.434
  518WAT      O 1795   7.784   1.465   0.574
  518WAT     H1 1796   7.712   1.428   0.634
  518WAT     H2 1797   7.843   1.391   0.543
  519WAT      O 1798   3.315   1.022   4.862
  519WAT     H1 1799   3.253   0.953   4.824
  519WAT     H2 1800   3.367   0.983   4.938
  520WAT      O 1801   2.832   6.316   5.740
  520WAT     H1 1802   2.858   6.258   5.817
  520WAT     H2 1803   2.781   6.395   5.773
  521WAT      O 1804   5.757   3.642   0.042
  521WAT     H1 1805   5.796   3.733   0.028
  521WAT     H2 1806   5.658   3.648   0.050
  522WAT      O 1807   4.195   1.436   1.092
  522WAT     H1 1808   4.185   1.374   1.170
  522WAT     H2 1809   4.261   1.507   1.114
  523WAT      O 1810   1.420   9.417   7.095
  523WAT     H1 1811   1.466   9.489   7.148
  523WAT     H2 1812   1.472   9.332   7.101
  524WAT      O 1813   1.224   6.058   3.302
  524WAT     H1 1814   1.257   6.152   3.314
  524WAT     H2 1815   1.137   6.048   3.351
  525WAT      O 1816   7.119   4.441   4.612
  525WAT     H1 1817   7.107   4.409   4.518
  525WAT     H2 1818   7.139   4.363   4.671
  526WAT      O 1819   0.737   2.076   4.919
  526WAT     H1 1820   0.767   2.066   4.824
  526WAT     H2 1821   0.711   1.987   4.955
  527WAT      O 1822   8.337   3.876   9.537
  527WAT     H1 1823   8.360   3.782   9.565
  527WAT     H2 1824   8.282   3.920   9.608
  528WAT      O 1825   2.773   7.267   7.884
  528WAT     H1 1826   2.708   7.217   7.941
  528WAT     H2 1827   2.847   7.207   7.856
  529WAT      O 1828   9.744   5.164   0.828
  529WAT     H1 1829   9.790   5.076   0.842
  529WAT     H2 1830   9.761   5.223   0.907
  530WAT      O 1831   9.126   6.500   7.995
  530WAT     H1 1832   9.194   6.468   7.929
  530WAT     H2 1833   9.131   6.600   8.003
  531WAT      O 1834   7.678   1.401   2.682
  531WAT     H1 1835   7.599   1.364   2.634
  531WAT     H2 1836   7.653   1.488   2.724
  532WAT      O 1837   3.256   6.572   9.154
  532WAT     H1 1838   3.215   6.557   9.244
  532WAT     H2 1839   3.271   6.670   9.140
  533WAT      O 1840   7.934   2.739   0.722
  533WAT     H1 1841   7.969   2.705   0.635
  533WAT     H2 1842   7.916   2.837   0.714
  534WAT      O 1843   9.107   9.074   8.340
  534WAT     H1 1844   9.048   9.042   8.266
  534WAT     H2 1845   9.157   8.997   8.379
  535WAT      O 1846   0.061   4.901   5.089
  535WAT     H1 1847  -0.024   4.853   5.072
  535WAT     H2 1848   0.059   4.991   5.045
  536WAT      O 1849   1.764   1.953   7.447
  536WAT     H1 1850   1.668   1.980   7.452
  536WAT     H2 1851   1.810   1.974   7.533
  537WAT      O 1852   2.979   8.154   5.619
  537WAT     H1 1853   2.898   8.163   5.677
  537WAT     H2 1854   2.965   8.082   5.552
  538WAT      O 1855   6.682   9.761   6.234
  538WAT     H1 1856   6.608   9.821   6.204
  538WAT     H2 1857   6.697   9.774   6.332
  539WAT      O 1858   4.352   6.869   8.794
  539WAT     H1 1859   4.440   6.827   8.815
  539WAT     H2 1860   4.291   6.801   8.755
  540WAT      O 1861   3.670   9.216   3.070
  540WAT     H1 1862   3.647   9.306   3.107
  540WAT     H2 1863   3.587   9.162   3.058
  541WAT      O 1864   0.190   8.282   4.687
  541WAT     H1 1865   0.272   8.227   4.676
  541WAT     H2 1866   0.210   8.363   4.741
  542WAT      O 1867   3.068   6.009   3.037
  542WAT     H1 1868   2.973   5.978   3.027
  542WAT     H2 1869   3.076   6.103   3.002
  543WAT      O 1870   5.133   0.802   7.184
  543WAT     H1 1871   5.195   0.773   7.256
  543WAT     H2 1872   5.039   0.783   7.211
  544WAT      O 1873   6.378   7.873   6.396
  544WAT     H1 1874   6.323   7.954   6.416
  544WAT     H2 1875   6.440   7.892   6.320
  545WAT      O 1876   9.311   8.536   4.079
  545WAT     H1 1877   9.245   8.599   4.120
  545WAT     H2 1878   9.291   8.443   4.110
  546WAT      O 1879   0.159   6.190   5.652
  546WAT     H1 1880   0.142   6.172   5.555
  546WAT     H2 1881   0.246   6.148   5.679
  547WAT      O 1882   8.453   7.509   0.945
  547WAT     H1 1883   8.408   7.552   0.866
  547WAT     H2 1884   8.441   7.410   0.941
  548WAT      O 1885   2.376   3.196   1.113
  548WAT     H1 1886   2.291   3.145   1.126
  548WAT     H2 1887   2.366   3.257   1.034
  549WAT      O 1888   2.914   2.613   3.164
  549WAT     H1 1889   2.909   2.632   3.066
  549WAT     H2 1890   2.981   2.541   3.181
  550WAT      O 1891   8.149   4.575   3.363
  550WAT     H1 1892   8.111   4.483   3.360
  550WAT     H2 1893   8.197   4.589   3.450
  551WAT      O 1894   9.183   9.666   2.118
  551WAT     H1 1895   9.083   9.669   2.113
  551WAT     H2 1896   9.212   9.588   2.174
  552WAT      O 1897   4.790   8.573   2.460
  552WAT     H1 1898   4.885   8.594   2.437
  552WAT     H2 1899   4.733   8.654   2.447
  553WAT      O 1900   3.454   7.306   7.367
  553WAT     H1 1901   3.436   7.373   7.440
  553WAT     H2 1902   3.553   7.289   7.362
  554WAT      O 1903   5.287   4.076   8.971
  554WAT     H1 1904   5.261   4.104   8.878
  554WAT     H2 1905   5.307   3.978   8.972
  555WAT      O 1906   5.138   5.757   8.084
  555WAT     H1 1907   5.107   5.669   8.048
  555WAT     H2 1908   5.220   5.786   8.036
  556WAT      O 1909   1.445   9.368   5.416
  556WAT     H1 1910   1.420   9.277   5.385
  556WAT     H2 1911   1.399   9.388   5.503
  557WAT      O 1912   6.691   3.737   0.946
  557WAT     H1 1913   6.743   3.652   0.946
  557WAT     H2 1914   6.755   3.814   0.950
  558WAT      O 1915   3.835   6.682   0.771
  558WAT     H1 1916   3.737   6.689   0.752
  558WAT     H2 1917   3.882   6.757   0.724
  559WAT      O 1918   0.465   1.330   8.031
  559WAT     H1 1919   0.424   1.401   7.973
  559WAT     H2 1920   0.468   1.244   7.981
  560WAT      O 1921   4.707   2.850   7.726
  560WAT     H1 1922   4.626   2.908   7.714
  560WAT     H2 1923   4.680   2.754   7.718
  561WAT      O 1924   5.831   9.047   3.260
  561WAT     H1 1925   5.828   8.952   3.230
  561WAT     H2 1926   5.923   9.083   3.247
  562WAT      O 1927   7.428   0.138   9.043
  562WAT     H1 1928   7.441   0.227   9.001
  562WAT     H2 1929   7.446   0.144   9.141
  563WAT      O 1930   4.086   3.127   0.212
  563WAT     H1 1931   3.986   3.126   0.207
  563WAT     H2 1932   4.119   3.039   0.247
  564WAT      O 1933   1.202   3.493   8.276
  564WAT     H1 1934   1.137   3.546   8.222
  564WAT     H2 1935   1.153   3.424   8.330
  565WAT      O 1936   0.299   7.857   6.795
  565WAT     H1 1937   0.254   7.768   6.793
  565WAT     H2 1938   0.232   7.929   6.777
  566WAT      O 1939   1.937   5.608   6.395
  566WAT     H1 1940   1.878   5.561   6.461
  566WAT     H2 1941   1.893   5.693   6.365
  567WAT      O 1942   8.487   7.131   6.478
  567WAT     H1 1943   8.542   7.213   6.487
  567WAT     H2 1944   8.391   7.152   6.497
  568WAT      O 1945   1.596   7.475   1.334
  568WAT     H1 1946   1.610   7.390   1.386
  568WAT     H2 1947   1.644   7.550   1.379
  569WAT      O 1948   7.188   6.883   4.293
  569WAT     H1 1949   7.260   6.941   4.330
  569WAT     H2 1950   7.121   6.940   4.245
  570WAT      O 1951   9.760   2.053   6.435
  570WAT     H1 1952   9.703   2.100   6.503
  570WAT     H2 1953   9.702   2.018   6.362
  571WAT      O 1954   3.482   1.213   3.022
  571WAT     H1 1955   3.517   1.194   3.113
  571WAT     H2 1956   3.558   1.234   2.960
  572WAT      O 1957   3.294   6.756   2.921
  572WAT     H1 1958   3.265   6.673   2.969
  572WAT     H2 1959   3.278   6.745   2.823
  573WAT      O 1960   9.776   9.069   1.940
  573WAT     H1 1961   9.705   9.005   1.912
  573WAT     H2 1962   9.778   9.147   1.879
  574WAT      O 1963   4.777   2.224   5.212
  574WAT     H1 1964   4.833   2.192   5.135
  574WAT     H2 1965   4.755   2.147   5.272
  575WAT      O 1966   8.503   3.867   1.368
  575WAT     H1 1967   8.549   3.818   1.442
  575WAT     H2 1968   8.410   3.830   1.356
  576WAT      O 1969   7.091   4.851   6.671
  576WAT     H1 1970   7.183   4.818   6.650
  576WAT     H2 1971   7.024   4.804   6.614
  577WAT      O 1972   5.589   7.020   8.164
  577WAT     H1 1973   5.622   7.114   8.173
  577WAT     H2 1974   5.623   6.981   8.078
  578WAT      O 1975   8.540   9.355   1.131
  578WAT     H1 1976   8.457   9.404   1.104
  578WAT     H2 1977   8.527   9.317   1.223
  579WAT      O 1978   8.808   7.351   0.210
  579WAT     H1 1979   8.755   7.291   0.270
  579WAT     H2 1980   8.896   7.372   0.252
  580WAT      O 1981   6.691   6.642   4.793
  580WAT     H1 1982   6.604   6.652   4.841
  580WAT     H2 1983   6.758   6.601   4.855
  581WAT      O 1984   4.913   8.972   1.875
  581WAT     H1 1985   4.922   8.952   1.777
  581WAT     H2 1986   4.994   9.020   1.907
  582WAT      O 1987   2.184   6.815   0.290
  582WAT     H1 1988   2.221   6.831   0.198
  582WAT     H2 1989   2.257   6.781   0.349
  583WAT      O 1990   8.789   5.094   0.696
  583WAT     H1 1991   8.798   5.169   0.762
  583WAT     H2 1992   8.862   5.028   0.710
  584WAT      O 1993   3.318   0.692   1.816
  584WAT     H1 1994   3.407   0.721   1.849
  584WAT     H2 1995   3.317   0.593   1.804
  585WAT      O 1996   7.378   2.201   5.337
  585WAT     H1 1997   7.431   2.121   5.368
  585WAT     H2 1998   7.282   2.175   5.330
  586WAT      O 1999   4.391   4.591   5.995
  586WAT     H1 2000   4.421   4.500   5.965
  586WAT     H2 2001   4.307   4.582   6.049
  587WAT      O 2002   8.881   8.691   2.545
  587WAT     H1 2003   8.950   8.683   2.617
  587WAT     H2 2004   8.923   8.668   2.457
  588WAT      O 2005   5.548   6.164   5.999
  588WAT     H1 2006   5.613   6.240   5.994
  588WAT     H2 2007   5.588   6.083   5.956
  589WAT      O 2008   0.303   7.328   4.721
  589WAT     H1 2009   0.399   7.346   4.742
  589WAT     H2 2010   0.256   7.414   4.702
  590WAT      O 2011   5.692   3.697   5.315
  590WAT     H1 2012   5.705   3.620   5.377
  590WAT     H2 2013   5.701   3.783   5.366
  591WAT      O 2014   4.441   9.006   3.791
  591WAT     H1 2015   4.507   9.010   3.866
  591WAT     H2 2016   4.470   9.067   3.717
  592WAT      O 2017   9.676   8.822   7.685
  592WAT     H1 2018   9.756   8.882   7.688
  592WAT     H2 2019   9.594   8.876   7.664
  593WAT      O 2020   9.460   9.206   0.342
  593WAT     H1 2021   9.512   9.259   0.409
  593WAT     H2 2022   9.364   9.233   0.345
  594WAT      O 2023   9.807   5.177   8.540
  594WAT     H1 2024   9.897   5.135   8.535
  594WAT     H2 2025   9.814   5.262   8.592
  595WAT      O 2026   7.970   3.448   5.047
  595WAT     H1 2027   7.943   3.499   4.965
  595WAT     H2 2028   7.990   3.353   5.021
  596WAT      O 2029   6.742   0.808   8.649
  596WAT     H1 2030   6.774   0.731   8.704
  596WAT     H2 2031   6.738   0.781   8.553
  597WAT      O 2032   4.658   5.153   7.385
  597WAT     H1 2033   4.574   5.099   7.373
  597WAT     H2 2034   4.641   5.247   7.354
  598WAT      O 2035   3.028   2.555   2.881
  598WAT     H1 2036   3.104   2.620   2.872
  598WAT     H2 2037   3.018   2.505   2.795
  599WAT      O 2038   3.116   0.655   4.495
  599WAT     H1 2039   3.043   0.648   4.427
  599WAT     H2 2040   3.092   0.601   4.576
  600WAT      O 2041   2.518   4.005   7.929
  600WAT     H1 2042   2.494   3.973   7.837
  600WAT     H2 2043   2.548   4.100   7.924
  601WAT      O 2044   0.490   1.322   5.954
  601WAT     H1 2045   0.479   1.303   6.052
  601WAT     H2 2046   0.429   1.396   5.928
  602WAT      O 2047   3.027   5.945   5.662
  602WAT     H1 2048   2.933   5.922   5.640
  602WAT     H2 2049   3.078   5.963   5.577
  603WAT      O 2050   4.354   2.708   1.388
  603WAT     H1 2051   4.409   2.787   1.364
  603WAT     H2 2052   4.406   2.650   1.452
  604WAT      O 2053   2.533   1.250   7.602
  604WAT     H1 2054   2.632   1.252   7.612
  604WAT     H2 2055   2.510   1.250   7.504
  605WAT      O 2056   7.774   2.032   5.197
  605WAT     H1 2057   7.874   2.026   5.188
  605WAT     H2 2058   7.750   2.100   5.266
  606WAT      O 2059   1.502   0.382   7.060
  606WAT     H1 2060   1.504   0.478   7.087
  606WAT     H2 2061   1.443   0.371   6.979
  607WAT      O 2062   3.914   4.668   4.698
  607WAT     H1 2063   3.948   4.699   4.609
  607WAT     H2 2064   3.883   4.573   4.691
  608WAT      O 2065   9.528   6.274   7.569
  608WAT     H1 2066   9.550   6.177   7.577
  608WAT     H2 2067   9.497   6.309   7.657
  609WAT      O 2068   9.475   9.653   8.052
  609WAT     H1 2069   9.503   9.682   7.961
  609WAT     H2 2070   9.524   9.707   8.120
  610WAT      O 2071   0.266   3.674   5.780
  610WAT     H1 2072   0.229   3.614   5.709
  610WAT     H2 2073   0.366   3.662   5.784
  611WAT      O 2074   6.497   4.254   2.471
  611WAT     H1 2075   6.441   4.172   2.485
  611WAT     H2 2076   6.591   4.236   2.497
  612WAT      O 2077   7.189   1.398   2.394
  612WAT     H1 2078   7.103   1.419   2.440
  612WAT     H2 2079   7.227   1.482   2.354
  613WAT      O 2080   9.064   2.028   9.245
  613WAT     H1 2081   9.144   2.070   9.288
  613WAT     H2 2082   9.057   2.060   9.151
  614WAT      O 2083   6.478   3.534   6.393
  614WAT     H1 2084   6.549   3.521   6.463
  614WAT     H2 2085   6.434   3.447   6.373
  615WAT      O 2086   1.175   0.679   0.974
  615WAT     H1 2087   1.211   0.721   1.057
  615WAT     H2 2088   1.249   0.674   0.906
  616WAT      O 2089   0.678   9.113   6.982
  616WAT     H1 2090   0.678   9.140   7.078
  616WAT     H2 2091   0.669   9.014   6.975
  617WAT      O 2092   1.310   6.990   0.648
  617WAT     H1 2093   1.322   7.062   0.580
  617WAT     H2 2094   1.263   6.912   0.606
  618WAT      O 2095   7.286   6.257   9.646
  618WAT     H1 2096   7.203   6.219   9.603
  618WAT     H2 2097   7.341   6.302   9.575
  619WAT      O 2098   0.607   0.312   6.899
  619WAT     H1 2099   0.554   0.244   6.949
  619WAT     H2 2100   0.619   0.282   6.804
  620WAT      O 2101   2.432   0.428   9.603
  620WAT     H1 2102   2.369   0.501   9.575
  620WAT     H2 2103   2.477   0.454   9.688
  621WAT      O 2104   7.337   6.053   9.409
  621WAT     H1 2105   7.418   6.005   9.374
  621WAT     H2 2106   7.264   5.987   9.425
  622WAT      O 2107   3.264   0.368   6.041
  622WAT     H1 2108   3.250   0.273   6.014
  622WAT     H2 2109   3.355   0.378   6.081
  623WAT      O 2110   8.353   9.012   8.016
  623WAT     H1 2111   8.452   9.000   8.013
  623WAT     H2 2112   8.316   9.008   7.923
  624WAT      O 2113   3.348   7.368   1.605
  624WAT     H1 2114   3.379   7.455   1.568
  624WAT     H2 2115   3.387   7.354   1.696
  625WAT      O 2116   2.516   6.840   7.370
  625WAT     H1 2117   2.551   6.922   7.326
  625WAT     H2 2118   2.424   6.820   7.335
  626WAT      O 2119   6.761   5.669   0.529
  626WAT     H1 2120   6.662   5.677   0.541
  626WAT     H2 2121   6.781   5.631   0.439
  627WAT      O 2122   1.282   7.040   9.829
  627WAT     H1 2123   1.352   7.111   9.844
  627WAT     H2 2124   1.241   7.052   9.739
  628WAT      O 2125   3.848   8.400   4.492
  628WAT     H1 2126   3.853   8.456   4.575
  628WAT     H2 2127   3.878   8.307   4.513
  629WAT      O 2128   7.794   0.239   7.887
  629WAT     H1 2129   7.810   0.308   7.957
  629WAT     H2 2130   7.881   0.209   7.848
  630WAT      O 2131   6.053   5.075   5.495
  630WAT     H1 2132   6.042   5.015   5.416
  630WAT     H2 2133   6.012   5.033   5.575
  631WAT      O 2134   0.120   0.188   3.836
  631WAT     H1 2135   0.127   0.278   3.792
  631WAT     H2 2136   0.074   0.196   3.924
  632WAT      O 2137   4.347   1.939   6.072
  632WAT     H1 2138   4.366   1.977   5.981
  632WAT     H2 2139   4.255   1.967   6.101
  633WAT      O 2140   0.397   9.766   3.650
  633WAT     H1 2141   0.482   9.715   3.634
  633WAT     H2 2142   0.325   9.704   3.679
  634WAT      O 2143   8.845   7.193   6.995
  634WAT     H1 2144   8.801   7.109   6.966
  634WAT     H2 2145   8.891   7.178   7.083
  635WAT      O 2146   2.128   6.952   8.709
  635WAT     H1 2147   2.168   7.033   8.667
  635WAT     H2 2148   2.144   6.954   8.808
  636WAT      O 2149   1.387   3.005   9.529
  636WAT     H1 2150   1.332   3.080   9.491
  636WAT     H2 2151   1.421   3.031   9.619
  637WAT      O 2152   6.314   0.456   1.533
  637WAT     H1 2153   6.330   0.554   1.522
  637WAT     H2 2154   6.397   0.405   1.510
  638WAT      O 2155   1.171   4.427   1.506
  638WAT     H1 2156   1.206   4.379   1.425
  638WAT     H2 2157   1.089   4.478   1.481
  639WAT      O 2158   2.132   3.386   5.550
  639WAT     H1 2159   2.209   3.334   5.587
  639WAT     H2 2160   2.071   3.324   5.501
  640WAT      O 2161   4.158   7.351   2.018
  640WAT     H1 2162   4.128   7.262   2.053
  640WAT     H2 2163   4.205   7.338   1.930
  641WAT      O 2164   3.132   7.222   8.426
  641WAT     H1 2165   3.201   7.245   8.495
  641WAT     H2 2166   3.100   7.128   8.441
  642WAT      O 2167   5.289   0.799   6.924
  642WAT     H1 2168   5.218   0.844   6.870
  642WAT     H2 2169   5.268   0.810   7.021
  643WAT      O 2170   2.909   1.819   7.493
  643WAT     H1 2171   2.924   1.885   7.419
  643WAT     H2 2172   2.965   1.843   7.572
  644WAT      O 2173   5.479   3.408   2.063
  644WAT     H1 2174   5.421   3.407   1.982
  644WAT     H2 2175   5.461   3.490   2.117
  645WAT      O 2176   6.342   0.683   3.185
  645WAT     H1 2177   6.342   0.597   3.236
  645WAT     H2 2178   6.252   0.698   3.144
  646WAT      O 2179   4.773   6.342   6.540
  646WAT     H1 2180   4.674   6.330   6.554
  646WAT     H2 2181   4.797   6.438   6.553
  647WAT      O 2182   9.285   1.486   3.388
  647WAT     H1 2183   9.364   1.544   3.404
  647WAT     H2 2184   9.206   1.523   3.437
  648WAT      O 2185   8.517   1.309   7.754
  648WAT     H1 2186   8.615   1.297   7.739
  648WAT     H2 2187   8.499   1.307   7.853
  649WAT      O 2188   9.108   2.912   3.052
  649WAT     H1 2189   9.184   2.973   3.031
  649WAT     H2 2190   9.030   2.965   3.085
  650WAT      O 2191   0.700   0.424   8.178
  650WAT     H1 2192   0.708   0.405   8.080
  650WAT     H2 2193   0.684   0.339   8.227
  651WAT      O 2194   3.752   4.916   9.365
  651WAT     H1 2195   3.764   5.014   9.351
  651WAT     H2 2196   3.671   4.885   9.315
  652WAT      O 2197   4.952   3.055   6.101
  652WAT     H1 2198   5.032   3.006   6.067
  652WAT     H2 2199   4.898   2.994   6.159
  653WAT      O 2200   4.998   0.084   3.323
  653WAT     H1 2201   5.007  -0.002   3.374
  653WAT     H2 2202   5.061   0.083   3.245
  654WAT      O 2203   5.341   4.745   7.582
  654WAT     H1 2204   5.271   4.744   7.510
  654WAT     H2 2205   5.346   4.836   7.623
  655WAT      O 2206   4.243   4.157   3.474
  655WAT     H1 2207   4.332   4.170   3.518
  655WAT     H2 2208   4.227   4.059   3.460
  656WAT      O 2209   3.111   9.441   6.050
  656WAT     H1 2210   3.080   9.365   6.108
  656WAT     H2 2211   3.033   9.500   6.028
  657WAT      O 2212   7.886   6.279   9.151
  657WAT     H1 2213   7.972   6.228   9.148
  657WAT     H2 2214   7.888   6.343   9.228
  658WAT      O 2215   5.063   2.993   0.061
  658WAT     H1 2216   4.992   2.962   0.124
  658WAT     H2 2217   5.105   3.077   0.096
  659WAT      O 2218   4.856   0.385   4.574
  659WAT     H1 2219   4.826   0.291   4.559
  659WAT     H2 2220   4.778   0.447   4.568
  660WAT      O 2221   8.875   7.005   1.495
  660WAT     H1 2222   8.951   6.946   1.470
  660WAT     H2 2223   8.910   7.093   1.526
  661WAT      O 2224   0.906   7.070   3.397
  661WAT     H1 2225   0.807   7.059   3.402
  661WAT     H2 2226   0.932   7.095   3.303
  662WAT      O 2227   8.663   1.143   3.347
  662WAT     H1 2228   8.746   1.092   3.369
  662WAT     H2 2229   8.596   1.130   3.420
  663WAT      O 2230   1.491   0.678   5.476
  663WAT     H1 2231   1.520   0.744   5.407
  663WAT     H2 2232   1.538   0.697   5.562
  664WAT      O 2233   4.070   8.823   6.620
  664WAT     H1 2234   4.124   8.833   6.704
  664WAT     H2 2235   4.104   8.887   6.551
  665WAT      O 2236   0.574   8.574   7.437
  665WAT     H1 2237   0.604   8.668   7.454
  665WAT     H2 2238   0.537   8.567   7.344
  666WAT      O 2239   8.086   6.816   5.387
  666WAT     H1 2240   7.991   6.795   5.362
  666WAT     H2 2241   8.118   6.748   5.453
  667WAT      O 2242   5.682   9.651   5.466
  667WAT     H1 2243   5.753   9.717   5.492
  667WAT     H2 2244   5.724   9.562   5.449
  668WAT      O 2245   4.059   8.307   8.012
  668WAT     H1 2246   4.004   8.224   8.013
  668WAT     H2 2247   4.047   8.356   8.098
  669WAT      O 2248   4.749   9.212   1.851
  669WAT     H1 2249   4.758   9.227   1.950
  669WAT     H2 2250   4.778   9.118   1.830
  670WAT      O 2251   2.607   4.658   4.365
  670WAT     H1 2252   2.532   4.706   4.411
  670WAT     H2 2253   2.660   4.724   4.311
  671WAT      O 2254   0.152   5.064   4.700
  671WAT     H1 2255   0.210   5.059   4.782
  671WAT     H2 2256   0.090   5.143   4.708
  672WAT      O 2257   3.407   3.559   3.931
  672WAT     H1 2258   3.444   3.643   3.890
  672WAT     H2 2259   3.390   3.573   4.028
  673WAT      O 2260   5.679   2.598   1.277
  673WAT     H1 2261   5.763   2.651   1.289
  673WAT     H2 2262   5.600   2.658   1.290
  674WAT      O 2263   8.784   6.587   8.286
  674WAT     H1 2264   8.737   6.613   8.370
  674WAT     H2 2265   8.720   6.539   8.225
  675WAT      O 2266   3.822   7.066   1.433
  675WAT     H1 2267   3.886   7.140   1.449
  675WAT     H2 2268   3.793   7.027   1.520
  676WAT      O 2269   6.048   9.817   4.564
  676WAT     H1 2270   6.044   9.917   4.569
  676WAT     H2 2271   5.980   9.777   4.625
  677WAT      O 2272   9.664   3.686   8.558
  677WAT     H1 2273   9.677   3.783   8.576
  677WAT     H2 2274   9.741   3.652   8.503
  678WAT      O 2275   1.000   2.910   6.019
  678WAT     H1 2276   0.959   2.958   5.942
  678WAT     H2 2277   1.099   2.925   6.018
  679WAT      O 2278   6.353   4.849   3.760
  679WAT     H1 2279   6.386   4.938   3.729
  679WAT     H2 2280   6.269   4.826   3.711
  680WAT      O 2281   5.744   8.417   9.688
  680WAT     H1 2282   5.790   8.347   9.634
  680WAT     H2 2283   5.654   8.383   9.717
  681WAT      O 2284   1.458   6.128   0.188
  681WAT     H1 2285   1.371   6.175   0.198
  681WAT     H2 2286   1.501   6.118   0.278
  682WAT      O 2287   1.430   2.009   2.791
  682WAT     H1 2288   1.378   2.037   2.710
  682WAT     H2 2289   1.443   1.910   2.789
  683WAT      O 2290   4.905   0.109   6.958
  683WAT     H1 2291   4.856   0.180   7.008
  683WAT     H2 2292   4.853   0.084   6.876
  684WAT      O 2293   6.640   5.244   5.511
  684WAT     H1 2294   6.723   5.190   5.526
  684WAT     H2 2295   6.596   5.215   5.426
  685WAT      O 2296   9.549   7.886   6.769
  685WAT     H1 2297   9.513   7.793   6.760
  685WAT     H2 2298   9.583   7.899   6.862
  686WAT      O 2299   9.285   3.380   7.797
  686WAT     H1 2300   9.281   3.459   7.858
  686WAT     H2 2301   9.379   3.367   7.765
  687WAT      O 2302   8.924   4.824   3.930
  687WAT     H1 2303   8.862   4.821   4.008
  687WAT     H2 2304   8.882   4.778   3.851
  688WAT      O 2305   7.456   6.050   8.389
  688WAT     H1 2306   7.440   6.019   8.295
  688WAT     H2 2307   7.369   6.063   8.435
  689WAT      O 2308   6.004   3.591   0.743
  689WAT     H1 2309   5.999   3.544   0.831
  689WAT     H2 2310   6.011   3.690   0.758
  690WAT      O 2311   0.436   3.940   2.751
  690WAT     H1 2312   0.521   3.919   2.703
  690WAT     H2 2313   0.451   4.017   2.813
  691WAT      O 2314   0.857   9.259   8.288
  691WAT     H1 2315   0.829   9.304   8.373
  691WAT     H2 2316   0.810   9.301   8.211
  692WAT      O 2317   6.515   5.179   9.699
  692WAT     H1 2318   6.516   5.278   9.687
  692WAT     H2 2319   6.599   5.140   9.661
  693WAT      O 2320   8.028   9.744   0.176
  693WAT     H1 2321   7.986   9.823   0.131
  693WAT     H2 2322   7.959   9.697   0.231
  694WAT      O 2323   0.406   1.971   8.110
  694WAT     H1 2324   0.472   1.978   8.036
  694WAT     H2 2325   0.321   2.016   8.084
  695WAT      O 2326   6.114   9.654   6.611
  695WAT     H1 2327   6.097   9.705   6.526
  695WAT     H2 2328   6.180   9.705   6.667
  696WAT      O 2329   0.826   8.331   7.858
  696WAT     H1 2330   0.853   8.240   7.825
  696WAT     H2 2331   0.775   8.378   7.786
  697WAT      O 2332   5.888   9.592   3.136
  697WAT     H1 2333   5.909   9.546   3.050
  697WAT     H2 2334   5.790   9.605   3.144
  698WAT      O 2335   1.965   1.731   4.537
  698WAT     H1 2336   1.901   1.657   4.515
  698WAT     H2 2337   2.038   1.695   4.596
  699WAT      O 2338   4.696   2.949   0.011
  699WAT     H1 2339   4.779   2.944   0.066
  699WAT     H2 2340   4.719   2.937  -0.086
  700WAT      O 2341   2.323   0.933   8.943
  700WAT     H1 2342   2.367   0.913   8.856
  700WAT     H2 2343   2.349   0.865   9.011
  701WAT      O 2344   6.523   0.182   7.071
  701WAT     H1 2345   6.538   0.122   6.992
  701WAT     H2 2346   6.438   0.156   7.116
  702WAT      O 2347   4.967   7.357   2.671
  702WAT     H1 2348   5.013   7.382   2.586
  702WAT     H2 2349   4.926   7.438   2.712
  703WAT      O 2350   9.711   7.936   7.809
  703WAT     H1 2351   9.755   7.857   7.766
  703WAT     H2 2352   9.763   7.964   7.889
  704WAT      O 2353   6.187   0.384   7.805
  704WAT     H1 2354   6.146   0.338   7.726
  704WAT     H2 2355   6.134   0.466   7.827
  705WAT      O 2356   4.920   0.400   5.624
  705WAT     H1 2357   4.888   0.316   5.670
  705WAT     H2 2358   4.912   0.388   5.525
  706WAT      O 2359   7.423   1.880   5.981
  706WAT     H1 2360   7.520   1.906   5.977
  706WAT     H2 2361   7.393   1.882   6.076
  707WAT      O 2362   6.610   7.789   5.283
  707WAT     H1 2363   6.551   7.730   5.228
  707WAT     H2 2364   6.705   7.760   5.273
  708WAT      O 2365   1.152   8.863   3.559
  708WAT     H1 2366   1.096   8.883   3.639
  708WAT     H2 2367   1.248   8.854   3.587
  709WAT      O 2368   8.395   8.107   9.732
  709WAT     H1 2369   8.491   8.110   9.704
  709WAT     H2 2370   8.373   8.015   9.767
  710WAT      O 2371   3.194   0.288   2.944
  710WAT     H1 2372   3.238   0.213   2.993
  710WAT     H2 2373   3.263   0.338   2.892
  711WAT      O 2374   2.810   3.580   9.389
  711WAT     H1 2375   2.731   3.640   9.373
  711WAT     H2 2376   2.780   3.498   9.436
  712WAT      O 2377   8.785   4.403   2.022
  712WAT     H1 2378   8.774   4.311   1.984
  712WAT     H2 2379   8.709   4.460   1.992
  713WAT      O 2380   2.931   7.741   5.654
  713WAT     H1 2381   2.896   7.816   5.598
  713WAT     H2 2382   2.878   7.659   5.636
  714WAT      O 2383   3.242   3.469   1.942
  714WAT     H1 2384   3.157   3.426   1.975
  714WAT     H2 2385   3.291   3.405   1.884
  715WAT      O 2386   4.112   2.868   6.447
  715WAT     H1 2387   4.113   2.966   6.463
  715WAT     H2 2388   4.140   2.820   6.530
  716WAT      O 2389   7.885   1.761   2.708
  716WAT     H1 2390   7.815   1.818   2.665
  716WAT     H2 2391   7.846   1.713   2.786
  717WAT      O 2392   0.006   3.882   2.502
  717WAT     H1 2393   0.104   3.905   2.506
  717WAT     H2 2394  -0.026   3.895   2.408
  718WAT      O 2395   0.049   0.109   4.507
  718WAT     H1 2396   0.042   0.206   4.484
  718WAT     H2 2397   0.021   0.095   4.602
  719WAT      O 2398   8.422   0.429   8.798
  719WAT     H1 2399   8.378   0.357   8.851
  719WAT     H2 2400   8.428   0.512   8.854
  720WAT      O 2401   6.662   2.447   0.407
  720WAT     H1 2402   6.629   2.541   0.392
  720WAT     H2 2403   6.686   2.437   0.504
  721WAT      O 2404   0.921   7.477   7.763
  721WAT     H1 2405   1.000   7.485   7.825
  721WAT     H2 2406   0.838   7.464   7.816
  722WAT      O 2407   6.739   7.381   2.937
  722WAT     H1 2408   6.833   7.372   2.905
  722WAT     H2 2409   6.719   7.476   2.960
  723WAT      O 2410   3.765   6.838   3.645
  723WAT     H1 2411   3.722   6.911   3.698
  723WAT     H2 2412   3.862   6.832   3.669
  724WAT      O 2413   9.868   2.636   8.626
  724WAT     H1 2414   9.920   2.566   8.577
  724WAT     H2 2415   9.932   2.703   8.665
  725WAT      O 2416   6.110   5.225   1.001
  725WAT     H1 2417   6.203   5.242   0.968
  725WAT     H2 2418   6.097   5.269   1.090
  726WAT      O 2419   2.172   0.751   4.009
  726WAT     H1 2420   2.215   0.690   3.943
  726WAT     H2 2421   2.123   0.823   3.961
  727WAT      O 2422   4.278   2.149   3.813
  727WAT     H1 2423   4.258   2.189   3.723
  727WAT     H2 2424   4.237   2.058   3.819
  728WAT      O 2425   6.711   3.302   6.071
  728WAT     H1 2426   6.731   3.215   6.027
  728WAT     H2 2427   6.629   3.343   6.029
  729WAT      O 2428   8.035   3.458   0.658
  729WAT     H1 2429   8.131   3.481   0.672
  729WAT     H2 2430   8.019   3.364   0.687
  730WAT      O 2431   0.796   3.614   5.192
  730WAT     H1 2432   0.815   3.712   5.197
  730WAT     H2 2433   0.711   3.599   5.141
  731WAT      O 2434   8.285   5.100   3.823
  731WAT     H1 2435   8.359   5.061   3.878
  731WAT     H2 2436   8.204   5.112   3.880
  732WAT      O 2437   2.549   6.333   8.675
  732WAT     H1 2438   2.487   6.328   8.753
  732WAT     H2 2439   2.563   6.429   8.650
  733WAT      O 2440   1.618   5.169   5.185
  733WAT     H1 2441   1.538   5.110   5.197
  733WAT     H2 2442   1.664   5.146   5.099
  734WAT      O 2443   2.455   5.074   6.737
  734WAT     H1 2444   2.500   5.115   6.816
  734WAT     H2 2445   2.505   5.098   6.654
  735WAT      O 2446   1.383   8.254   7.304
  735WAT     H1 2447   1.327   8.250   7.221
  735WAT     H2 2448   1.416   8.163   7.326
  736WAT      O 2449   3.701   8.775   5.089
  736WAT     H1 2450   3.777   8.744   5.032
  736WAT     H2 2451   3.719   8.753   5.184
  737WAT      O 2452   7.090   0.773   7.168
  737WAT     H1 2453   7.186   0.749   7.153
  737WAT     H2 2454   7.034   0.735   7.094
  738WAT      O 2455   5.035   4.532   7.011
  738WAT     H1 2456   4.982   4.607   6.972
  738WAT     H2 2457   5.055   4.465   6.939
  739WAT      O 2458   2.857   5.550   3.326
  739WAT     H1 2459   2.873   5.534   3.423
  739WAT     H2 2460   2.759   5.557   3.308
  740WAT      O 2461   1.111   1.332   9.762
  740WAT     H1 2462   1.166   1.254   9.734
  740WAT     H2 2463   1.137   1.361   9.854
  741WAT      O 2464   7.994   7.995   2.471
  741WAT     H1 2465   7.961   7.952   2.387
  741WAT     H2 2466   7.928   8.064   2.501
  742WAT      O 2467   8.420   7.131   1.876
  742WAT     H1 2468   8.325   7.135   1.906
  742WAT     H2 2469   8.480   7.161   1.950
  743WAT      O 2470   2.557   4.955   4.114
  743WAT     H1 2471   2.502   5.037   4.127
  743WAT     H2 2472   2.501   4.884   4.071
  744WAT      O 2473   5.752   6.327   9.549
  744WAT     H1 2474   5.764   6.394   9.623
  744WAT     H2 2475   5.758   6.235   9.587
  745WAT      O 2476   2.699   7.675   7.600
  745WAT     H1 2477   2.769   7.609   7.628
  745WAT     H2 2478   2.723   7.714   7.511
  746WAT      O 2479   9.606   5.172   4.803
  746WAT     H1 2480   9.642   5.106   4.737
  746WAT     H2 2481   9.589   5.260   4.757
  747WAT      O 2482   1.060   1.673   0.717
  747WAT     H1 2483   0.967   1.656   0.682
  747WAT     H2 2484   1.092   1.762   0.683
  748WAT      O 2485   1.315   3.665   0.715
  748WAT     H1 2486   1.411   3.648   0.736
  748WAT     H2 2487   1.301   3.660   0.616
  749WAT      O 2488   7.432   4.116   3.193
  749WAT     H1 2489   7.507   4.080   3.137
  749WAT     H2 2490   7.345   4.092   3.151
  750WAT      O 2491   2.651   1.179   1.047
  750WAT     H1 2492   2.652   1.190   1.146
  750WAT     H2 2493   2.694   1.258   1.003
  751WAT      O 2494   6.137   4.231   7.730
  751WAT     H1 2495   6.064   4.246   7.797
  751WAT     H2 2496   6.226   4.240   7.774
  752WAT      O 2497   3.566   0.305   7.314
  752WAT     H1 2498   3.483   0.361   7.313
  752WAT     H2 2499   3.630   0.341   7.382
  753WAT      O 2500   1.367   7.752   3.837
  753WAT     H1 2501   1.444   7.692   3.814
  753WAT     H2 2502   1.355   7.754   3.936
  754WAT      O 2503   1.121   7.169   1.747
  754WAT     H1 2504   1.039   7.224   1.728
  754WAT     H2 2505   1.129   7.154   1.846
  755WAT      O 2506   3.622   6.569   2.938
  755WAT     H1 2507   3.650   6.644   2.998
  755WAT     H2 2508   3.528   6.543   2.958
  756WAT      O 2509   0.995   8.403   7.091
  756WAT     H1 2510   1.075   8.365   7.139
  756WAT     H2 2511   0.934   8.328   7.065
  757WAT      O 2512   9.643   4.584   3.108
  757WAT     H1 2513   9.721   4.522   3.117
  757WAT     H2 2514   9.629   4.605   3.011
  758WAT      O 2515   7.284   1.051   7.070
  758WAT     H1 2516   7.208   1.004   7.116
  758WAT     H2 2517   7.271   1.046   6.971
  759WAT      O 2518   7.266   2.465   8.350
  759WAT     H1 2519   7.356   2.468   8.394
  759WAT     H2 2520   7.212   2.390   8.389
  760WAT      O 2521   4.383   3.261   6.042
  760WAT     H1 2522   4.397   3.268   5.943
  760WAT     H2 2523   4.307   3.320   6.068
  761WAT      O 2524   2.732   9.626   5.702
  761WAT     H1 2525   2.719   9.724   5.718
  761WAT     H2 2526   2.827   9.609   5.676
  762WAT      O 2527   2.581   0.555   7.792
  762WAT     H1 2528   2.496   0.534   7.841
  762WAT     H2 2529   2.562   0.616   7.716
  763WAT      O 2530   1.035   9.820   0.819
  763WAT     H1 2531   1.017   9.917   0.804
  763WAT     H2 2532   0.968   9.766   0.768
  764WAT      O 2533   9.067   5.091   5.279
  764WAT     H1 2534   9.058   4.993   5.301
  764WAT     H2 2535   9.040   5.145   5.359
  765WAT      O 2536   1.139   3.909   3.769
  765WAT     H1 2537   1.048   3.914   3.809
  765WAT     H2 2538   1.188   3.831   3.807
  766WAT      O 2539   3.621   4.771   4.130
  766WAT     H1 2540   3.665   4.861   4.133
  766WAT     H2 2541   3.659   4.718   4.055
  767WAT      O 2542   7.147   8.561   6.342
  767WAT     H1 2543   7.244   8.542   6.356
  767WAT     H2 2544   7.135   8.657   6.320
  768WAT      O 2545   8.541   7.954   0.389
  768WAT     H1 2546   8.588   7.913   0.468
  768WAT     H2 2547   8.607   7.964   0.314
  769WAT      O 2548   7.664   5.305   2.586
  769WAT     H1 2549   7.625   5.397   2.595
  769WAT     H2 2550   7.594   5.236   2.603
  770WAT      O 2551   5.187   0.982   0.383
  770WAT     H1 2552   5.205   1.045   0.459
  770WAT     H2 2553   5.209   1.027   0.296
  771WAT      O 2554   1.742   2.408   8.800
  771WAT     H1 2555   1.723   2.505   8.813
  771WAT     H2 2556   1.656   2.360   8.781
  772WAT      O 2557   8.392   0.915   4.139
  772WAT     H1 2558   8.452   0.850   4.092
  772WAT     H2 2559   8.354   0.979   4.073
  773WAT      O 2560   1.150   7.374   5.167
  773WAT     H1 2561   1.116   7.433   5.094
  773WAT     H2 2562   1.213   7.306   5.130
  774WAT      O 2563   3.153   0.310   7.609
  774WAT     H1 2564   3.109   0.366   7.539
  774WAT     H2 2565   3.127   0.214   7.596
  775WAT      O 2566   6.030   4.265   4.515
  775WAT     H1 2567   6.050   4.223   4.603
  775WAT     H2 2568   6.044   4.364   4.521
  776WAT      O 2569   0.975   9.517   2.412
  776WAT     H1 2570   1.008   9.459   2.487
  776WAT     H2 2571   1.016   9.487   2.326
  777WAT      O 2572   4.837   5.449   7.018
  777WAT     H1 2573   4.863   5.471   6.924
  777WAT     H2 2574   4.811   5.353   7.023
  778WAT      O 2575   3.503   7.939   5.193
  778WAT     H1 2576   3.475   7.924   5.098
  778WAT     H2 2577   3.430   7.909   5.255
  779WAT      O 2578   0.112   3.933   3.156
  779WAT     H1 2579   0.179   4.002   3.184
  779WAT     H2 2580   0.152   3.842   3.166
  780WAT      O 2581   1.185   3.077   6.462
  780WAT     H1 2582   1.207   3.158   6.408
  780WAT     H2 2583   1.248   3.003   6.438
  781WAT      O 2584   3.148   3.961   2.974
  781WAT     H1 2585   3.123   4.039   3.031
  781WAT     H2 2586   3.071   3.897   2.970
  782WAT      O 2587   1.005   7.337   4.520
  782WAT     H1 2588   0.988   7.408   4.451
  782WAT     H2 2589   0.920   7.287   4.538
  783WAT      O 2590   1.899   4.669   4.324
  783WAT     H1 2591   1.946   4.610   4.391
  783WAT     H2 2592   1.803   4.642   4.318
  784WAT      O 2593   8.478   1.533   6.787
  784WAT     H1 2594   8.532   1.501   6.865
  784WAT     H2 2595   8.539   1.550   6.709
  785WAT      O 2596   8.009   0.033   1.630
  785WAT     H1 2597   8.051   0.100   1.570
  785WAT     H2 2598   7.960   0.081   1.704
  786WAT      O 2599   3.969   6.125   5.108
  786WAT     H1 2600   4.012   6.038   5.134
  786WAT     H2 2601   3.927   6.167   5.188
  787WAT      O 2602   6.777   6.691   8.024
  787WAT     H1 2603   6.755   6.679   7.928
  787WAT     H2 2604   6.868   6.732   8.033
  788WAT      O 2605   4.472   6.572   6.400
  788WAT     H1 2606   4.524   6.612   6.324
  788WAT     H2 2607   4.420   6.643   6.447
  789WAT      O 2608   6.336   9.008   7.066
  789WAT     H1 2609   6.361   8.967   6.978
  789WAT     H2 2610   6.367   8.948   7.140
  790WAT      O 2611   4.224   8.517   7.396
  790WAT     H1 2612   4.247   8.612   7.374
  790WAT     H2 2613   4.201   8.468   7.312
  791WAT      O 2614   2.567   2.219   4.816
  791WAT     H1 2615   2.607   2.300   4.773
  791WAT     H2 2616   2.509   2.247   4.893
  792WAT      O 2617   5.340   6.196   2.735
  792WAT     H1 2618   5.334   6.211   2.636
  792WAT     H2 2619   5.248   6.198   2.774
  793WAT      O 2620   4.934   8.155   2.520
  793WAT     H1 2621   4.972   8.196   2.603
  793WAT     H2 2622   4.837   8.137   2.534
  794WAT      O 2623   7.543   5.768   5.658
  794WAT     H1 2624   7.571   5.863   5.667
  794WAT     H2 2625   7.482   5.743   5.733
  795WAT      O 2626   6.377   1.760   7.193
  795WAT     H1 2627   6.444   1.821   7.151
  795WAT     H2 2628   6.305   1.740   7.127
  796WAT      O 2629   9.401   3.746   1.955
  796WAT     H1 2630   9.488   3.696   1.959
  796WAT     H2 2631   9.377   3.765   1.860
  797WAT      O 2632   4.291   9.298   4.036
  797WAT     H1 2633   4.286   9.387   4.082
  797WAT     H2 2634   4.313   9.227   4.103
  798WAT      O 2635   6.333   8.792   6.401
  798WAT     H1 2636   6.245   8.811   6.444
  798WAT     H2 2637   6.356   8.866   6.338
  799WAT      O 2638   2.946   3.226   1.746
  799WAT     H1 2639   2.922   3.149   1.688
  799WAT     H2 2640   2.946   3.310   1.691
  800WAT      O 2641   2.196   4.667   4.355
  800WAT     H1 2642   2.280   4.699   4.401
  800WAT     H2 2643   2.167   4.580   4.396
  801WAT      O 2644   2.778   3.863   6.004
  801WAT     H1 2645   2.806   3.893   6.095
  801WAT     H2 2646   2.860   3.854   5.946
  802WAT      O 2647   0.995   0.944   5.445
  802WAT     H1 2648   1.061   0.899   5.505
  802WAT     H2 2649   0.950   1.019   5.495
  803WAT      O 2650   8.428   2.888   4.883
  803WAT     H1 2651   8.435   2.960   4.953
  803WAT     H2 2652   8.349   2.830   4.904
  804WAT      O 2653   1.058   6.492   7.421
  804WAT     H1 2654   1.133   6.439   7.460
  804WAT     H2 2655   1.021   6.443   7.342
  805WAT      O 2656   0.954   5.034   1.907
  805WAT     H1 2657   1.039   5.039   1.854
  805WAT     H2 2658   0.890   5.102   1.871
  806WAT      O 2659   4.455   1.456   0.061
  806WAT     H1 2660   4.413   1.523  -0.000
  806WAT     H2 2661   4.487   1.377   0.008
  807WAT      O 2662   1.050   4.615   6.321
  807WAT     H1 2663   1.002   4.615   6.409
  807WAT     H2 2664   1.035   4.702   6.275
  808WAT      O 2665   2.207   8.297   9.757
  808WAT     H1 2666   2.120   8.251   9.737
  808WAT     H2 2667   2.211   8.384   9.707
  809WAT      O 2668   3.162   3.184   0.196
  809WAT     H1 2669   3.132   3.095   0.232
  809WAT     H2 2670   3.084   3.245   0.188
  810WAT      O 2671   5.572   5.163   6.297
  810WAT     H1 2672   5.478   5.195   6.291
  810WAT     H2 2673   5.618   5.173   6.209
  811WAT      O 2674   9.793   3.984   6.867
  811WAT     H1 2675   9.891   4.000   6.868
  811WAT     H2 2676   9.761   3.968   6.961
  812WAT      O 2677   1.800   1.931   8.390
  812WAT     H1 2678   1.839   2.023   8.383
  812WAT     H2 2679   1.858   1.866   8.342
  813WAT      O 2680   6.819   8.999   7.678
  813WAT     H1 2681   6.764   9.042   7.606
  813WAT     H2 2682   6.870   9.070   7.728
  814WAT      O 2683   7.487   8.774   2.118
  814WAT     H1 2684   7.397   8.735   2.137
  814WAT     H2 2685   7.518   8.829   2.196
  815WAT      O 2686   3.042   1.980   4.335
  815WAT     H1 2687   3.069   1.905   4.396
  815WAT     H2 2688   3.060   1.954   4.241
  816WAT      O 2689   8.539   5.901   3.984
  816WAT     H1 2690   8.568   5.807   3.999
  816WAT     H2 2691   8.602   5.946   3.921
  817WAT      O 2692   5.368   7.314   8.014
  817WAT     H1 2693   5.429   7.278   7.943
  817WAT     H2 2694   5.410   7.302   8.104
  818WAT      O 2695   1.711   0.366   7.321
  818WAT     H1 2696   1.796   0.389   7.369
  818WAT     H2 2697   1.657   0.304   7.377
  819WAT      O 2698   7.774   3.246   2.705
  819WAT     H1 2699   7.783   3.151   2.674
  819WAT     H2 2700   7.680   3.277   2.689
  820WAT      O 2701   8.019   5.794   8.164
  820WAT     H1 2702   8.075   5.797   8.247
  820WAT     H2 2703   7.931   5.839   8.182
  821WAT      O 2704   6.884   7.855   8.999
  821WAT     H1 2705   6.886   7.953   9.023
  821WAT     H2 2706   6.916   7.802   9.077
  822WAT      O 2707   2.211   3.944   9.424
  822WAT     H1 2708   2.234   3.889   9.344
  822WAT     H2 2709   2.226   4.041   9.405
  823WAT      O 2710   4.430   1.932   5.481
  823WAT     H1 2711   4.399   2.025   5.495
  823WAT     H2 2712   4.457   1.892   5.568
  824WAT      O 2713   1.487   9.127   1.848
  824WAT     H1 2714   1.501   9.129   1.749
  824WAT     H2 2715   1.532   9.207   1.889
  825WAT      O 2716   3.954   7.074   5.437
  825WAT     H1 2717   3.919   7.093   5.529
  825WAT     H2 2718   4.046   7.112   5.428
  826WAT      O 2719   8.188   2.451   5.441
  826WAT     H1 2720   8.185   2.429   5.343
  826WAT     H2 2721   8.109   2.411   5.487
  827WAT      O 2722   8.062   5.341   1.990
  827WAT     H1 2723   8.080   5.402   2.067
  827WAT     H2 2724   8.063   5.393   1.905
  828WAT      O 2725   1.058   2.254   2.556
  828WAT     H1 2726   1.069   2.196   2.475
  828WAT     H2 2727   1.072   2.198   2.639
  829WAT      O 2728   4.451   1.317   4.330
  829WAT     H1 2729   4.527   1.359   4.281
  829WAT     H2 2730   4.480   1.294   4.423
  830WAT      O 2731   1.398   0.321   6.594
  830WAT     H1 2732   1.432   0.228   6.577
  830WAT     H2 2733   1.362   0.359   6.509
  831WAT      O 2734   9.665   9.000   3.000
  831WAT     H1 2735   9.655   9.096   2.974
  831WAT     H2 2736   9.582   8.949   2.974
  832WAT      O 2737   7.250   7.041   2.993
  832WAT     H1 2738   7.238   6.979   3.071
  832WAT     H2 2739   7.220   6.995   2.909
  833WAT      O 2740   5.121   7.545   9.319
  833WAT     H1 2741   5.156   7.461   9.359
  833WAT     H2 2742   5.023   7.551   9.334
  834WAT      O 2743   3.209   9.820   0.480
  834WAT     H1 2744   3.268   9.772   0.416
  834WAT     H2 2745   3.155   9.753   0.532
  835WAT      O 2746   7.939   1.216   5.430
  835WAT     H1 2747   7.866   1.158   5.466
  835WAT     H2 2748   7.990   1.256   5.506
  836WAT      O 2749   7.381   5.909   5.103
  836WAT     H1 2750   7.429   5.875   5.022
  836WAT     H2 2751   7.448   5.932   5.174
  837WAT      O 2752   1.117   3.582   6.163
  837WAT     H1 2753   1.018   3.573   6.174
  837WAT     H2 2754   1.160   3.590   6.253
  838WAT      O 2755   5.595   4.194   6.026
  838WAT     H1 2756   5.578   4.275   5.971
  838WAT     H2 2757   5.517   4.180   6.088
  839WAT      O 2758   3.062   8.837   7.479
  839WAT     H1 2759   2.969   8.817   7.448
  839WAT     H2 2760   3.122   8.760   7.458
  840WAT      O 2761   8.762   4.181   5.390
  840WAT     H1 2762   8.763   4.083   5.371
  840WAT     H2 2763   8.855   4.216   5.395
  841WAT      O 2764   4.171   2.154   3.538
  841WAT     H1 2765   4.080   2.190   3.560
  841WAT     H2 2766   4.162   2.074   3.479
  842WAT      O 2767   8.349   3.460   1.425
  842WAT     H1 2768   8.354   3.442   1.523
  842WAT     H2 2769   8.333   3.558   1.410
  843WAT      O 2770   8.273   2.858   9.401
  843WAT     H1 2771   8.260   2.769   9.446
  843WAT     H2 2772   8.371   2.872   9.385
  844WAT      O 2773   1.238   2.677   6.500
  844WAT     H1 2774   1.233   2.689   6.599
  844WAT     H2 2775   1.150   2.703   6.459
  845WAT      O 2776   3.907   6.446   3.028
  845WAT     H1 2777   3.853   6.475   2.949
  845WAT     H2 2778   3.880   6.499   3.108
  846WAT      O 2779   4.519   6.867   3.629
  846WAT     H1 2780   4.573   6.865   3.713
  846WAT     H2 2781   4.578   6.881   3.550
  847WAT      O 2782   5.936   7.201   4.900
  847WAT     H1 2783   5.849   7.154   4.906
  847WAT     H2 2784   6.008   7.143   4.938
  848WAT      O 2785   3.185   2.599   0.131
  848WAT     H1 2786   3.275   2.569   0.098
  848WAT     H2 2787   3.181   2.699   0.132
  849WAT      O 2788   3.528   6.596   1.695
  849WAT     H1 2789   3.477   6.624   1.614
  849WAT     H2 2790   3.601   6.662   1.713
  850WAT      O 2791   1.577   2.726   0.225
  850WAT     H1 2792   1.628   2.649   0.186
  850WAT     H2 2793   1.556   2.792   0.152
  851WAT      O 2794   6.908   3.815   9.493
  851WAT     H1 2795   6.814   3.782   9.478
  851WAT     H2 2796   6.927   3.889   9.429
  852WAT      O 2797   2.762   6.723   4.563
  852WAT     H1 2798   2.723   6.778   4.490
  852WAT     H2 2799   2.820   6.652   4.523
  853WAT      O 2800   4.783   8.016   0.182
  853WAT     H1 2801   4.769   8.097   0.125
  853WAT     H2 2802   4.741   7.936   0.138
  854WAT      O 2803   8.039   8.405   4.856
  854WAT     H1 2804   8.109   8.337   4.877
  854WAT     H2 2805   8.069   8.461   4.779
  855WAT      O 2806   2.994   4.823   2.324
  855WAT     H1 2807   3.089   4.818   2.352
  855WAT     H2 2808   2.947   4.895   2.376
  856WAT      O 2809   2.630   3.531   3.490
  856WAT     H1 2810   2.537   3.569   3.485
  856WAT     H2 2811   2.681   3.576   3.563
  857WAT      O 2812   5.127   6.181   2.879
  857WAT     H1 2813   5.084   6.098   2.843
  857WAT     H2 2814   5.061   6.256   2.875
  858WAT      O 2815   7.126   7.377   1.642
  858WAT     H1 2816   7.101   7.295   1.693
  858WAT     H2 2817   7.102   7.365   1.545
  859WAT      O 2818   0.071   1.615   3.432
  859WAT     H1 2819   0.005   1.557   3.479
  859WAT     H2 2820   0.112   1.679   3.498
  860WAT      O 2821   7.601   1.646   2.778
  860WAT     H1 2822   7.570   1.707   2.705
  860WAT     H2 2823   7.542   1.657   2.858
  861WAT      O 2824   7.466   9.796   4.418
  861WAT     H1 2825   7.555   9.822   4.381
  861WAT     H2 2826   7.452   9.841   4.507
  862WAT      O 2827   6.471   8.940   6.155
  862WAT     H1 2828   6.569   8.949   6.136
  862WAT     H2 2829   6.431   9.031   6.162
  863WAT      O 2830   3.073   8.239   2.726
  863WAT     H1 2831   3.125   8.220   2.809
  863WAT     H2 2832   2.982   8.274   2.751
  864WAT      O 2833   8.650   3.592   4.488
  864WAT     H1 2834   8.595   3.669   4.520
  864WAT     H2 2835   8.726   3.577   4.552
  865WAT      O 2836   7.308   4.504   5.379
  865WAT     H1 2837   7.255   4.463   5.453
  865WAT     H2 2838   7.396   4.459   5.371
  866WAT      O 2839   4.201   9.767   5.692
  866WAT     H1 2840   4.284   9.792   5.642
  866WAT     H2 2841   4.184   9.669   5.682
  867WAT      O 2842   8.503   3.234   9.114
  867WAT     H1 2843   8.451   3.282   9.043
  867WAT     H2 2844   8.442   3.211   9.190
  868WAT      O 2845   9.755   3.528   4.843
  868WAT     H1 2846   9.683   3.589   4.877
  868WAT     H2 2847   9.844   3.567   4.864
  869WAT      O 2848   3.342   5.558   4.920
  869WAT     H1 2849   3.296   5.489   4.865
  869WAT     H2 2850   3.366   5.636   4.862
  870WAT      O 2851   7.927   7.851   4.223
  870WAT     H1 2852   7.969   7.779   4.169
  870WAT     H2 2853   7.841   7.880   4.179
  871WAT      O 2854   1.287   9.077   1.551
  871WAT     H1 2855   1.352   9.008   1.520
  871WAT     H2 2856   1.202   9.032   1.578
  872WAT      O 2857   6.617   8.762   9.074
  872WAT     H1 2858   6.653   8.722   9.158
  872WAT     H2 2859   6.663   8.721   8.995
  873WAT      O 2860   0.754   1.817   4.649
  873WAT     H1 2861   0.836   1.872   4.664
  873WAT     H2 2862   0.773   1.745   4.583
  874WAT      O 2863   0.286   8.406   8.574
  874WAT     H1 2864   0.384   8.400   8.558
  874WAT     H2 2865   0.241   8.435   8.489
  875WAT      O 2866   7.196   3.167   6.942
  875WAT     H1 2867   7.227   3.153   6.848
  875WAT     H2 2868   7.269   3.142   7.005
  876WAT      O 2869   0.948   8.954   5.529
  876WAT     H1 2870   1.006   8.886   5.575
  876WAT     H2 2871   0.878   8.987   5.593
  877WAT      O 2872   9.664   2.104   0.190
  877WAT     H1 2873   9.637   2.012   0.217
  877WAT     H2 2874   9.759   2.121   0.218
  878WAT      O 2875   2.578   4.014   6.293
  878WAT     H1 2876   2.506   3.949   6.316
  878WAT     H2 2877   2.555   4.063   6.209
  879WAT      O 2878   3.393   1.982   6.417
  879WAT     H1 2879   3.331   1.912   6.453
  879WAT     H2 2880   3.448   1.942   6.343
  880WAT      O 2881   2.513   0.207   3.350
  880WAT     H1 2882   2.463   0.121   3.341
  880WAT     H2 2883   2.551   0.234   3.261
  881WAT      O 2884   0.311   2.994   2.790
  881WAT     H1 2885   0.406   2.985   2.818
  881WAT     H2 2886   0.272   3.077   2.831
  882WAT      O 2887   4.967   4.662   8.588
  882WAT     H1 2888   4.942   4.571   8.622
  882WAT     H2 2889   5.060   4.684   8.620
  883WAT      O 2890   0.377   5.155   6.097
  883WAT     H1 2891   0.408   5.060   6.108
  883WAT     H2 2892   0.385   5.181   6.001
  884WAT      O 2893   6.720   6.441   3.890
  884WAT     H1 2894   6.667   6.486   3.962
  884WAT     H2 2895   6.759   6.511   3.830
  885WAT      O 2896   9.627   0.252   0.395
  885WAT     H1 2897   9.555   0.237   0.464
  885WAT     H2 2898   9.603   0.205   0.311
  886WAT      O 2899   3.089   9.379   5.281
  886WAT     H1 2900   3.110   9.282   5.267
  886WAT     H2 2901   3.051   9.391   5.372
  887WAT      O 2902   4.175   5.652   5.154
  887WAT     H1 2903   4.131   5.579   5.206
  887WAT     H2 2904   4.257   5.683   5.202
  888WAT      O 2905   4.165   9.615   6.034
  888WAT     H1 2906   4.090   9.580   5.977
  888WAT     H2 2907   4.196   9.703   5.997
  889WAT      O 2908   5.463   0.706   8.562
  889WAT     H1 2909   5.502   0.639   8.624
  889WAT     H2 2910   5.534   0.742   8.502
  890WAT      O 2911   9.783   4.565   1.881
  890WAT     H1 2912   9.750   4.474   1.908
  890WAT     H2 2913   9.775   4.628   1.958
  891WAT      O 2914   2.177   6.447   1.969
  891WAT     H1 2915   2.262   6.444   1.916
  891WAT     H2 2916   2.099   6.454   1.906
  892WAT      O 2917   1.354   0.215   3.444
  892WAT     H1 2918   1.369   0.217   3.543
  892WAT     H2 2919   1.321   0.304   3.413
  893WAT      O 2920   7.832   2.522   6.459
  893WAT     H1 2921   7.757   2.466   6.496
  893WAT     H2 2922   7.831   2.612   6.502
  894WAT      O 2923   7.045   5.594   1.253
  894WAT     H1 2924   7.043   5.581   1.352
  894WAT     H2 2925   6.955   5.572   1.215
  895WAT      O 2926   9.453   6.989   3.202
  895WAT     H1 2927   9.451   7.079   3.159
  895WAT     H2 2928   9.452   6.918   3.131
  896WAT      O 2929   0.894   5.298   6.596
  896WAT     H1 2930   0.828   5.370   6.617
  896WAT     H2 2931   0.882   5.222   6.660
  897WAT      O 2932   0.910   2.208   7.169
  897WAT     H1 2933   0.837   2.248   7.225
  897WAT     H2 2934   0.991   2.193   7.225
  898WAT      O 2935   0.402   6.567   2.318
  898WAT     H1 2936   0.483   6.616   2.350
  898WAT     H2 2937   0.429   6.478   2.281
  899WAT      O 2938   3.159   9.059   4.791
  899WAT     H1 2939   3.078   9.006   4.768
  899WAT     H2 2940   3.202   9.092   4.707
  900WAT      O 2941   5.922   7.054   3.631
  900WAT     H1 2942   5.824   7.074   3.620
  900WAT     H2 2943   5.937   6.956   3.623
  901WAT      O 2944   8.439   7.806   3.659
  901WAT     H1 2945   8.428   7.793   3.758
  901WAT     H2 2946   8.503   7.880   3.642
  902WAT      O 2947   7.931   8.177   7.178
  902WAT     H1 2948   7.908   8.269   7.212
  902WAT     H2 2949   7.881   8.160   7.093
  903WAT      O 2950   5.768   7.471   8.341
  903WAT     H1 2951   5.803   7.559   8.310
  903WAT     H2 2952   5.844   7.408   8.357
  904WAT      O 2953   4.290   0.190   8.077
  904WAT     H1 2954   4.377   0.229   8.108
  904WAT     H2 2955   4.281   0.097   8.112
  905WAT      O 2956   0.778   1.521   3.632
  905WAT     H1 2957   0.685   1.555   3.646
  905WAT     H2 2958   0.829   1.586   3.576
  906WAT      O 2959   7.604   1.039   2.273
  906WAT     H1 2960   7.521   1.078   2.314
  906WAT     H2 2961   7.589   0.942   2.252
  907WAT      O 2962   5.148   3.537   5.568
  907WAT     H1 2963   5.137   3.504   5.661
  907WAT     H2 2964   5.060   3.530   5.520
  908WAT      O 2965   0.323   6.980   6.838
  908WAT     H1 2966   0.293   7.015   6.926
  908WAT     H2 2967   0.285   7.037   6.765
  909WAT      O 2968   7.722   7.731   2.226
  909WAT     H1 2969   7.809   7.775   2.203
  909WAT     H2 2970   7.718   7.712   2.324
  910WAT      O 2971   9.293   7.999   5.031
  910WAT     H1 2972   9.250   7.921   4.986
  910WAT     H2 2973   9.374   7.968   5.081
  911WAT      O 2974   6.977   2.466   0.890
  911WAT     H1 2975   6.994   2.464   0.791
  911WAT     H2 2976   6.891   2.512   0.908
  912WAT      O 2977   0.920   7.123   0.799
  912WAT     H1 2978   0.863   7.119   0.718
  912WAT     H2 2979   0.954   7.216   0.812
  913WAT      O 2980   6.031   8.873   3.151
  913WAT     H1 2981   6.074   8.793   3.110
  913WAT     H2 2982   6.070   8.956   3.111
  914WAT      O 2983   4.112   1.821   7.767
  914WAT     H1 2984   4.095   1.916   7.740
  914WAT     H2 2985   4.090   1.810   7.864
  915WAT      O 2986   7.935   5.450   5.056
  915WAT     H1 2987   7.948   5.361   5.013
  915WAT     H2 2988   7.878   5.508   4.998
  916WAT      O 2989   5.297   7.487   9.706
  916WAT     H1 2990   5.335   7.574   9.736
  916WAT     H2 2991   5.197   7.493   9.704
  917WAT      O 2992   2.760   3.457   6.820
  917WAT     H1 2993   2.831   3.464   6.890
  917WAT     H2 2994   2.703   3.378   6.839
  918WAT      O 2995   3.518   8.408   0.935
  918WAT     H1 2996   3.436   8.393   0.990
  918WAT     H2 2997   3.514   8.499   0.894
  919WAT      O 2998   1.463   3.982   3.947
  919WAT     H1 2999   1.511   3.915   3.890
  919WAT     H2 3000   1.378   3.941   3.980
  920WAT      O 3001   1.955   8.800   6.017
  920WAT     H1 3002   1.865   8.813   6.059
  920WAT     H2 3003   1.978   8.703   6.018
  921WAT      O 3004   0.275   7.424   0.507
  921WAT     H1 3005   0.323   7.457   0.426
  921WAT     H2 3006   0.316   7.464   0.589
  922WAT      O 3007   1.957   5.967   9.870
  922WAT     H1 3008   1.942   5.930   9.962
  922WAT     H2 3009   2.002   6.056   9.878
  923WAT      O 3010   0.689   4.692   2.527
  923WAT     H1 3011   0.770   4.698   2.584
  923WAT     H2 3012   0.634   4.775   2.538
  924WAT      O 3013   9.025   5.216   8.259
  924WAT     H1 3014   9.010   5.305   8.217
  924WAT     H2 3015   9.090   5.163   8.204
  925WAT      O 3016   8.810   2.317   2.901
  925WAT     H1 3017   8.864   2.400   2.910
  925WAT     H2 3018   8.865   2.238   2.930
  926WAT      O 3019   9.348   6.913   8.664
  926WAT     H1 3020   9.311   6.905   8.756
  926WAT     H2 3021   9.334   6.827   8.615
  927WAT      O 3022   3.372   8.944   6.687
  927WAT     H1 3023   3.280   8.952   6.648
  927WAT     H2 3024   3.365   8.921   6.784
  928WAT      O 3025   4.767   2.683   8.309
  928WAT     H1 3026   4.842   2.697   8.373
  928WAT     H2 3027   4.788   2.606   8.249
  929WAT      O 3028   1.702   4.694   1.490
  929WAT     H1 3029   1.641   4.671   1.414
  929WAT     H2 3030   1.790   4.649   1.476
  930WAT      O 3031   9.124   0.458   5.903
  930WAT     H1 3032   9.210   0.492   5.940
  930WAT     H2 3033   9.083   0.393   5.967
  931WAT      O 3034   9.697   1.047   7.001
  931WAT     H1 3035   9.633   1.068   6.927
  931WAT     H2 3036   9.721   1.132   7.048
  932WAT      O 3037   1.935   3.097   8.962
  932WAT     H1 3038   1.845   3.069   8.994
  932WAT     H2 3039   1.985   3.018   8.927
  933WAT      O 3040   6.027   5.272   4.641
  933WAT     H1 3041   5.979   5.359   4.645
  933WAT     H2 3042   6.013   5.222   4.727
  934WAT      O 3043   4.271   4.590   8.473
  934WAT     H1 3044   4.177   4.580   8.507
  934WAT     H2 3045   4.271   4.634   8.384
  935WAT      O 3046   0.171   5.735   1.799
  935WAT     H1 3047   0.202   5.829   1.791
  935WAT     H2 3048   0.138   5.718   1.892
  936WAT      O 3049   8.820   0.860   9.688
  936WAT     H1 3050   8.815   0.764   9.714
  936WAT     H2 3051   8.910   0.881   9.651
  937WAT      O 3052   8.738   7.411   9.207
  937WAT     H1 3053   8.689   7.410   9.120
  937WAT     H2 3054   8.837   7.403   9.189
  938WAT      O 3055   6.509   3.194   5.421
  938WAT     H1 3056   6.449   3.226   5.494
  938WAT     H2 3057   6.485   3.238   5.335
  939WAT      O 3058   9.334   3.395   8.937
  939WAT     H1 3059   9.259   3.342   8.897
  939WAT     H2 3060   9.417   3.380   8.884
  940WAT      O 3061   7.668   8.612   5.901
  940WAT     H1 3062   7.683   8.701   5.859
  940WAT     H2 3063   7.651   8.544   5.829
  941WAT      O 3064   8.104   2.999   1.016
  941WAT     H1 3065   8.149   2.913   0.992
  941WAT     H2 3066   8.134   3.027   1.108
  942WAT      O 3067   8.578   8.241   9.392
  942WAT     H1 3068   8.672   8.223   9.419
  942WAT     H2 3069   8.557   8.338   9.405
  943WAT      O 3070   0.819   2.022   0.902
  943WAT     H1 3071   0.821   1.941   0.960
  943WAT     H2 3072   0.782   2.099   0.954
  944WAT      O 3073   5.689   6.763   7.711
  944WAT     H1 3074   5.754   6.709   7.658
  944WAT     H2 3075   5.662   6.844   7.657
  945WAT      O 3076   8.104   8.646   1.440
  945WAT     H1 3077   8.102   8.551   1.411
  945WAT     H2 3078   8.193   8.666   1.482
  946WAT      O 3079   6.925   5.404   2.387
  946WAT     H1 3080   6.918   5.312   2.348
  946WAT     H2 3081   6.966   5.466   2.320
  947WAT      O 3082   7.653   9.491   0.630
  947WAT     H1 3083   7.583   9.506   0.699
  947WAT     H2 3084   7.620   9.522   0.541
  948WAT      O 3085   3.243   4.661   7.917
  948WAT     H1 3086   3.235   4.640   8.015
  948WAT     H2 3087   3.336   4.693   7.899
  949WAT      O 3088   7.325   9.362   0.494
  949WAT     H1 3089   7.381   9.340   0.414
  949WAT     H2 3090   7.286   9.278   0.531
  950WAT      O 3091   4.355   8.157   0.375
  950WAT     H1 3092   4.298   8.106   0.310
  950WAT     H2 3093   4.298   8.192   0.449
  951WAT      O 3094   6.071   9.278   1.772
  951WAT     H1 3095   6.131   9.204   1.800
  951WAT     H2 3096   6.028   9.319   1.852
  952WAT      O 3097   2.979   5.252   3.232
  952WAT     H1 3098   2.888   5.213   3.246
  952WAT     H2 3099   3.040   5.220   3.304
  953WAT      O 3100   4.833   9.266   1.264
  953WAT     H1 3101   4.782   9.319   1.196
  953WAT     H2 3102   4.882   9.328   1.325
  954WAT      O 3103   6.991   6.103   0.601
  954WAT     H1 3104   6.904   6.074   0.640
  954WAT     H2 3105   6.986   6.097   0.501
  955WAT      O 3106   0.687   5.392   7.928
  955WAT     H1 3107   0.620   5.462   7.949
  955WAT     H2 3108   0.647   5.301   7.945
  956WAT      O 3109   9.885   9.630   5.838
  956WAT     H1 3110   9.798   9.676   5.818
  956WAT     H2 3111   9.906   9.640   5.935
  957WAT      O 3112   0.406   9.599   3.901
  957WAT     H1 3113   0.322   9.571   3.947
  957WAT     H2 3114   0.438   9.525   3.842
  958WAT      O 3115   8.865   9.088   2.000
  958WAT     H1 3116   8.787   9.119   1.946
  958WAT     H2 3117   8.907   9.167   2.046
  959WAT      O 3118   9.192   3.080   0.078
  959WAT     H1 3119   9.150   2.989   0.088
  959WAT     H2 3120   9.127   3.143   0.036
  960WAT      O 3121   1.424   0.086   9.464
  960WAT     H1 3122   1.455   0.151   9.534
  960WAT     H2 3123   1.363   0.019   9.506
  961WAT      O 3124   1.303   0.729   4.559
  961WAT     H1 3125   1.265   0.687   4.476
  961WAT     H2 3126   1.370   0.667   4.599
  962WAT      O 3127   2.014   4.278   9.834
  962WAT     H1 3128   1.944   4.342   9.867
  962WAT     H2 3129   2.041   4.305   9.741
  963WAT      O 3130   3.440   2.028   7.652
  963WAT     H1 3131   3.367   2.094   7.666
  963WAT     H2 3132   3.525   2.077   7.631
  964WAT      O 3133   9.048   2.250   2.480
  964WAT     H1 3134   8.989   2.311   2.533
  964WAT     H2 3135   9.140   2.288   2.475
  965WAT      O 3136   6.510   8.023   8.031
  965WAT     H1 3137   6.464   7.989   8.113
  965WAT     H2 3138   6.443   8.064   7.969
  966WAT      O 3139   4.421   7.315   9.835
  966WAT     H1 3140   4.436   7.336   9.932
  966WAT     H2 3141   4.487   7.246   9.806
  967WAT      O 3142   4.634   6.040   9.329
  967WAT     H1 3143   4.568   6.105   9.291
  967WAT     H2 3144   4.693   6.006   9.256
  968WAT      O 3145   9.867   3.795   6.679
  968WAT     H1 3146   9.799   3.793   6.606
  968WAT     H2 3147   9.831   3.848   6.756
  969WAT      O 3148   8.132   8.551   4.650
  969WAT     H1 3149   8.106   8.520   4.559
  969WAT     H2 3150   8.229   8.571   4.652
  970WAT      O 3151   4.835   3.716   1.360
  970WAT     H1 3152   4.908   3.713   1.292
  970WAT     H2 3153   4.751   3.681   1.319
  971WAT      O 3154   8.589   9.511   8.236
  971WAT     H1 3155   8.616   9.601   8.269
  971WAT     H2 3156   8.628   9.440   8.295
  972WAT      O 3157   1.652   6.707   4.112
  972WAT     H1 3158   1.657   6.650   4.030
  972WAT     H2 3159   1.743   6.719   4.151
  973WAT      O 3160   3.675   9.770   2.454
  973WAT     H1 3161   3.581   9.790   2.478
  973WAT     H2 3162   3.690   9.791   2.357
  974WAT      O 3163   3.688   8.062   7.711
  974WAT     H1 3164   3.740   7.977   7.715
  974WAT     H2 3165   3.632   8.072   7.793
  975WAT      O 3166   2.474   4.486   5.105
  975WAT     H1 3167   2.536   4.529   5.171
  975WAT     H2 3168   2.461   4.547   5.026
  976WAT      O 3169   1.468   7.733   0.743
  976WAT     H1 3170   1.509   7.824   0.753
  976WAT     H2 3171   1.525   7.666   0.790
  977WAT      O 3172   7.525   7.858   8.321
  977WAT     H1 3173   7.572   7.870   8.408
  977WAT     H2 3174   7.465   7.937   8.304
  978WAT      O 3175   1.100   3.592   9.065
  978WAT     H1 3176   1.102   3.627   8.971
  978WAT     H2 3177   1.037   3.515   9.071
  979WAT      O 3178   7.560   7.374   9.785
  979WAT     H1 3179   7.519   7.351   9.696
  979WAT     H2 3180   7.612   7.295   9.819
  980WAT      O 3181   4.497   2.934   6.063
  980WAT     H1 3182   4.558   3.008   6.093
  980WAT     H2 3183   4.418   2.929   6.124
  981WAT      O 3184   8.223   6.366   4.786
  981WAT     H1 3185   8.177   6.391   4.701
  981WAT     H2 3186   8.265   6.447   4.827
  982WAT      O 3187   2.342   1.365   2.654
  982WAT     H1 3188   2.331   1.415   2.739
  982WAT     H2 3189   2.430   1.390   2.612
  983WAT      O 3190   2.292   4.647   5.484
  983WAT     H1 3191   2.353   4.721   5.510
  983WAT     H2 3192   2.346   4.569   5.453
  984WAT      O 3193   0.919   6.256   3.562
  984WAT     H1 3194   0.962   6.168   3.546
  984WAT     H2 3195   0.841   6.245   3.624
  985WAT      O 3196   5.154   3.618   8.575
  985WAT     H1 3197   5.099   3.662   8.646
  985WAT     H2 3198   5.174   3.524   8.601
  986WAT      O 3199   6.754   9.516   6.138
  986WAT     H1 3200   6.673   9.459   6.122
  986WAT     H2 3201   6.727   9.598   6.188
  987WAT      O 3202   0.225   4.087   7.397
  987WAT     H1 3203   0.292   4.020   7.431
  987WAT     H2 3204   0.180   4.130   7.475
  988WAT      O 3205   4.483   7.275   7.909
  988WAT     H1 3206   4.488   7.225   7.822
  988WAT     H2 3207   4.564   7.254   7.964
  989WAT      O 3208   2.085   9.332   3.444
  989WAT     H1 3209   2.170   9.320   3.392
  989WAT     H2 3210   2.016   9.375   3.387
  990WAT      O 3211   2.662   2.953   3.703
  990WAT     H1 3212   2.646   3.025   3.771
  990WAT     H2 3213   2.754   2.916   3.716
  991WAT      O 3214   1.036   2.677   4.420
  991WAT     H1 3215   1.022   2.682   4.322
  991WAT     H2 3216   1.053   2.582   4.447
  992WAT      O 3217   5.547   3.419   8.897
  992WAT     H1 3218   5.558   3.388   8.803
  992WAT     H2 3219   5.543   3.519   8.899
  993WAT      O 3220   8.030   8.603   5.951
  993WAT     H1 3221   8.081   8.627   6.033
  993WAT     H2 3222   7.937   8.577   5.976
  994WAT      O 3223   3.456   3.506   3.239
  994WAT     H1 3224   3.548   3.515   3.277
  994WAT     H2 3225   3.388   3.524   3.311
  995WAT      O 3226   1.580   1.554   1.565
  995WAT     H1 3227   1.565   1.531   1.469
  995WAT     H2 3228   1.678   1.550   1.585
  996WAT      O 3229   3.736   2.196   8.531
  996WAT     H1 3230   3.657   2.165   8.583
  996WAT     H2 3231   3.820   2.163   8.575
  997WAT      O 3232   7.006   9.113   8.701
  997WAT     H1 3233   7.100   9.107   8.734
  997WAT     H2 3234   6.951   9.040   8.740
  998WAT      O 3235   8.869   4.860   5.139
  998WAT     H1 3236   8.896   4.890   5.047
  998WAT     H2 3237   8.881   4.761   5.147
  999WAT      O 3238   4.711   3.496   1.214
  999WAT     H1 3239   4.749   3.477   1.123
  999WAT     H2 3240   4.630   3.553   1.205
 1000WAT      O 3241   1.875   7.230   6.136
 1000WAT     H1 3242   1.883   7.326   6.162
 1000WAT     H2 3243   1.896   7.172   6.214
 1001WAT      O 3244   7.214   7.711   0.441
 1001WAT     H1 3245   7.283   7.700   0.513
 1001WAT     H2 3246   7.195   7.623   0.399
 1002WAT      O 3247   0.729   3.326   7.550
 1002WAT     H1 3248   0.648   3.382   7.533
 1002WAT     H2 3249   0.772   3.302   7.462
 1003WAT      O 3250   8.635   8.813   2.586
 1003WAT     H1 3251   8.653   8.912   2.590
 1003WAT     H2 3252   8.720   8.765   2.564
 1004WAT      O 3253   1.479   3.833   2.788
 1004WAT     H1 3254   1.553   3.884   2.831
 1004WAT     H2 3255   1.401   3.828   2.850
 1005WAT      O 3256   6.699   6.122   4.787
 1005WAT     H1 3257   6.632   6.082   4.725
 1005WAT     H2 3258   6.659   6.200   4.835
 1006WAT      O 3259   9.137   8.687   8.283
 1006WAT     H1 3260   9.203   8.740   8.336
 1006WAT     H2 3261   9.123   8.730   8.194
 1007WAT      O 3262   6.918   1.212   8.379
 1007WAT     H1 3263   6.949   1.134   8.433
 1007WAT     H2 3264   6.989   1.283   8.379
 1008WAT      O 3265   8.351   8.392   3.068
 1008WAT     H1 3266   8.367   8.484   3.033
 1008WAT     H2 3267   8.254   8.383   3.094
 1009WAT      O 3268   2.560   1.376   6.102
 1009WAT     H1 3269   2.545   1.362   6.004
 1009WAT     H2 3270   2.596   1.292   6.143
 1010WAT      O 3271   6.746   4.384   1.393
 1010WAT     H1 3272   6.807   4.452   1.351
 1010WAT     H2 3273   6.778   4.292   1.371
 1011WAT      O 3274   0.540   8.819   5.177
 1011WAT     H1 3275   0.549   8.785   5.084
 1011WAT     H2 3276   0.555   8.744   5.242
 1012WAT      O 3277   2.915   9.636   7.767
 1012WAT     H1 3278   2.897   9.545   7.802
 1012WAT     H2 3279   3.003   9.669   7.801
 1013WAT      O 3280   4.072   1.174   7.435
 1013WAT     H1 3281   4.019   1.256   7.411
 1013WAT     H2 3282   4.012   1.107   7.478
 1014WAT      O 3283   8.804   0.564   1.060
 1014WAT     H1 3284   8.874   0.511   1.013
 1014WAT     H2 3285   8.827   0.661   1.057
 1015WAT      O 3286   6.087   8.823   2.744
 1015WAT     H1 3287   6.043   8.907   2.777
 1015WAT     H2 3288   6.138   8.781   2.819
 1016WAT      O 3289   3.722   8.792   9.670
 1016WAT     H1 3290   3.761   8.766   9.582
 1016WAT     H2 3291   3.796   8.805   9.737
 1017WAT      O 3292   7.256   3.218   9.222
 1017WAT     H1 3293   7.160   3.194   9.208
 1017WAT     H2 3294   7.311   3.182   9.147
 1018WAT      O 3295   7.545   5.424   4.312
 1018WAT     H1 3296   7.573   5.468   4.397
 1018WAT     H2 3297   7.470   5.476   4.271
 1019WAT      O 3298   3.340   0.551   8.714
 1019WAT     H1 3299   3.360   0.520   8.621
 1019WAT     H2 3300   3.359   0.649   8.721
 1020WAT      O 3301   9.200   8.230   9.455
 1020WAT     H1 3302   9.144   8.147   9.458
 1020WAT     H2 3303   9.242   8.245   9.544
 1021WAT      O 3304   4.787   7.999   4.661
 1021WAT     H1 3305   4.829   8.045   4.739
 1021WAT     H2 3306   4.784   7.900   4.679
 1022WAT      O 3307   9.875   8.138   8.452
 1022WAT     H1 3308   9.871   8.084   8.368
 1022WAT     H2 3309   9.839   8.230   8.435
 1023WAT      O 3310   2.189   8.110   4.269
 1023WAT     H1 3311   2.218   8.015   4.262
 1023WAT     H2 3312   2.137   8.135   4.186
 1024WAT      O 3313   2.851   4.909   9.795
 1024WAT     H1 3314   2.875   4.822   9.751
 1024WAT     H2 3315   2.917   4.929   9.867
 1025WAT      O 3316   4.305   9.540   0.949
 1025WAT     H1 3317   4.312   9.510   1.044
 1025WAT     H2 3318   4.224   9.501   0.907
 1026WAT      O 3319   2.120   1.143   4.167
 1026WAT     H1 3320   2.110   1.054   4.123
 1026WAT     H2 3321   2.138   1.130   4.265
 1027WAT      O 3322   9.428   4.974   2.814
 1027WAT     H1 3323   9.493   4.985   2.738
 1027WAT     H2 3324   9.411   4.877   2.829
 1028WAT      O 3325   4.736   3.867   3.821
 1028WAT     H1 3326   4.758   3.789   3.762
 1028WAT     H2 3327   4.709   3.833   3.912
 1029WAT      O 3328   4.954   8.665   2.029
 1029WAT     H1 3329   4.891   8.587   2.039
 1029WAT     H2 3330   5.035   8.649   2.086
 1030WAT      O 3331   6.612   9.498   8.030
 1030WAT     H1 3332   6.682   9.427   8.029
 1030WAT     H2 3333   6.582   9.518   7.937
 1031WAT      O 3334   1.028   6.719   4.036
 1031WAT     H1 3335   1.036   6.804   4.088
 1031WAT     H2 3336   1.093   6.720   3.960
 1032WAT      O 3337   6.160   1.760   7.354
 1032WAT     H1 3338   6.247   1.776   7.308
 1032WAT     H2 3339   6.137   1.663   7.349
 1033WAT      O 3340   5.741   9.510   6.117
 1033WAT     H1 3341   5.667   9.482   6.056
 1033WAT     H2 3342   5.829   9.496   6.071
 1034WAT      O 3343   6.162   2.729   2.336
 1034WAT     H1 3344   6.082   2.734   2.276
 1034WAT     H2 3345   6.175   2.818   2.381
 1035WAT      O 3346   4.110   9.171   7.712
 1035WAT     H1 3347   4.012   9.157   7.726
 1035WAT     H2 3348   4.124   9.234   7.636
 1036WAT      O 3349   7.811   4.017   6.491
 1036WAT     H1 3350   7.900   3.996   6.531
 1036WAT     H2 3351   7.775   4.100   6.532
 1037WAT      O 3352   4.811   8.349   1.246
 1037WAT     H1 3353   4.883   8.409   1.211
 1037WAT     H2 3354   4.848   8.258   1.260
 1038WAT      O 3355   6.352   4.106   0.772
 1038WAT     H1 3356   6.310   4.186   0.814
 1038WAT     H2 3357   6.346   4.113   0.673
 1039WAT      O 3358   6.434   7.585   0.992
 1039WAT     H1 3359   6.363   7.654   0.978
 1039WAT     H2 3360   6.408   7.525   1.068
 1040WAT      O 3361   7.535   6.501   4.551
 1040WAT     H1 3362   7.503   6.576   4.608
 1040WAT     H2 3363   7.540   6.532   4.456
 1041WAT      O 3364   8.950   9.226   0.279
 1041WAT     H1 3365   8.904   9.146   0.239
 1041WAT     H2 3366   8.892   9.306   0.266
 1042WAT      O 3367   2.192   6.079   8.878
 1042WAT     H1 3368   2.160   5.984   8.875
 1042WAT     H2 3369   2.150   6.131   8.804
 1043WAT      O 3370   9.633   1.828   9.078
 1043WAT     H1 3371   9.616   1.882   9.160
 1043WAT     H2 3372   9.731   1.810   9.069
 1044WAT      O 3373   5.092   4.339   0.532
 1044WAT     H1 3374   5.140   4.334   0.445
 1044WAT     H2 3375   5.149   4.388   0.598
 1045WAT      O 3376   0.187   0.908   2.785
 1045WAT     H1 3377   0.234   0.972   2.724
 1045WAT     H2 3378   0.125   0.958   2.844
 1046WAT      O 3379   5.234   4.136   6.970
 1046WAT     H1 3380   5.165   4.194   7.013
 1046WAT     H2 3381   5.313   4.126   7.031
 1047WAT      O 3382   5.761   0.576   4.402
 1047WAT     H1 3383   5.758   0.481   4.371
 1047WAT     H2 3384   5.761   0.637   4.323
 1048WAT      O 3385   9.198   9.825   7.041
 1048WAT     H1 3386   9.213   9.801   6.945
 1048WAT     H2 3387   9.101   9.843   7.056
 1049WAT      O 3388   5.886   9.366   9.647
 1049WAT     H1 3389   5.861   9.274   9.619
 1049WAT     H2 3390   5.846   9.386   9.737
 1050WAT      O 3391   3.397   0.207   0.138
 1050WAT     H1 3392   3.453   0.269   0.082
 1050WAT     H2 3393   3.426   0.212   0.233
 1051WAT      O 3394   8.166   6.658   7.268
 1051WAT     H1 3395   8.094   6.609   7.218
 1051WAT     H2 3396   8.255   6.622   7.242
 1052WAT      O 3397   0.120   5.715   5.640
 1052WAT     H1 3398   0.119   5.721   5.740
 1052WAT     H2 3399   0.198   5.766   5.605
 1053WAT      O 3400   0.639   5.702   1.147
 1053WAT     H1 3401   0.579   5.782   1.150
 1053WAT     H2 3402   0.652   5.673   1.052
 1054WAT      O 3403   2.089   1.846   5.533
 1054WAT     H1 3404   2.108   1.838   5.435
 1054WAT     H2 3405   2.004   1.798   5.554
 1055WAT      O 3406   7.582   7.665   1.177
 1055WAT     H1 3407   7.483   7.655   1.177
 1055WAT     H2 3408   7.607   7.752   1.135
 1056WAT      O 3409   1.847   6.199   3.189
 1056WAT     H1 3410   1.875   6.152   3.273
 1056WAT     H2 3411   1.749   6.186   3.175
 1057WAT      O 3412   8.936   4.623   8.330
 1057WAT     H1 3413   8.997   4.690   8.289
 1057WAT     H2 3414   8.873   4.668   8.393
 1058WAT      O 3415   3.817   4.460   3.044
 1058WAT     H1 3416   3.818   4.557   3.066
 1058WAT     H2 3417   3.889   4.413   3.096
 1059WAT      O 3418   4.417   6.593   3.055
 1059WAT     H1 3419   4.321   6.564   3.054
 1059WAT     H2 3420   4.424   6.686   3.091
 1060WAT      O 3421   8.873   9.697   8.469
 1060WAT     H1 3422   8.943   9.715   8.400
 1060WAT     H2 3423   8.877   9.601   8.496
 1061WAT      O 3424   9.730   6.953   4.315
 1061WAT     H1 3425   9.694   6.860   4.317
 1061WAT     H2 3426   9.709   6.999   4.401
 1062WAT      O 3427   2.715   4.387   7.183
 1062WAT     H1 3428   2.710   4.396   7.084
 1062WAT     H2 3429   2.808   4.363   7.210
 1063WAT      O 3430   0.506   0.321   2.248
 1063WAT     H1 3431   0.575   0.385   2.216
 1063WAT     H2 3432   0.465   0.274   2.170
 1064WAT      O 3433   1.569   6.050   3.534
 1064WAT     H1 3434   1.667   6.046   3.513
 1064WAT     H2 3435   1.540   5.963   3.572
 1065WAT      O 3436   8.922   5.286   8.949
 1065WAT     H1 3437   8.968   5.202   8.979
 1065WAT     H2 3438   8.969   5.365   8.986
 1066WAT      O 3439   0.008   8.149   9.561
 1066WAT     H1 3440   0.017   8.130   9.658
 1066WAT     H2 3441  -0.082   8.121   9.529
 1067WAT      O 3442   6.212   5.392   2.458
 1067WAT     H1 3443   6.185   5.398   2.554
 1067WAT     H2 3444   6.307   5.361   2.451
 1068WAT      O 3445   9.788   8.405   4.669
 1068WAT     H1 3446   9.887   8.408   4.679
 1068WAT     H2 3447   9.763   8.430   4.576
 1069WAT      O 3448   4.743   2.617   4.475
 1069WAT     H1 3449   4.652   2.611   4.516
 1069WAT     H2 3450   4.811   2.636   4.546
 1070WAT      O 3451   4.789   9.791   4.167
 1070WAT     H1 3452   4.742   9.726   4.107
 1070WAT     H2 3453   4.832   9.862   4.112
 1071WAT      O 3454   9.215   4.237   8.059
 1071WAT     H1 3455   9.199   4.332   8.087
 1071WAT     H2 3456   9.159   4.176   8.115
 1072WAT      O 3457   0.242   3.744   1.072
 1072WAT     H1 3458   0.162   3.782   1.025
 1072WAT     H2 3459   0.212   3.691   1.152
 1073WAT      O 3460   7.604   4.547   9.194
 1073WAT     H1 3461   7.624   4.454   9.163
 1073WAT     H2 3462   7.654   4.564   9.279
 1074WAT      O 3463   3.823   0.603   6.189
 1074WAT     H1 3464   3.825   0.698   6.221
 1074WAT     H2 3465   3.729   0.570   6.188
 1075WAT      O 3466   9.672   0.615   2.196
 1075WAT     H1 3467   9.692   0.517   2.195
 1075WAT     H2 3468   9.601   0.635   2.128
 1076WAT      O 3469   6.409   7.109   8.054
 1076WAT     H1 3470   6.498   7.065   8.041
 1076WAT     H2 3471   6.337   7.039   8.053
 1077WAT      O 3472   7.325   5.311   6.839
 1077WAT     H1 3473   7.363   5.364   6.764
 1077WAT     H2 3474   7.272   5.234   6.803
 1078WAT      O 3475   1.891   6.904   4.996
 1078WAT     H1 3476   1.854   6.869   4.910
 1078WAT     H2 3477   1.973   6.958   4.976
 1079WAT      O 3478   8.790   0.734   3.030
 1079WAT     H1 3479   8.863   0.710   2.967
 1079WAT     H2 3480   8.800   0.829   3.058
 1080WAT      O 3481   4.029   6.940   3.118
 1080WAT     H1 3482   3.980   6.918   3.034
 1080WAT     H2 3483   4.126   6.948   3.099
 1081WAT      O 3484   3.264   7.837   0.403
 1081WAT     H1 3485   3.248   7.746   0.441
 1081WAT     H2 3486   3.353   7.871   0.434
 1082WAT      O 3487   3.286   5.643   2.719
 1082WAT     H1 3488   3.268   5.578   2.645
 1082WAT     H2 3489   3.200   5.662   2.767
 1083WAT      O 3490   6.223   1.647   5.338
 1083WAT     H1 3491   6.185   1.559   5.308
 1083WAT     H2 3492   6.290   1.632   5.411
 1084WAT      O 3493   6.419   9.080   8.187
 1084WAT     H1 3494   6.415   9.121   8.278
 1084WAT     H2 3495   6.326   9.059   8.156
 1085WAT      O 3496   8.106   5.776   8.415
 1085WAT     H1 3497   8.172   5.850   8.429
 1085WAT     H2 3498   8.037   5.779   8.487
 1086WAT      O 3499   2.978   1.017   0.323
 1086WAT     H1 3500   2.983   1.024   0.422
 1086WAT     H2 3501   2.889   0.980   0.296
 1087WAT      O 3502   0.874   6.936   2.933
 1087WAT     H1 3503   0.872   6.863   2.864
 1087WAT     H2 3504   0.818   7.012   2.903
 1088WAT      O 3505   7.228   4.913   2.771
 1088WAT     H1 3506   7.187   4.836   2.722
 1088WAT     H2 3507   7.327   4.912   2.758
 1089WAT      O 3508   8.746   8.925   7.752
 1089WAT     H1 3509   8.700   8.869   7.683
 1089WAT     H2 3510   8.845   8.913   7.743
 1090WAT      O 3511   3.354   5.346   0.607
 1090WAT     H1 3512   3.439   5.320   0.653
 1090WAT     H2 3513   3.276   5.318   0.662
 1091WAT      O 3514   0.189   7.553   3.469
 1091WAT     H1 3515   0.098   7.512   3.466
 1091WAT     H2 3516   0.245   7.505   3.536
 1092WAT      O 3517   9.348   9.448   3.293
 1092WAT     H1 3518   9.387   9.466   3.202
 1092WAT     H2 3519   9.414   9.397   3.348
 1093WAT      O 3520   7.237   3.846   9.769
 1093WAT     H1 3521   7.241   3.758   9.816
 1093WAT     H2 3522   7.286   3.840   9.683
 1094WAT      O 3523   1.957   8.883   5.042
 1094WAT     H1 3524   1.909   8.795   5.048
 1094WAT     H2 3525   2.002   8.903   5.129
 1095WAT      O 3526   5.606   2.460   4.565
 1095WAT     H1 3527   5.573   2.554   4.575
 1095WAT     H2 3528   5.623   2.421   4.656
 1096WAT      O 3529   1.843   4.559   4.750
 1096WAT     H1 3530   1.837   4.594   4.844
 1096WAT     H2 3531   1.915   4.490   4.745
 1097WAT      O 3532   5.802   6.616   2.017
 1097WAT     H1 3533   5.837   6.569   1.935
 1097WAT     H2 3534   5.863   6.691   2.040
 1098WAT      O 3535   0.746   2.598   2.723
 1098WAT     H1 3536   0.780   2.634   2.810
 1098WAT     H2 3537   0.712   2.505   2.737
 1099WAT      O 3538   8.812   1.689   4.452
 1099WAT     H1 3539   8.721   1.649   4.438
 1099WAT     H2 3540   8.805   1.788   4.454
 1100WAT      O 3541   8.223   7.932   2.916
 1100WAT     H1 3542   8.267   7.849   2.883
 1100WAT     H2 3543   8.293   7.998   2.943
 1101WAT      O 3544   4.188   8.675   9.650
 1101WAT     H1 3545   4.186   8.620   9.566
 1101WAT     H2 3546   4.102   8.662   9.700
 1102WAT      O 3547   0.407   4.759   7.628
 1102WAT     H1 3548   0.347   4.686   7.596
 1102WAT     H2 3549   0.483   4.771   7.564
 1103WAT      O 3550   5.970   7.799   4.721
 1103WAT     H1 3551   6.024   7.809   4.804
 1103WAT     H2 3552   5.886   7.749   4.742
 1104WAT      O 3553   6.103   7.270   9.497
 1104WAT     H1 3554   6.125   7.256   9.400
 1104WAT     H2 3555   6.052   7.192   9.531
 1105WAT      O 3556   2.509   2.005   2.987
 1105WAT     H1 3557   2.489   2.029   3.082
 1105WAT     H2 3558   2.484   2.080   2.927
 1106WAT      O 3559   5.286   7.257   5.880
 1106WAT     H1 3560   5.265   7.171   5.927
 1106WAT     H2 3561   5.232   7.331   5.920
 1107WAT      O 3562   0.540   1.724   4.311
 1107WAT     H1 3563   0.600   1.804   4.306
 1107WAT     H2 3564   0.457   1.748   4.362
 1108WAT      O 3565   8.740   5.812   3.358
 1108WAT     H1 3566   8.763   5.727   3.312
 1108WAT     H2 3567   8.640   5.819   3.367
 1109WAT      O 3568   4.188   2.784   5.269
 1109WAT     H1 3569   4.152   2.691   5.264
 1109WAT     H2 3570   4.252   2.799   5.194
 1110WAT      O 3571   1.760   1.266   2.399
 1110WAT     H1 3572   1.853   1.230   2.412
 1110WAT     H2 3573   1.751   1.301   2.306
 1111WAT      O 3574   4.708   2.422   9.756
 1111WAT     H1 3575   4.731   2.372   9.839
 1111WAT     H2 3576   4.728   2.366   9.676
 1112WAT      O 3577   1.112   8.840   2.801
 1112WAT     H1 3578   1.077   8.748   2.820
 1112WAT     H2 3579   1.076   8.872   2.713
 1113WAT      O 3580   0.519   4.517   6.411
 1113WAT     H1 3581   0.555   4.585   6.348
 1113WAT     H2 3582   0.420   4.506   6.396
 1114WAT      O 3583   5.159   2.081   7.036
 1114WAT     H1 3584   5.247   2.118   7.007
 1114WAT     H2 3585   5.089   2.104   6.969
 1115WAT      O 3586   6.530   4.735   0.418
 1115WAT     H1 3587   6.533   4.667   0.491
 1115WAT     H2 3588   6.606   4.719   0.355
 1116WAT      O 3589   9.240   7.398   5.755
 1116WAT     H1 3590   9.276   7.363   5.841
 1116WAT     H2 3591   9.183   7.478   5.772
 1117WAT      O 3592   4.849   8.279   9.287
 1117WAT     H1 3593   4.949   8.285   9.291
 1117WAT     H2 3594   4.813   8.265   9.379
 1118WAT      O 3595   0.679   7.927   9.406
 1118WAT     H1 3596   0.750   7.890   9.346
 1118WAT     H2 3597   0.717   7.937   9.499
 1119WAT      O 3598   0.942   1.158   2.126
 1119WAT     H1 3599   1.041   1.145   2.134
 1119WAT     H2 3600   0.920   1.191   2.034
 1120WAT      O 3601   4.067   2.834   6.086
 1120WAT     H1 3602   4.120   2.908   6.127
 1120WAT     H2 3603   4.103   2.746   6.117
 1121WAT      O 3604   3.747   1.449   4.948
 1121WAT     H1 3605   3.701   1.455   5.037
 1121WAT     H2 3606   3.816   1.522   4.942
 1122WAT      O 3607   6.609   4.504   3.883
 1122WAT     H1 3608   6.613   4.455   3.796
 1122WAT     H2 3609   6.617   4.602   3.867
 1123WAT      O 3610   7.033   4.207   9.554
 1123WAT     H1 3611   7.053   4.124   9.502
 1123WAT     H2 3612   6.938   4.206   9.584
 1124WAT      O 3613   9.218   0.817   5.163
 1124WAT     H1 3614   9.262   0.728   5.160
 1124WAT     H2 3615   9.131   0.810   5.211
 1125WAT      O 3616   6.758   6.022   1.679
 1125WAT     H1 3617   6.696   6.089   1.638
 1125WAT     H2 3618   6.741   6.016   1.777
 1126WAT      O 3619   9.449   9.499   3.725
 1126WAT     H1 3620   9.363   9.523   3.679
 1126WAT     H2 3621   9.441   9.407   3.763
 1127WAT      O 3622   9.854   5.538   2.614
 1127WAT     H1 3623   9.769   5.484   2.616
 1127WAT     H2 3624   9.914   5.503   2.542
 1128WAT      O 3625   8.836   5.549   0.016
 1128WAT     H1 3626   8.904   5.539   0.088
 1128WAT     H2 3627   8.745   5.558   0.058
 1129WAT      O 3628   0.016   2.062   1.310
 1129WAT     H1 3629  -0.083   2.055   1.323
 1129WAT     H2 3630   0.044   1.999   1.238
 1130WAT      O 3631   4.472   7.010   6.587
 1130WAT     H1 3632   4.505   7.048   6.500
 1130WAT     H2 3633   4.453   7.085   6.651
 1131WAT      O 3634   0.928   2.167   3.872
 1131WAT     H1 3635   0.961   2.253   3.833
 1131WAT     H2 3636   0.829   2.161   3.860
 1132WAT      O 3637   0.093   2.053   4.705
 1132WAT     H1 3638   0.043   2.098   4.779
 1132WAT     H2 3639   0.124   1.962   4.735
 1133WAT      O 3640   7.543   3.992   3.392
 1133WAT     H1 3641   7.499   4.045   3.320
 1133WAT     H2 3642   7.612   4.048   3.438
 1134WAT      O 3643   1.330   5.951   5.207
 1134WAT     H1 3644   1.276   5.947   5.123
 1134WAT     H2 3645   1.309   6.036   5.256
 1135WAT      O 3646   7.967   1.604   7.186
 1135WAT     H1 3647   7.919   1.691   7.201
 1135WAT     H2 3648   7.900   1.531   7.175
 1136WAT      O 3649   0.454   3.356   2.924
 1136WAT     H1 3650   0.376   3.412   2.948
 1136WAT     H2 3651   0.533   3.415   2.904
 1137WAT      O 3652   8.327   0.427   9.174
 1137WAT     H1 3653   8.375   0.482   9.242
 1137WAT     H2 3654   8.243   0.474   9.146
 1138WAT      O 3655   4.650   8.871   2.691
 1138WAT     H1 3656   4.750   8.866   2.685
 1138WAT     H2 3657   4.624   8.949   2.747
 1139WAT      O 3658   1.103   9.613   9.884
 1139WAT     H1 3659   1.157   9.696   9.875
 1139WAT     H2 3660   1.033   9.611   9.812
 1140WAT      O 3661   4.490   2.027   4.608
 1140WAT     H1 3662   4.556   1.997   4.539
 1140WAT     H2 3663   4.399   1.996   4.581
 1141WAT      O 3664   7.000   5.211   2.598
 1141WAT     H1 3665   7.046   5.144   2.540
 1141WAT     H2 3666   6.968   5.288   2.542
 1142WAT      O 3667   9.150   5.989   4.320
 1142WAT     H1 3668   9.232   5.970   4.267
 1142WAT     H2 3669   9.158   5.948   4.411
 1143WAT      O 3670   9.739   6.350   0.279
 1143WAT     H1 3671   9.746   6.395   0.368
 1143WAT     H2 3672   9.820   6.294   0.263
 1144WAT      O 3673   2.674   9.156   2.353
 1144WAT     H1 3674   2.637   9.064   2.346
 1144WAT     H2 3675   2.643   9.211   2.275
 1145WAT      O 3676   1.783   0.492   8.919
 1145WAT     H1 3677   1.828   0.547   8.849
 1145WAT     H2 3678   1.819   0.399   8.918
 1146WAT      O 3679   8.866   9.619   5.570
 1146WAT     H1 3680   8.803   9.541   5.575
 1146WAT     H2 3681   8.823   9.700   5.609
 1147WAT      O 3682   4.743   7.137   7.637
 1147WAT     H1 3683   4.793   7.223   7.634
 1147WAT     H2 3684   4.807   7.061   7.627
 1148WAT      O 3685   5.316   8.700   6.737
 1148WAT     H1 3686   5.294   8.792   6.768
 1148WAT     H2 3687   5.240   8.663   6.684
 1149WAT      O 3688   6.392   7.159   6.356
 1149WAT     H1 3689   6.454   7.082   6.371
 1149WAT     H2 3690   6.305   7.125   6.321
 1150WAT      O 3691   5.187   3.139   4.077
 1150WAT     H1 3692   5.262   3.090   4.032
 1150WAT     H2 3693   5.188   3.235   4.048
 1151WAT      O 3694   9.174   1.184   7.066
 1151WAT     H1 3695   9.116   1.244   7.011
 1151WAT     H2 3696   9.175   1.216   7.161
 1152WAT      O 3697   7.227   6.580   8.933
 1152WAT     H1 3698   7.313   6.595   8.886
 1152WAT     H2 3699   7.237   6.604   9.030
 1153WAT      O 3700   8.361   7.204   2.265
 1153WAT     H1 3701   8.277   7.198   2.211
 1153WAT     H2 3702   8.390   7.112   2.292
 1154WAT      O 3703   0.976   4.594   0.180
 1154WAT     H1 3704   0.972   4.524   0.251
 1154WAT     H2 3705   1.001   4.682   0.221
 1155WAT      O 3706   8.061   5.017   0.404
 1155WAT     H1 3707   8.040   4.976   0.493
 1155WAT     H2 3708   8.022   4.961   0.331
 1156WAT      O 3709   5.852   8.846   5.087
 1156WAT     H1 3710   5.778   8.785   5.061
 1156WAT     H2 3711   5.916   8.798   5.146
 1157WAT      O 3712   8.656   2.308   6.515
 1157WAT     H1 3713   8.589   2.236   6.494
 1157WAT     H2 3714   8.687   2.351   6.430
 1158WAT      O 3715   3.663   4.922   7.242
 1158WAT     H1 3716   3.643   4.873   7.327
 1158WAT     H2 3717   3.730   4.994   7.259
 1159WAT      O 3718   2.144   9.332   7.467
 1159WAT     H1 3719   2.059   9.279   7.470
 1159WAT     H2 3720   2.166   9.355   7.372
 1160WAT      O 3721   6.510   0.863   1.981
 1160WAT     H1 3722   6.475   0.948   1.942
 1160WAT     H2 3723   6.487   0.787   1.920
 1161WAT      O 3724   3.148   0.023   3.697
 1161WAT     H1 3725   3.139   0.120   3.716
 1161WAT     H2 3726   3.067  -0.025   3.730
 1162WAT      O 3727   2.913   9.146   5.406
 1162WAT     H1 3728   2.880   9.216   5.469
 1162WAT     H2 3729   2.836   9.089   5.376
 1163WAT      O 3730   6.297   0.705   5.662
 1163WAT     H1 3731   6.356   0.785   5.650
 1163WAT     H2 3732   6.214   0.716   5.608
 1164WAT      O 3733   2.221   6.704   4.768
 1164WAT     H1 3734   2.151   6.633   4.772
 1164WAT     H2 3735   2.268   6.709   4.856
 1165WAT      O 3736   1.287   1.466   2.451
 1165WAT     H1 3737   1.254   1.455   2.545
 1165WAT     H2 3738   1.210   1.473   2.388
 1166WAT      O 3739   4.423   3.538   7.940
 1166WAT     H1 3740   4.510   3.585   7.930
 1166WAT     H2 3741   4.363   3.562   7.864
 1167WAT      O 3742   4.232   0.868   3.420
 1167WAT     H1 3743   4.257   0.888   3.514
 1167WAT     H2 3744   4.255   0.946   3.362
 1168WAT      O 3745   0.731   5.734   5.421
 1168WAT     H1 3746   0.706   5.737   5.324
 1168WAT     H2 3747   0.814   5.679   5.432
 1169WAT      O 3748   4.954   4.403   4.403
 1169WAT     H1 3749   4.859   4.433   4.404
 1169WAT     H2 3750   4.977   4.370   4.311
 1170WAT      O 3751   8.312   4.654   1.262
 1170WAT     H1 3752   8.231   4.708   1.284
 1170WAT     H2 3753   8.290   4.557   1.268
 1171WAT      O 3754   6.591   9.023   0.832
 1171WAT     H1 3755   6.652   9.101   0.815
 1171WAT     H2 3756   6.565   9.022   0.928
 1172WAT      O 3757   4.139   9.580   2.511
 1172WAT     H1 3758   4.122   9.483   2.494
 1172WAT     H2 3759   4.108   9.634   2.433
 1173WAT      O 3760   2.979   8.872   3.974
 1173WAT     H1 3761   2.986   8.829   4.064
 1173WAT     H2 3762   2.883   8.887   3.951
 1174WAT      O 3763   3.761   3.958   9.603
 1174WAT     H1 3764   3.717   3.873   9.574
 1174WAT     H2 3765   3.810   3.943   9.689
 1175WAT      O 3766   5.768   5.100   9.614
 1175WAT     H1 3767   5.683   5.117   9.564
 1175WAT     H2 3768   5.770   5.159   9.696
 1176WAT      O 3769   6.245   7.962   1.125
 1176WAT     H1 3770   6.186   8.040   1.108
 1176WAT     H2 3771   6.221   7.887   1.063
 1177WAT      O 3772   7.627   3.319   6.702
 1177WAT     H1 3773   7.530   3.323   6.679
 1177WAT     H2 3774   7.681   3.309   6.618
 1178WAT      O 3775   5.019   7.099   1.358
 1178WAT     H1 3776   5.008   7.146   1.270
 1178WAT     H2 3777   4.989   7.160   1.432
 1179WAT      O 3778   1.032   5.413   4.187
 1179WAT     H1 3779   1.114   5.428   4.243
 1179WAT     H2 3780   1.046   5.456   4.098
 1180WAT      O 3781   8.077   1.845   3.353
 1180WAT     H1 3782   8.055   1.844   3.451
 1180WAT     H2 3783   8.153   1.907   3.337
 1181WAT      O 3784   6.009   8.733   5.297
 1181WAT     H1 3785   6.065   8.782   5.364
 1181WAT     H2 3786   5.994   8.639   5.328
 1182WAT      O 3787   6.025   8.843   1.781
 1182WAT     H1 3788   6.027   8.838   1.681
 1182WAT     H2 3789   6.030   8.750   1.819
 1183WAT      O 3790   4.721   0.393   2.095
 1183WAT     H1 3791   4.714   0.491   2.075
 1183WAT     H2 3792   4.631   0.359   2.124
 1184WAT      O 3793   7.899   0.535   1.619
 1184WAT     H1 3794   7.896   0.635   1.628
 1184WAT     H2 3795   7.824   0.504   1.561
 1185WAT      O 3796   6.120   7.339   8.730
 1185WAT     H1 3797   6.203   7.284   8.744
 1185WAT     H2 3798   6.145   7.436   8.722
 1186WAT      O 3799   1.830   4.930   1.466
 1186WAT     H1 3800   1.773   4.848   1.469
 1186WAT     H2 3801   1.887   4.929   1.385
 1187WAT      O 3802   2.770   8.992   1.157
 1187WAT     H1 3803   2.680   8.953   1.172
 1187WAT     H2 3804   2.769   9.046   1.072
 1188WAT      O 3805   6.079   5.258   2.019
 1188WAT     H1 3806   6.166   5.226   1.981
 1188WAT     H2 3807   6.015   5.277   1.944
 1189WAT      O 3808   2.326   4.834   1.185
 1189WAT     H1 3809   2.285   4.880   1.106
 1189WAT     H2 3810   2.414   4.876   1.205
 1190WAT      O 3811   5.815   3.063   0.983
 1190WAT     H1 3812   5.780   3.033   1.072
 1190WAT     H2 3813   5.913   3.043   0.978
 1191WAT      O 3814   0.498   6.090   6.363
 1191WAT     H1 3815   0.568   6.161   6.376
 1191WAT     H2 3816   0.419   6.130   6.317
 1192WAT      O 3817   9.038   8.840   9.773
 1192WAT     H1 3818   9.125   8.823   9.820
 1192WAT     H2 3819   8.964   8.794   9.822
 1193WAT      O 3820   2.131   1.324   0.930
 1193WAT     H1 3821   2.220   1.309   0.973
 1193WAT     H2 3822   2.119   1.421   0.912
 1194WAT      O 3823   1.969   5.719   3.981
 1194WAT     H1 3824   2.057   5.724   3.932
 1194WAT     H2 3825   1.896   5.699   3.916
 1195WAT      O 3826   6.777   7.449   5.493
 1195WAT     H1 3827   6.771   7.372   5.430
 1195WAT     H2 3828   6.870   7.453   5.532
 1196WAT      O 3829   9.708   4.142   1.180
 1196WAT     H1 3830   9.680   4.216   1.240
 1196WAT     H2 3831   9.682   4.163   1.085
 1197WAT      O 3832   4.367   5.021   9.504
 1197WAT     H1 3833   4.457   4.995   9.470
 1197WAT     H2 3834   4.329   4.945   9.558
 1198WAT      O 3835   5.589   2.083   7.750
 1198WAT     H1 3836   5.514   2.122   7.697
 1198WAT     H2 3837   5.599   2.133   7.835
 1199WAT      O 3838   1.016   6.725   0.917
 1199WAT     H1 3839   0.954   6.704   0.841
 1199WAT     H2 3840   1.042   6.821   0.913
 1200WAT      O 3841   5.709   8.086   4.040
 1200WAT     H1 3842   5.667   8.081   3.950
 1200WAT     H2 3843   5.657   8.031   4.106
 1201WAT      O 3844   6.458   0.660   1.758
 1201WAT     H1 3845   6.546   0.687   1.717
 1201WAT     H2 3846   6.455   0.560   1.767
 1202WAT      O 3847   7.507   1.555   3.291
 1202WAT     H1 3848   7.581   1.489   3.307
 1202WAT     H2 3849   7.421   1.506   3.280
 1203WAT      O 3850   6.737   6.487   8.207
 1203WAT     H1 3851   6.789   6.404   8.188
 1203WAT     H2 3852   6.748   6.551   8.132
 1204WAT      O 3853   4.185   8.970   8.362
 1204WAT     H1 3854   4.103   8.972   8.419
 1204WAT     H2 3855   4.266   8.978   8.420
 1205WAT      O 3856   5.838   9.658   0.016
 1205WAT     H1 3857   5.787   9.672   0.101
 1205WAT     H2 3858   5.930   9.696   0.026
 1206WAT      O 3859   8.413   3.711   0.691
 1206WAT     H1 3860   8.400   3.682   0.786
 1206WAT     H2 3861   8.367   3.798   0.676
 1207WAT      O 3862   8.960   2.160   5.324
 1207WAT     H1 3863   8.961   2.146   5.423
 1207WAT     H2 3864   8.982   2.075   5.277
 1208WAT      O 3865   7.420   4.205   2.658
 1208WAT     H1 3866   7.440   4.297   2.625
 1208WAT     H2 3867   7.500   4.167   2.704
 1209WAT      O 3868   4.113   6.717   5.361
 1209WAT     H1 3869   4.164   6.640   5.323
 1209WAT     H2 3870   4.042   6.745   5.296
 1210WAT      O 3871   9.551   4.469   5.401
 1210WAT     H1 3872   9.576   4.479   5.304
 1210WAT     H2 3873   9.553   4.372   5.425
 1211WAT      O 3874   9.010   4.805   7.923
 1211WAT     H1 3875   9.022   4.768   7.831
 1211WAT     H2 3876   8.913   4.801   7.948
 1212WAT      O 3877   3.004   6.924   0.435
 1212WAT     H1 3878   2.904   6.917   0.437
 1212WAT     H2 3879   3.042   6.845   0.389
 1213WAT      O 3880   4.749   0.657   3.563
 1213WAT     H1 3881   4.768   0.658   3.661
 1213WAT     H2 3882   4.749   0.751   3.529
 1214WAT      O 3883   7.360   2.157   2.656
 1214WAT     H1 3884   7.361   2.156   2.756
 1214WAT     H2 3885   7.277   2.111   2.624
 1215WAT      O 3886   8.242   0.597   5.948
 1215WAT     H1 3887   8.150   0.591   5.909
 1215WAT     H2 3888   8.291   0.672   5.905
 1216WAT      O 3889   6.950   2.567   5.812
 1216WAT     H1 3890   6.907   2.617   5.737
 1216WAT     H2 3891   6.996   2.632   5.873
 1217WAT      O 3892   2.480   8.459   8.594
 1217WAT     H1 3893   2.380   8.461   8.585
 1217WAT     H2 3894   2.513   8.366   8.575
 1218WAT      O 3895   6.703   0.556   2.199
 1218WAT     H1 3896   6.604   0.549   2.212
 1218WAT     H2 3897   6.725   0.648   2.166
 1219WAT      O 3898   5.176   7.213   9.080
 1219WAT     H1 3899   5.100   7.154   9.109
 1219WAT     H2 3900   5.251   7.205   9.146
 1220WAT      O 3901   4.888   8.130   4.874
 1220WAT     H1 3902   4.960   8.188   4.913
 1220WAT     H2 3903   4.841   8.081   4.947
 1221WAT      O 3904   6.484   8.650   6.122
 1221WAT     H1 3905   6.422   8.598   6.180
 1221WAT     H2 3906   6.488   8.745   6.155
 1222WAT      O 3907   9.019   8.576   5.757
 1222WAT     H1 3908   9.040   8.667   5.721
 1222WAT     H2 3909   9.103   8.524   5.766
 1223WAT      O 3910   1.669   5.903   5.555
 1223WAT     H1 3911   1.588   5.868   5.602
 1223WAT     H2 3912   1.723   5.959   5.618
 1224WAT      O 3913   4.790   4.556   4.124
 1224WAT     H1 3914   4.744   4.523   4.206
 1224WAT     H2 3915   4.867   4.614   4.149
 1225WAT      O 3916   9.594   3.397   2.921
 1225WAT     H1 3917   9.513   3.381   2.977
 1225WAT     H2 3918   9.676   3.389   2.977
 1226WAT      O 3919   1.120   7.481   0.457
 1226WAT     H1 3920   1.191   7.547   0.480
 1226WAT     H2 3921   1.048   7.526   0.404
 1227WAT      O 3922   8.266   9.050   2.812
 1227WAT     H1 3923   8.301   8.993   2.737
 1227WAT     H2 3924   8.174   9.021   2.836
 1228WAT      O 3925   4.474   6.230   1.481
 1228WAT     H1 3926   4.438   6.315   1.444
 1228WAT     H2 3927   4.403   6.184   1.535
 1229WAT      O 3928   2.138   3.567   8.676
 1229WAT     H1 3929   2.099   3.599   8.590
 1229WAT     H2 3930   2.202   3.635   8.712
 1230WAT      O 3931   2.223   2.733   6.078
 1230WAT     H1 3932   2.172   2.651   6.104
 1230WAT     H2 3933   2.262   2.720   5.987
 1231WAT      O 3934   0.660   6.700   7.485
 1231WAT     H1 3935   0.643   6.760   7.406
 1231WAT     H2 3936   0.714   6.750   7.553
 1232WAT      O 3937   3.626   9.186   9.842
 1232WAT     H1 3938   3.585   9.123   9.909
 1232WAT     H2 3939   3.671   9.132   9.770
 1233WAT      O 3940   4.436   7.076   1.752
 1233WAT     H1 3941   4.534   7.055   1.756
 1233WAT     H2 3942   4.387   6.996   1.718
 1234WAT      O 3943   3.071   6.803   9.689
 1234WAT     H1 3944   3.141   6.808   9.618
 1234WAT     H2 3945   2.997   6.743   9.659
 1235WAT      O 3946   7.868   6.717   0.357
 1235WAT     H1 3947   7.925   6.728   0.275
 1235WAT     H2 3948   7.791   6.656   0.337
 1236WAT      O 3949   8.347   9.254   9.204
 1236WAT     H1 3950   8.326   9.275   9.109
 1236WAT     H2 3951   8.359   9.338   9.256
 1237WAT      O 3952   2.870   9.216   7.564
 1237WAT     H1 3953   2.909   9.212   7.472
 1237WAT     H2 3954   2.773   9.193   7.560
 1238WAT      O 3955   5.923   5.823   6.741
 1238WAT     H1 3956   6.013   5.866   6.756
 1238WAT     H2 3957   5.856   5.866   6.802
 1239WAT      O 3958   9.849   0.079   4.767
 1239WAT     H1 3959   9.826   0.022   4.846
 1239WAT     H2 3960   9.816   0.172   4.783
 1240WAT      O 3961   3.506   1.038   3.653
 1240WAT     H1 3962   3.532   1.041   3.750
 1240WAT     H2 3963   3.437   1.108   3.635
 1241WAT      O 3964   6.480   2.562   4.201
 1241WAT     H1 3965   6.462   2.480   4.145
 1241WAT     H2 3966   6.464   2.540   4.297
 1242WAT      O 3967   6.337   0.770   4.398
 1242WAT     H1 3968   6.255   0.799   4.448
 1242WAT     H2 3969   6.410   0.751   4.464
 1243WAT      O 3970   8.101   2.115   3.544
 1243WAT     H1 3971   8.007   2.087   3.560
 1243WAT     H2 3972   8.162   2.037   3.555
 1244WAT      O 3973   6.527   2.594   7.095
 1244WAT     H1 3974   6.606   2.578   7.155
 1244WAT     H2 3975   6.474   2.671   7.130
 1245WAT      O 3976   4.400   2.350   6.710
 1245WAT     H1 3977   4.455   2.395   6.780
 1245WAT     H2 3978   4.431   2.256   6.697
 1246WAT      O 3979   4.484   5.358   7.977
 1246WAT     H1 3980   4.555   5.291   7.997
 1246WAT     H2 3981   4.504   5.404   7.891
 1247WAT      O 3982   0.388   6.807   3.304
 1247WAT     H1 3983   0.295   6.774   3.293
 1247WAT     H2 3984   0.393   6.903   3.278
 1248WAT      O 3985   2.156   8.385   1.070
 1248WAT     H1 3986   2.129   8.296   1.107
 1248WAT     H2 3987   2.255   8.384   1.053
 1249WAT      O 3988   2.014   3.572   7.469
 1249WAT     H1 3989   2.084   3.630   7.510
 1249WAT     H2 3990   2.055   3.512   7.401
 1250WAT      O 3991   7.171   1.408   6.667
 1250WAT     H1 3992   7.209   1.488   6.621
 1250WAT     H2 3993   7.244   1.358   6.714
 1251WAT      O 3994   4.131   6.377   3.414
 1251WAT     H1 3995   4.039   6.340   3.410
 1251WAT     H2 3996   4.152   6.406   3.507
 1252WAT      O 3997   4.253   9.593   4.668
 1252WAT     H1 3998   4.159   9.585   4.702
 1252WAT     H2 3999   4.299   9.670   4.714
 1253WAT      O 4000   9.783   9.799   0.194
 1253WAT     H1 4001   9.859   9.773   0.253
 1253WAT     H2 4002   9.746   9.718   0.149
 1254WAT      O 4003   2.660   1.177   3.364
 1254WAT     H1 4004   2.643   1.116   3.441
 1254WAT     H2 4005   2.590   1.162   3.294
 1255WAT      O 4006   1.721   6.215   1.407
 1255WAT     H1 4007   1.741   6.120   1.383
 1255WAT     H2 4008   1.674   6.259   1.331
 1256WAT      O 4009   3.381   2.817   2.181
 1256WAT     H1 4010   3.338   2.730   2.155
 1256WAT     H2 4011   3.340   2.850   2.266
 1257WAT      O 4012   1.566   8.227   5.766
 1257WAT     H1 4013   1.473   8.265   5.773
 1257WAT     H2 4014   1.599   8.236   5.672
 1258WAT      O 4015   9.472   5.143   1.824
 1258WAT     H1 4016   9.545   5.183   1.879
 1258WAT     H2 4017   9.454   5.201   1.745
 1259WAT      O 4018   9.564   6.480   7.859
 1259WAT     H1 4019   9.565   6.436   7.948
 1259WAT     H2 4020   9.656   6.480   7.820
 1260WAT      O 4021   7.790   8.692   9.873
 1260WAT     H1 4022   7.740   8.620   9.919
 1260WAT     H2 4023   7.767   8.694   9.776
 1261WAT      O 4024   7.499   6.426   9.116
 1261WAT     H1 4025   7.405   6.458   9.103
 1261WAT     H2 4026   7.524   6.435   9.213
 1262WAT      O 4027   7.344   9.511   2.230
 1262WAT     H1 4028   7.342   9.411   2.227
 1262WAT     H2 4029   7.299   9.543   2.314
 1263WAT      O 4030   5.467   8.186   4.662
 1263WAT     H1 4031   5.464   8.148   4.570
 1263WAT     H2 4032   5.557   8.228   4.678
 1264WAT      O 4033   1.737   3.791   7.974
 1264WAT     H1 4034   1.825   3.758   8.008
 1264WAT     H2 4035   1.740   3.890   7.965
 1265WAT      O 4036   9.178   2.092   2.715
 1265WAT     H1 4037   9.078   2.087   2.714
 1265WAT     H2 4038   9.213   2.071   2.624
 1266WAT      O 4039   4.710   1.453   3.216
 1266WAT     H1 4040   4.791   1.501   3.182
 1266WAT     H2 4041   4.731   1.355   3.226
 1267WAT      O 4042   6.067   3.904   3.098
 1267WAT     H1 4043   6.024   3.901   3.008
 1267WAT     H2 4044   6.128   3.825   3.108
 1268WAT      O 4045   6.378   2.221   1.803
 1268WAT     H1 4046   6.437   2.295   1.836
 1268WAT     H2 4047   6.427   2.167   1.735
 1269WAT      O 4048   6.937   7.642   1.065
 1269WAT     H1 4049   7.008   7.581   1.029
 1269WAT     H2 4050   6.901   7.603   1.150
 1270WAT      O 4051   9.671   0.063   3.942
 1270WAT     H1 4052   9.616   0.003   4.001
 1270WAT     H2 4053   9.762   0.074   3.982
 1271WAT      O 4054   4.601   1.148   6.314
 1271WAT     H1 4055   4.679   1.205   6.288
 1271WAT     H2 4056   4.624   1.094   6.395
 1272WAT      O 4057   6.293   6.709   3.173
 1272WAT     H1 4058   6.319   6.721   3.077
 1272WAT     H2 4059   6.197   6.734   3.185
 1273WAT      O 4060   9.387   7.829   1.866
 1273WAT     H1 4061   9.399   7.906   1.803
 1273WAT     H2 4062   9.362   7.747   1.814
 1274WAT      O 4063   3.196   5.081   4.206
 1274WAT     H1 4064   3.272   5.133   4.167
 1274WAT     H2 4065   3.171   5.120   4.295
 1275WAT      O 4066   8.084   5.785   7.074
 1275WAT     H1 4067   8.130   5.817   7.157
 1275WAT     H2 4068   8.144   5.796   6.995
 1276WAT      O 4069   4.879   1.258   8.791
 1276WAT     H1 4070   4.818   1.292   8.718
 1276WAT     H2 4071   4.947   1.196   8.752
 1277WAT      O 4072   5.309   3.711   5.457
 1277WAT     H1 4073   5.241   3.668   5.517
 1277WAT     H2 4074   5.346   3.792   5.503
 1278WAT      O 4075   6.798   8.853   3.717
 1278WAT     H1 4076   6.772   8.942   3.753
 1278WAT     H2 4077   6.840   8.863   3.627
 1279WAT      O 4078   8.301   6.399   6.076
 1279WAT     H1 4079   8.315   6.450   6.161
 1279WAT     H2 4080   8.205   6.406   6.049
 1280WAT      O 4081   3.339   2.807   3.893
 1280WAT     H1 4082   3.375   2.874   3.829
 1280WAT     H2 4083   3.293   2.854   3.968
 1281WAT      O 4084   2.889   6.505   4.417
 1281WAT     H1 4085   2.936   6.440   4.477
 1281WAT     H2 4086   2.855   6.457   4.336
 1282WAT      O 4087   4.995   9.556   7.297
 1282WAT     H1 4088   4.940   9.529   7.376
 1282WAT     H2 4089   4.940   9.613   7.236
 1283WAT      O 4090   7.119   1.236   8.714
 1283WAT     H1 4091   7.042   1.219   8.776
 1283WAT     H2 4092   7.120   1.333   8.689
 1284WAT      O 4093   9.752   3.135   6.277
 1284WAT     H1 4094   9.661   3.093   6.271
 1284WAT     H2 4095   9.803   3.115   6.194
 1285WAT      O 4096   8.515   3.368   6.664
 1285WAT     H1 4097   8.448   3.325   6.604
 1285WAT     H2 4098   8.539   3.458   6.628
 1286WAT      O 4099   4.699   2.337   2.905
 1286WAT     H1 4100   4.793   2.344   2.871
 1286WAT     H2 4101   4.685   2.404   2.978
 1287WAT      O 4102   4.929   7.856   2.058
 1287WAT     H1 4103   4.894   7.936   2.106
 1287WAT     H2 4104   4.983   7.800   2.120
 1288WAT      O 4105   8.132   1.569   6.976
 1288WAT     H1 4106   8.097   1.574   7.070
 1288WAT     H2 4107   8.067   1.615   6.914
 1289WAT      O 4108   7.503   1.817   2.558
 1289WAT     H1 4109   7.536   1.907   2.527
 1289WAT     H2 4110   7.512   1.751   2.484
 1290WAT      O 4111   1.359   4.472   0.577
 1290WAT     H1 4112   1.398   4.516   0.497
 1290WAT     H2 4113   1.325   4.541   0.641
 1291WAT      O 4114   3.026   2.784   8.383
 1291WAT     H1 4115   3.083   2.739   8.451
 1291WAT     H2 4116   2.966   2.716   8.339
 1292WAT      O 4117   1.979   9.076   9.328
 1292WAT     H1 4118   1.931   9.161   9.309
 1292WAT     H2 4119   1.913   9.004   9.350
 1293WAT      O 4120   3.936   6.862   8.169
 1293WAT     H1 4121   3.845   6.901   8.163
 1293WAT     H2 4122   3.947   6.792   8.099
 1294WAT      O 4123   9.716   2.571   7.748
 1294WAT     H1 4124   9.736   2.490   7.804
 1294WAT     H2 4125   9.802   2.610   7.713
 1295WAT      O 4126   0.163   2.737   5.968
 1295WAT     H1 4127   0.133   2.734   6.064
 1295WAT     H2 4128   0.262   2.723   5.964
 1296WAT      O 4129   6.669   6.382   0.707
 1296WAT     H1 4130   6.730   6.457   0.731
 1296WAT     H2 4131   6.680   6.359   0.610
 1297WAT      O 4132   6.578   0.461   1.239
 1297WAT     H1 4133   6.664   0.481   1.194
 1297WAT     H2 4134   6.534   0.547   1.267
 1298WAT      O 4135   1.373   6.937   0.193
 1298WAT     H1 4136   1.325   6.957   0.107
 1298WAT     H2 4137   1.400   6.841   0.194
 1299WAT      O 4138   0.061   1.207   6.644
 1299WAT     H1 4139  -0.038   1.203   6.656
 1299WAT     H2 4140   0.100   1.273   6.707
 1300WAT      O 4141   5.981   2.255   4.489
 1300WAT     H1 4142   6.022   2.199   4.416
 1300WAT     H2 4143   5.925   2.197   4.548
 1301WAT      O 4144   4.323   9.661   8.612
 1301WAT     H1 4145   4.358   9.695   8.699
 1301WAT     H2 4146   4.335   9.731   8.542
 1302WAT      O 4147   5.815   0.063   7.899
 1302WAT     H1 4148   5.854  -0.024   7.871
 1302WAT     H2 4149   5.801   0.121   7.819
 1303WAT      O 4150   2.067   2.600   7.525
 1303WAT     H1 4151   2.064   2.607   7.425
 1303WAT     H2 4152   1.995   2.658   7.564
 1304WAT      O 4153   4.939   3.289   0.428
 1304WAT     H1 4154   4.856   3.295   0.373
 1304WAT     H2 4155   5.017   3.266   0.370
 1305WAT      O 4156   1.176   7.883   8.641
 1305WAT     H1 4157   1.205   7.922   8.553
 1305WAT     H2 4158   1.179   7.783   8.635
 1306WAT      O 4159   9.413   5.656   9.655
 1306WAT     H1 4160   9.418   5.558   9.636
 1306WAT     H2 4161   9.350   5.672   9.731
 1307WAT      O 4162   4.851   1.680   7.602
 1307WAT     H1 4163   4.886   1.729   7.681
 1307WAT     H2 4164   4.805   1.596   7.633
 1308WAT      O 4165   6.012   2.746   4.395
 1308WAT     H1 4166   6.102   2.730   4.354
 1308WAT     H2 4167   5.959   2.661   4.392
 1309WAT      O 4168   6.154   7.006   6.531
 1309WAT     H1 4169   6.073   7.041   6.484
 1309WAT     H2 4170   6.184   6.921   6.487
 1310WAT      O 4171   5.450   1.918   4.443
 1310WAT     H1 4172   5.525   1.900   4.507
 1310WAT     H2 4173   5.455   2.014   4.413
 1311WAT      O 4174   3.561   7.153   6.394
 1311WAT     H1 4175   3.485   7.095   6.423
 1311WAT     H2 4176   3.635   7.097   6.358
 1312WAT      O 4177   0.509   9.322   6.871
 1312WAT     H1 4178   0.487   9.241   6.816
 1312WAT     H2 4179   0.602   9.313   6.907
 1313WAT      O 4180   9.009   8.400   9.367
 1313WAT     H1 4181   9.090   8.344   9.379
 1313WAT     H2 4182   8.994   8.456   9.448
 1314WAT      O 4183   5.607   3.776   2.732
 1314WAT     H1 4184   5.667   3.798   2.655
 1314WAT     H2 4185   5.532   3.717   2.700
 1315WAT      O 4186   6.443   5.189   4.739
 1315WAT     H1 4187   6.503   5.120   4.779
 1315WAT     H2 4188   6.439   5.176   4.640
 1316WAT      O 4189   5.586   7.546   5.718
 1316WAT     H1 4190   5.604   7.581   5.810
 1316WAT     H2 4191   5.638   7.462   5.704
 1317WAT      O 4192   0.882   8.792   9.798
 1317WAT     H1 4193   0.785   8.781   9.818
 1317WAT     H2 4194   0.913   8.881   9.833
 1318WAT      O 4195   7.653   0.612   5.680
 1318WAT     H1 4196   7.690   0.604   5.773
 1318WAT     H2 4197   7.553   0.608   5.684
 1319WAT      O 4198   4.019   4.681   8.071
 1319WAT     H1 4199   3.969   4.596   8.056
 1319WAT     H2 4200   3.990   4.749   8.003
 1320WAT      O 4201   0.255   4.585   4.534
 1320WAT     H1 4202   0.329   4.652   4.546
 1320WAT     H2 4203   0.265   4.541   4.445
 1321WAT      O 4204   5.836   9.447   0.427
 1321WAT     H1 4205   5.921   9.426   0.379
 1321WAT     H2 4206   5.806   9.365   0.477
 1322WAT      O 4207   8.489   8.338   8.305
 1322WAT     H1 4208   8.413   8.369   8.361
 1322WAT     H2 4209   8.575   8.356   8.352
 1323WAT      O 4210   3.457   1.532   3.682
 1323WAT     H1 4211   3.501   1.617   3.653
 1323WAT     H2 4212   3.358   1.541   3.670
 1324WAT      O 4213   4.926   8.974   1.544
 1324WAT     H1 4214   4.954   8.883   1.515
 1324WAT     H2 4215   4.837   8.996   1.505
 1325WAT      O 4216   2.554   2.020   3.271
 1325WAT     H1 4217   2.639   2.062   3.304
 1325WAT     H2 4218   2.569   1.922   3.256
 1326WAT      O 4219   9.058   5.859   6.339
 1326WAT     H1 4220   9.012   5.771   6.353
 1326WAT     H2 4221   9.098   5.890   6.425
 1327WAT      O 4222   6.453   4.324   6.634
 1327WAT     H1 4223   6.428   4.240   6.682
 1327WAT     H2 4224   6.370   4.377   6.615
 1328WAT      O 4225   1.789   0.711   4.572
 1328WAT     H1 4226   1.715   0.693   4.636
 1328WAT     H2 4227   1.816   0.807   4.578
 1329WAT      O 4228   3.535   8.412   8.346
 1329WAT     H1 4229   3.599   8.442   8.275
 1329WAT     H2 4230   3.583   8.355   8.412
 1330WAT      O 4231   6.753   3.090   2.459
 1330WAT     H1 4232   6.798   3.004   2.483
 1330WAT     H2 4233   6.757   3.103   2.360
 1331WAT      O 4234   4.540   1.415   3.575
 1331WAT     H1 4235   4.631   1.394   3.540
 1331WAT     H2 4236   4.495   1.331   3.605
 1332WAT      O 4237   5.196   2.483   2.421
 1332WAT     H1 4238   5.157   2.420   2.353
 1332WAT     H2 4239   5.123   2.517   2.481
 1333WAT      O 4240   7.891   2.123   4.020
 1333WAT     H1 4241   7.977   2.173   4.032
 1333WAT     H2 4242   7.816   2.188   4.011
 1334WAT      O 4243   6.552   7.994   3.893
 1334WAT     H1 4244   6.617   7.993   3.817
 1334WAT     H2 4245   6.459   8.006   3.858
 1335WAT      O 4246   5.368   2.872   4.035
 1335WAT     H1 4247   5.401   2.940   3.969
 1335WAT     H2 4248   5.444   2.842   4.093
 1336WAT      O 4249   0.586   6.133   3.916
 1336WAT     H1 4250   0.509   6.070   3.901
 1336WAT     H2 4251   0.551   6.220   3.949
 1337WAT      O 4252   6.762   7.921   3.200
 1337WAT     H1 4253   6.689   7.953   3.139
 1337WAT     H2 4254   6.721   7.885   3.284
 1338WAT      O 4255   8.673   3.571   9.738
 1338WAT     H1 4256   8.744   3.621   9.689
 1338WAT     H2 4257   8.671   3.600   9.834
 1339WAT      O 4258   6.782   1.433   8.641
 1339WAT     H1 4259   6.759   1.465   8.549
 1339WAT     H2 4260   6.698   1.411   8.691
 1340WAT      O 4261   5.282   8.966   3.004
 1340WAT     H1 4262   5.254   8.959   3.100
 1340WAT     H2 4263   5.361   8.907   2.988
 1341WAT      O 4264   0.166   0.186   0.645
 1341WAT     H1 4265   0.115   0.167   0.561
 1341WAT     H2 4266   0.106   0.232   0.711
 1342WAT      O 4267   2.042   8.781   7.664
 1342WAT     H1 4268   2.079   8.752   7.752
 1342WAT     H2 4269   1.980   8.859   7.678
 1343WAT      O 4270   7.340   7.297   0.331
 1343WAT     H1 4271   7.411   7.353   0.374
 1343WAT     H2 4272   7.252   7.345   0.339
 1344WAT      O 4273   1.009   1.516   4.593
 1344WAT     H1 4274   1.077   1.588   4.603
 1344WAT     H2 4275   0.987   1.478   4.683
 1345WAT      O 4276   3.969   2.511   3.797
 1345WAT     H1 4277   3.997   2.482   3.705
 1345WAT     H2 4278   3.915   2.438   3.839
 1346WAT      O 4279   9.206   3.032   6.160
 1346WAT     H1 4280   9.140   2.993   6.224
 1346WAT     H2 4281   9.168   3.115   6.119
 1347WAT      O 4282   4.794   7.627   9.333
 1347WAT     H1 4283   4.768   7.598   9.241
 1347WAT     H2 4284   4.817   7.724   9.332
 1348WAT      O 4285   7.903   1.525   2.189
 1348WAT     H1 4286   7.908   1.473   2.274
 1348WAT     H2 4287   7.832   1.594   2.195
 1349WAT      O 4288   0.820   4.499   1.854
 1349WAT     H1 4289   0.886   4.563   1.813
 1349WAT     H2 4290   0.865   4.411   1.871
 1350WAT      O 4291   8.218   4.478   2.982
 1350WAT     H1 4292   8.286   4.442   2.919
 1350WAT     H2 4293   8.252   4.562   3.025
 1351WAT      O 4294   3.154   4.101   0.356
 1351WAT     H1 4295   3.179   4.183   0.306
 1351WAT     H2 4296   3.108   4.127   0.441
 1352WAT      O 4297   5.545   4.913   0.216
 1352WAT     H1 4298   5.602   4.918   0.299
 1352WAT     H2 4299   5.493   4.998   0.206
 1353WAT      O 4300   7.709   9.048   6.989
 1353WAT     H1 4301   7.622   8.999   6.992
 1353WAT     H2 4302   7.784   8.982   6.981
 1354WAT      O 4303   2.796   4.948   7.368
 1354WAT     H1 4304   2.817   4.904   7.455
 1354WAT     H2 4305   2.806   5.047   7.377
 1355WAT      O 4306   2.144   9.006   2.285
 1355WAT     H1 4307   2.121   9.085   2.227
 1355WAT     H2 4308   2.218   9.030   2.346
 1356WAT      O 4309   3.604   8.548   9.681
 1356WAT     H1 4310   3.649   8.637   9.665
 1356WAT     H2 4311   3.633   8.512   9.770
 1357WAT      O 4312   1.380   0.334   5.177
 1357WAT     H1 4313   1.450   0.359   5.110
 1357WAT     H2 4314   1.406   0.247   5.221
 1358WAT      O 4315   4.000   2.244   6.377
 1358WAT     H1 4316   4.072   2.298   6.334
 1358WAT     H2 4317   4.036   2.199   6.459
 1359WAT      O 4318   8.900   8.962   8.140
 1359WAT     H1 4319   8.967   8.926   8.076
 1359WAT     H2 4320   8.867   8.888   8.199
 1360WAT      O 4321   3.667   8.167   4.659
 1360WAT     H1 4322   3.711   8.102   4.721
 1360WAT     H2 4323   3.666   8.129   4.566
 1361WAT      O 4324   8.794   4.904   1.448
 1361WAT     H1 4325   8.737   4.924   1.527
 1361WAT     H2 4326   8.754   4.828   1.396
 1362WAT      O 4327   6.383   4.860   6.109
 1362WAT     H1 4328   6.289   4.853   6.144
 1362WAT     H2 4329   6.400   4.787   6.044
 1363WAT      O 4330   7.601   4.936   6.674
 1363WAT     H1 4331   7.566   5.029   6.674
 1363WAT     H2 4332   7.673   4.927   6.605
 1364WAT      O 4333   2.870   9.499   7.527
 1364WAT     H1 4334   2.888   9.410   7.569
 1364WAT     H2 4335   2.857   9.568   7.599
 1365WAT      O 4336   6.033   3.823   2.220
 1365WAT     H1 4337   6.029   3.796   2.124
 1365WAT     H2 4338   5.963   3.892   2.238
 1366WAT      O 4339   8.201   1.124   4.268
 1366WAT     H1 4340   8.154   1.185   4.203
 1366WAT     H2 4341   8.143   1.112   4.349
 1367WAT      O 4342   0.087   3.027   9.599
 1367WAT     H1 4343   0.159   3.010   9.666
 1367WAT     H2 4344   0.057   2.940   9.559
 1368WAT      O 4345   3.289   8.244   1.032
 1368WAT     H1 4346   3.241   8.294   1.104
 1368WAT     H2 4347   3.230   8.234   0.952
 1369WAT      O 4348   4.595   0.592   0.689
 1369WAT     H1 4349   4.521   0.658   0.701
 1369WAT     H2 4350   4.585   0.518   0.755
 1370WAT      O 4351   6.121   5.207   9.448
 1370WAT     H1 4352   6.109   5.224   9.545
 1370WAT     H2 4353   6.198   5.261   9.414
 1371WAT      O 4354   9.653   5.335   7.796
 1371WAT     H1 4355   9.674   5.256   7.854
 1371WAT     H2 4356   9.554   5.342   7.783
 1372WAT      O 4357   2.507   0.421   5.670
 1372WAT     H1 4358   2.431   0.449   5.611
 1372WAT     H2 4359   2.564   0.355   5.621
 1373WAT      O 4360   3.733   9.469   3.742
 1373WAT     H1 4361   3.782   9.543   3.696
 1373WAT     H2 4362   3.797   9.418   3.801
 1374WAT      O 4363   9.639   5.845   0.768
 1374WAT     H1 4364   9.550   5.849   0.723
 1374WAT     H2 4365   9.648   5.923   0.831
 1375WAT      O 4366   6.272   3.220   9.395
 1375WAT     H1 4367   6.361   3.221   9.349
 1375WAT     H2 4368   6.219   3.142   9.363
 1376WAT      O 4369   0.441   3.388   0.947
 1376WAT     H1 4370   0.435   3.486   0.927
 1376WAT     H2 4371   0.416   3.337   0.865
 1377WAT      O 4372   3.352   0.109   9.391
 1377WAT     H1 4373   3.411   0.080   9.316
 1377WAT     H2 4374   3.404   0.107   9.476
 1378WAT      O 4375   8.660   4.347   7.283
 1378WAT     H1 4376   8.727   4.399   7.337
 1378WAT     H2 4377   8.691   4.342   7.188
 1379WAT      O 4378   7.801   8.143   5.165
 1379WAT     H1 4379   7.854   8.083   5.105
 1379WAT     H2 4380   7.721   8.177   5.115
 1380WAT      O 4381   0.496   6.016   8.567
 1380WAT     H1 4382   0.537   6.087   8.509
 1380WAT     H2 4383   0.515   6.036   8.663
 1381WAT      O 4384   8.503   5.253   8.751
 1381WAT     H1 4385   8.441   5.229   8.677
 1381WAT     H2 4386   8.592   5.209   8.736
 1382WAT      O 4387   8.522   5.955   5.431
 1382WAT     H1 4388   8.595   5.912   5.378
 1382WAT     H2 4389   8.538   5.939   5.529
 1383WAT      O 4390   1.019   5.122   2.998
 1383WAT     H1 4391   0.997   5.215   3.027
 1383WAT     H2 4392   0.939   5.063   3.012
 1384WAT      O 4393   3.968   5.560   5.973
 1384WAT     H1 4394   3.964   5.625   6.049
 1384WAT     H2 4395   4.055   5.511   5.975
 1385WAT      O 4396   6.416   4.884   7.628
 1385WAT     H1 4397   6.444   4.964   7.681
 1385WAT     H2 4398   6.332   4.846   7.667
 1386WAT      O 4399   1.739   1.910   5.089
 1386WAT     H1 4400   1.680   1.989   5.073
 1386WAT     H2 4401   1.683   1.827   5.089
 1387WAT      O 4402   0.353   4.872   2.382
 1387WAT     H1 4403   0.254   4.886   2.384
 1387WAT     H2 4404   0.374   4.781   2.347
 1388WAT      O 4405   2.592   0.911   0.954
 1388WAT     H1 4406   2.599   0.994   1.009
 1388WAT     H2 4407   2.590   0.831   1.014
 1389WAT      O 4408   9.346   8.846   8.432
 1389WAT     H1 4409   9.412   8.786   8.476
 1389WAT     H2 4410   9.391   8.931   8.404
 1390WAT      O 4411   1.781   1.934   5.708
 1390WAT     H1 4412   1.819   2.021   5.676
 1390WAT     H2 4413   1.829   1.858   5.663
 1391WAT      O 4414   3.661   2.794   2.124
 1391WAT     H1 4415   3.590   2.802   2.194
 1391WAT     H2 4416   3.701   2.884   2.107
 1392WAT      O 4417   5.881   0.737   6.590
 1392WAT     H1 4418   5.856   0.804   6.660
 1392WAT     H2 4419   5.975   0.752   6.560
 1393WAT      O 4420   1.766   6.491   6.987
 1393WAT     H1 4421   1.696   6.514   7.054
 1393WAT     H2 4422   1.846   6.550   6.999
 1394WAT      O 4423   5.563   6.575   4.555
 1394WAT     H1 4424   5.489   6.537   4.611
 1394WAT     H2 4425   5.650   6.535   4.583
 1395WAT      O 4426   5.673   8.694   0.282
 1395WAT     H1 4427   5.747   8.737   0.334
 1395WAT     H2 4428   5.641   8.612   0.331
 1396WAT      O 4429   4.290   8.726   8.820
 1396WAT     H1 4430   4.356   8.720   8.744
 1396WAT     H2 4431   4.313   8.804   8.878
 1397WAT      O 4432   9.790   5.358   9.003
 1397WAT     H1 4433   9.718   5.342   8.936
 1397WAT     H2 4434   9.755   5.339   9.095
 1398WAT      O 4435   5.235   2.874   5.779
 1398WAT     H1 4436   5.149   2.824   5.768
 1398WAT     H2 4437   5.225   2.966   5.743
 1399WAT      O 4438   2.861   8.879   3.439
 1399WAT     H1 4439   2.933   8.945   3.463
 1399WAT     H2 4440   2.903   8.799   3.396
 1400WAT      O 4441   6.741   7.465   0.692
 1400WAT     H1 4442   6.703   7.548   0.651
 1400WAT     H2 4443   6.747   7.477   0.791
 1401WAT      O 4444   9.674   4.968   9.578
 1401WAT     H1 4445   9.583   4.928   9.582
 1401WAT     H2 4446   9.692   5.000   9.484
 1402WAT      O 4447   6.974   0.519   2.695
 1402WAT     H1 4448   6.887   0.536   2.740
 1402WAT     H2 4449   6.962   0.521   2.596
 1403WAT      O 4450   3.438   0.133   0.417
 1403WAT     H1 4451   3.443   0.225   0.456
 1403WAT     H2 4452   3.342   0.105   0.408
 1404WAT      O 4453   7.268   7.371   1.930
 1404WAT     H1 4454   7.171   7.359   1.953
 1404WAT     H2 4455   7.277   7.441   1.860
 1405WAT      O 4456   6.585   7.531   7.993
 1405WAT     H1 4457   6.599   7.624   7.959
 1405WAT     H2 4458   6.670   7.496   8.032
 1406WAT      O 4459   8.440   1.408   1.721
 1406WAT     H1 4460   8.537   1.388   1.705
 1406WAT     H2 4461   8.416   1.495   1.680
 1407WAT      O 4462   5.431   4.303   0.536
 1407WAT     H1 4463   5.369   4.232   0.503
 1407WAT     H2 4464   5.398   4.393   0.506
 1408WAT      O 4465   9.717   3.735   9.014
 1408WAT     H1 4466   9.762   3.662   8.963
 1408WAT     H2 4467   9.632   3.761   8.968
 1409WAT      O 4468   3.630   7.219   5.924
 1409WAT     H1 4469   3.703   7.211   5.991
 1409WAT     H2 4470   3.556   7.156   5.948
 1410WAT      O 4471   6.278   4.007   5.026
 1410WAT     H1 4472   6.263   3.908   5.037
 1410WAT     H2 4473   6.358   4.022   4.969
 1411WAT      O 4474   7.253   9.201   7.539
 1411WAT     H1 4475   7.174   9.245   7.496
 1411WAT     H2 4476   7.223   9.152   7.621
 1412WAT      O 4477   7.481   8.629   6.177
 1412WAT     H1 4478   7.489   8.587   6.268
 1412WAT     H2 4479   7.387   8.619   6.145
 1413WAT      O 4480   3.509   3.819   1.854
 1413WAT     H1 4481   3.450   3.791   1.930
 1413WAT     H2 4482   3.452   3.853   1.779
 1414WAT      O 4483   6.941   1.185   8.921
 1414WAT     H1 4484   6.861   1.125   8.915
 1414WAT     H2 4485   6.912   1.280   8.912
 1415WAT      O 4486   4.345   5.062   5.298
 1415WAT     H1 4487   4.346   5.160   5.281
 1415WAT     H2 4488   4.352   5.013   5.211
 1416WAT      O 4489   9.063   7.835   3.438
 1416WAT     H1 4490   9.046   7.905   3.508
 1416WAT     H2 4491   9.105   7.877   3.358
 1417WAT      O 4492   1.766   2.690   8.261
 1417WAT     H1 4493   1.849   2.638   8.278
 1417WAT     H2 4494   1.756   2.761   8.331
 1418WAT      O 4495   0.505   3.878   8.291
 1418WAT     H1 4496   0.462   3.788   8.300
 1418WAT     H2 4497   0.435   3.947   8.275
 1419WAT      O 4498   4.336   2.454   4.875
 1419WAT     H1 4499   4.435   2.469   4.880
 1419WAT     H2 4500   4.318   2.363   4.838
 1420WAT      O 4501   6.824   8.129   6.065
 1420WAT     H1 4502   6.873   8.080   5.994
 1420WAT     H2 4503   6.764   8.065   6.114
 1421WAT      O 4504   2.613   2.697   3.774
 1421WAT     H1 4505   2.588   2.709   3.871
 1421WAT     H2 4506   2.646   2.785   3.738
 1422WAT      O 4507   4.613   8.677   0.362
 1422WAT     H1 4508   4.638   8.652   0.269
 1422WAT     H2 4509   4.640   8.604   0.425
 1423WAT      O 4510   9.538   5.122   5.575
 1423WAT     H1 4511   9.509   5.198   5.516
 1423WAT     H2 4512   9.616   5.076   5.534
 1424WAT      O 4513   6.859   4.453   6.454
 1424WAT     H1 4514   6.794   4.434   6.380
 1424WAT     H2 4515   6.932   4.385   6.452
 1425WAT      O 4516   5.296   6.569   1.703
 1425WAT     H1 4517   5.278   6.473   1.727
 1425WAT     H2 4518   5.267   6.585   1.608
 1426WAT      O 4519   1.426   9.473   0.334
 1426WAT     H1 4520   1.381   9.423   0.407
 1426WAT     H2 4521   1.510   9.515   0.368
 1427WAT      O 4522   2.441   8.585   9.308
 1427WAT     H1 4523   2.522   8.529   9.294
 1427WAT     H2 4524   2.362   8.542   9.263
 1428WAT      O 4525   5.863   7.656   4.069
 1428WAT     H1 4526   5.850   7.572   4.121
 1428WAT     H2 4527   5.796   7.724   4.098
 1429WAT      O 4528   9.375   5.357   0.331
 1429WAT     H1 4529   9.421   5.269   0.344
 1429WAT     H2 4530   9.376   5.408   0.417
 1430WAT      O 4531   6.525   8.925   4.425
 1430WAT     H1 4532   6.584   8.854   4.387
 1430WAT     H2 4533   6.497   8.899   4.518
 1431WAT      O 4534   7.584   1.880   7.329
 1431WAT     H1 4535   7.616   1.926   7.412
 1431WAT     H2 4536   7.535   1.945   7.271
 1432WAT      O 4537   0.556   1.384   2.863
 1432WAT     H1 4538   0.459   1.399   2.846
 1432WAT     H2 4539   0.607   1.397   2.778
 1433WAT      O 4540   2.935   5.206   2.083
 1433WAT     H1 4541   2.984   5.274   2.028
 1433WAT     H2 4542   2.991   5.123   2.089
 1434WAT      O 4543   5.159   0.448   1.257
 1434WAT     H1 4544   5.189   0.486   1.344
 1434WAT     H2 4545   5.071   0.487   1.232
 1435WAT      O 4546   1.363   3.988   5.797
 1435WAT     H1 4547   1.430   3.970   5.725
 1435WAT     H2 4548   1.334   4.084   5.793
 1436WAT      O 4549   4.218   9.029   7.479
 1436WAT     H1 4550   4.203   9.128   7.470
 1436WAT     H2 4551   4.161   8.981   7.413
 1437WAT      O 4552   9.624   4.840   3.213
 1437WAT     H1 4553   9.628   4.749   3.171
 1437WAT     H2 4554   9.681   4.903   3.160
 1438WAT      O 4555   8.878   4.817   9.205
 1438WAT     H1 4556   8.803   4.853   9.149
 1438WAT     H2 4557   8.887   4.872   9.288
 1439WAT      O 4558   5.299   9.339   1.581
 1439WAT     H1 4559   5.257   9.421   1.543
 1439WAT     H2 4560   5.273   9.259   1.526
 1440WAT      O 4561   5.899   1.301   2.898
 1440WAT     H1 4562   5.881   1.225   2.961
 1440WAT     H2 4563   5.918   1.265   2.807
 1441WAT      O 4564   1.672   1.664   3.569
 1441WAT     H1 4565   1.677   1.683   3.471
 1441WAT     H2 4566   1.664   1.750   3.620
 1442WAT      O 4567   2.165   7.119   2.529
 1442WAT     H1 4568   2.198   7.107   2.435
 1442WAT     H2 4569   2.195   7.042   2.585
 1443WAT      O 4570   5.885   7.921   4.197
 1443WAT     H1 4571   5.856   7.956   4.108
 1443WAT     H2 4572   5.859   7.985   4.269
 1444WAT      O 4573   4.429   6.200   9.242
 1444WAT     H1 4574   4.367   6.256   9.297
 1444WAT     H2 4575   4.376   6.134   9.189
 1445WAT      O 4576   4.396   0.115   4.059
 1445WAT     H1 4577   4.364   0.036   4.112
 1445WAT     H2 4578   4.323   0.147   4.000
 1446WAT      O 4579   7.771   9.226   0.011
 1446WAT     H1 4580   7.705   9.299   0.027
 1446WAT     H2 4581   7.860   9.251   0.049
 1447WAT      O 4582   1.279   1.297   4.035
 1447WAT     H1 4583   1.219   1.366   4.077
 1447WAT     H2 4584   1.275   1.212   4.088
 1448WAT      O 4585   4.007   3.322   1.545
 1448WAT     H1 4586   4.065   3.262   1.600
 1448WAT     H2 4587   4.002   3.287   1.451
 1449WAT      O 4588   9.767   7.171   8.648
 1449WAT     H1 4589   9.768   7.193   8.550
 1449WAT     H2 4590   9.848   7.116   8.670
 1450WAT      O 4591   4.032   0.853   5.417
 1450WAT     H1 4592   4.106   0.828   5.479
 1450WAT     H2 4593   4.030   0.953   5.405
 1451WAT      O 4594   7.621   8.933   8.375
 1451WAT     H1 4595   7.567   8.996   8.319
 1451WAT     H2 4596   7.713   8.971   8.388
 1452WAT      O 4597   7.098   4.342   1.837
 1452WAT     H1 4598   7.090   4.261   1.779
 1452WAT     H2 4599   7.161   4.406   1.795
 1453WAT      O 4600   4.895   1.620   1.698
 1453WAT     H1 4601   4.939   1.531   1.706
 1453WAT     H2 4602   4.933   1.670   1.621
 1454WAT      O 4603   6.149   0.538   2.889
 1454WAT     H1 4604   6.151   0.591   2.974
 1454WAT     H2 4605   6.061   0.552   2.843
 1455WAT      O 4606   2.828   3.520   2.306
 1455WAT     H1 4607   2.735   3.493   2.332
 1455WAT     H2 4608   2.838   3.513   2.207
 1456WAT      O 4609   4.058   1.700   8.699
 1456WAT     H1 4610   4.094   1.608   8.716
 1456WAT     H2 4611   4.113   1.745   8.629
 1457WAT      O 4612   9.232   9.059   8.769
 1457WAT     H1 4613   9.148   9.057   8.822
 1457WAT     H2 4614   9.288   9.136   8.798
 1458WAT      O 4615   6.916   0.283   9.342
 1458WAT     H1 4616   6.861   0.236   9.273
 1458WAT     H2 4617   6.966   0.358   9.298
 1459WAT      O 4618   4.067   8.908   9.687
 1459WAT     H1 4619   4.124   8.980   9.649
 1459WAT     H2 4620   4.117   8.821   9.685
 1460WAT      O 4621   5.905   0.231   1.716
 1460WAT     H1 4622   5.814   0.202   1.744
 1460WAT     H2 4623   5.961   0.151   1.695
 1461WAT      O 4624   0.137   6.065   1.164
 1461WAT     H1 4625   0.111   6.039   1.257
 1461WAT     H2 4626   0.101   5.998   1.100
 1462WAT      O 4627   4.567   8.429   8.275
 1462WAT     H1 4628   4.508   8.411   8.196
 1462WAT     H2 4629   4.615   8.345   8.300
 1463WAT      O 4630   4.089   6.440   2.373
 1463WAT     H1 4631   4.088   6.521   2.432
 1463WAT     H2 4632   4.100   6.468   2.278
 1464WAT      O 4633   2.622   2.884   0.835
 1464WAT     H1 4634   2.600   2.974   0.873
 1464WAT     H2 4635   2.718   2.863   0.855
 1465WAT      O 4636   2.368   2.948   6.124
 1465WAT     H1 4637   2.313   2.867   6.103
 1465WAT     H2 4638   2.404   2.987   6.040
 1466WAT      O 4639   6.532   5.700   8.493
 1466WAT     H1 4640   6.587   5.620   8.517
 1466WAT     H2 4641   6.507   5.749   8.576
 1467WAT      O 4642   3.336   8.140   6.157
 1467WAT     H1 4643   3.268   8.139   6.084
 1467WAT     H2 4644   3.411   8.078   6.133
 1468WAT      O 4645   4.062   1.958   4.299
 1468WAT     H1 4646   3.974   1.929   4.337
 1468WAT     H2 4647   4.083   1.904   4.217
 1469WAT      O 4648   2.818   5.941   3.009
 1469WAT     H1 4649   2.785   5.912   2.919
 1469WAT     H2 4650   2.750   6.000   3.052
 1470WAT      O 4651   5.357   2.426   6.982
 1470WAT     H1 4652   5.346   2.329   7.001
 1470WAT     H2 4653   5.424   2.438   6.909
 1471WAT      O 4654   1.528   9.338   0.126
 1471WAT     H1 4655   1.492   9.384   0.207
 1471WAT     H2 4656   1.578   9.403   0.070
 1472WAT      O 4657   8.787   1.688   8.940
 1472WAT     H1 4658   8.703   1.697   8.885
 1472WAT     H2 4659   8.770   1.624   9.015
 1473WAT      O 4660   3.548   1.018   0.257
 1473WAT     H1 4661   3.635   1.059   0.284
 1473WAT     H2 4662   3.480   1.090   0.245
 1474WAT      O 4663   6.978   5.956   8.643
 1474WAT     H1 4664   6.937   5.971   8.553
 1474WAT     H2 4665   7.044   5.882   8.637
 1475WAT      O 4666   0.718   3.099   6.453
 1475WAT     H1 4667   0.757   3.042   6.381
 1475WAT     H2 4668   0.618   3.092   6.451
 1476WAT      O 4669   0.851   5.527   0.776
 1476WAT     H1 4670   0.766   5.576   0.798
 1476WAT     H2 4671   0.864   5.526   0.677
 1477WAT      O 4672   8.299   2.987   7.333
 1477WAT     H1 4673   8.355   3.069   7.347
 1477WAT     H2 4674   8.285   2.972   7.235
 1478WAT      O 4675   6.990   8.255   4.538
 1478WAT     H1 4676   7.088   8.239   4.546
 1478WAT     H2 4677   6.967   8.343   4.580
 1479WAT      O 4678   0.156   5.637   9.202
 1479WAT     H1 4679   0.190   5.543   9.204
 1479WAT     H2 4680   0.204   5.689   9.132
 1480WAT      O 4681   6.957   5.865   1.497
 1480WAT     H1 4682   6.968   5.932   1.424
 1480WAT     H2 4683   6.885   5.896   1.559
 1481WAT      O 4684   3.366   2.383   0.978
 1481WAT     H1 4685   3.354   2.290   1.012
 1481WAT     H2 4686   3.446   2.424   1.022
 1482WAT      O 4687   9.154   1.388   8.146
 1482WAT     H1 4688   9.236   1.442   8.125
 1482WAT     H2 4689   9.122   1.411   8.238
 1483WAT      O 4690   3.892   6.162   5.381
 1483WAT     H1 4691   3.861   6.074   5.417
 1483WAT     H2 4692   3.819   6.229   5.388
 1484WAT      O 4693   6.564   5.512   4.964
 1484WAT     H1 4694   6.575   5.606   4.931
 1484WAT     H2 4695   6.574   5.510   5.064
 1485WAT      O 4696   9.327   6.066   0.448
 1485WAT     H1 4697   9.235   6.050   0.413
 1485WAT     H2 4698   9.327   6.151   0.502
 1486WAT      O 4699   5.271   0.658   3.154
 1486WAT     H1 4700   5.208   0.613   3.090
 1486WAT     H2 4701   5.347   0.698   3.103
 1487WAT      O 4702   8.448   4.658   4.771
 1487WAT     H1 4703   8.485   4.746   4.741
 1487WAT     H2 4704   8.474   4.642   4.866
 1488WAT      O 4705   2.063   3.850   3.088
 1488WAT     H1 4706   2.011   3.768   3.109
 1488WAT     H2 4707   2.002   3.920   3.051
 1489WAT      O 4708   5.629   7.963   1.597
 1489WAT     H1 4709   5.567   7.995   1.668
 1489WAT     H2 4710   5.627   8.027   1.520
 1490WAT      O 4711   3.806   3.072   3.671
 1490WAT     H1 4712   3.749   3.153   3.683
 1490WAT     H2 4713   3.826   3.031   3.760
 1491WAT      O 4714   7.018   7.460   4.841
 1491WAT     H1 4715   7.018   7.559   4.826
 1491WAT     H2 4716   7.105   7.432   4.880
 1492WAT      O 4717   1.431   2.627   8.838
 1492WAT     H1 4718   1.390   2.718   8.842
 1492WAT     H2 4719   1.526   2.632   8.868
 1493WAT      O 4720   7.213   4.928   8.721
 1493WAT     H1 4721   7.164   4.943   8.807
 1493WAT     H2 4722   7.304   4.890   8.741
 1494WAT      O 4723   2.138   2.095   9.452
 1494WAT     H1 4724   2.131   2.009   9.402
 1494WAT     H2 4725   2.174   2.077   9.544
 1495WAT      O 4726   8.680   1.329   4.207
 1495WAT     H1 4727   8.594   1.369   4.238
 1495WAT     H2 4728   8.757   1.386   4.238
 1496WAT      O 4729   6.114   0.826   6.497
 1496WAT     H1 4730   6.170   0.898   6.540
 1496WAT     H2 4731   6.175   0.758   6.457
 1497WAT      O 4732   6.483   1.670   2.362
 1497WAT     H1 4733   6.432   1.591   2.396
 1497WAT     H2 4734   6.497   1.735   2.437
 1498WAT      O 4735   3.338   0.815   3.273
 1498WAT     H1 4736   3.417   0.846   3.220
 1498WAT     H2 4737   3.362   0.809   3.370
 1499WAT      O 4738   3.379   1.659   8.606
 1499WAT     H1 4739   3.437   1.735   8.636
 1499WAT     H2 4740   3.309   1.641   8.675
 1500WAT      O 4741   3.192   9.001   3.329
 1500WAT     H1 4742   3.137   9.000   3.245
 1500WAT     H2 4743   3.239   9.088   3.337
 1501WAT      O 4744   3.233   4.535   3.809
 1501WAT     H1 4745   3.236   4.483   3.895
 1501WAT     H2 4746   3.219   4.632   3.829
 1502WAT      O 4747   4.870   8.835   0.320
 1502WAT     H1 4748   4.882   8.776   0.399
 1502WAT     H2 4749   4.777   8.873   0.320
 1503WAT      O 4750   8.595   6.105   8.288
 1503WAT     H1 4751   8.510   6.135   8.331
 1503WAT     H2 4752   8.672   6.129   8.346
 1504WAT      O 4753   4.305   5.580   9.796
 1504WAT     H1 4754   4.345   5.535   9.717
 1504WAT     H2 4755   4.220   5.534   9.822
 1505WAT      O 4756   4.937   9.726   6.622
 1505WAT     H1 4757   4.937   9.807   6.564
 1505WAT     H2 4758   4.878   9.742   6.702
 1506WAT      O 4759   2.553   0.244   8.032
 1506WAT     H1 4760   2.511   0.249   8.122
 1506WAT     H2 4761   2.496   0.292   7.965
 1507WAT      O 4762   4.051   8.241   4.932
 1507WAT     H1 4763   4.012   8.197   5.012
 1507WAT     H2 4764   4.024   8.191   4.850
 1508WAT      O 4765   3.268   8.460   2.900
 1508WAT     H1 4766   3.282   8.445   2.802
 1508WAT     H2 4767   3.224   8.379   2.939
 1509WAT      O 4768   3.762   3.290   0.104
 1509WAT     H1 4769   3.783   3.243   0.018
 1509WAT     H2 4770   3.776   3.227   0.181
 1510WAT      O 4771   5.872   8.869   4.096
 1510WAT     H1 4772   5.800   8.939   4.099
 1510WAT     H2 4773   5.915   8.861   4.186
 1511WAT      O 4774   8.389   7.465   7.654
 1511WAT     H1 4775   8.409   7.401   7.728
 1511WAT     H2 4776   8.467   7.526   7.640
 1512WAT      O 4777   5.655   6.679   2.264
 1512WAT     H1 4778   5.664   6.580   2.253
 1512WAT     H2 4779   5.563   6.701   2.296
 1513WAT      O 4780   5.446   9.560   8.074
 1513WAT     H1 4781   5.411   9.481   8.024
 1513WAT     H2 4782   5.501   9.616   8.013
 1514WAT      O 4783   6.846   6.934   6.044
 1514WAT     H1 4784   6.785   6.965   6.117
 1514WAT     H2 4785   6.792   6.894   5.970
 1515WAT      O 4786   6.580   6.721   3.300
 1515WAT     H1 4787   6.495   6.745   3.253
 1515WAT     H2 4788   6.643   6.680   3.235
 1516WAT      O 4789   9.790   7.136   7.638
 1516WAT     H1 4790   9.823   7.148   7.732
 1516WAT     H2 4791   9.854   7.178   7.574
 1517WAT      O 4792   9.885   5.648   8.567
 1517WAT     H1 4793   9.841   5.701   8.639
 1517WAT     H2 4794   9.926   5.710   8.500
 1518WAT      O 4795   9.676   8.528   4.412
 1518WAT     H1 4796   9.717   8.507   4.323
 1518WAT     H2 4797   9.609   8.458   4.434
 1519WAT      O 4798   9.194   7.358   2.513
 1519WAT     H1 4799   9.269   7.293   2.499
 1519WAT     H2 4800   9.212   7.442   2.461
 1520WAT      O 4801   6.565   0.628   2.990
 1520WAT     H1 4802   6.539   0.708   2.938
 1520WAT     H2 4803   6.490   0.601   3.051
 1521WAT      O 4804   3.083   4.873   8.118
 1521WAT     H1 4805   2.994   4.852   8.076
 1521WAT     H2 4806   3.137   4.789   8.124
 1522WAT      O 4807   5.578   1.877   7.937
 1522WAT     H1 4808   5.564   1.961   7.884
 1522WAT     H2 4809   5.545   1.890   8.030
 1523WAT      O 4810   1.889   8.475   7.437
 1523WAT     H1 4811   1.880   8.426   7.349
 1523WAT     H2 4812   1.946   8.421   7.499
 1524WAT      O 4813   4.660   5.773   2.567
 1524WAT     H1 4814   4.674   5.872   2.561
 1524WAT     H2 4815   4.746   5.726   2.545
 1525WAT      O 4816   2.852   4.224   5.482
 1525WAT     H1 4817   2.874   4.127   5.492
 1525WAT     H2 4818   2.759   4.233   5.445
 1526WAT      O 4819   1.395   5.829   5.609
 1526WAT     H1 4820   1.381   5.738   5.571
 1526WAT     H2 4821   1.408   5.823   5.708
 1527WAT      O 4822   1.240   5.544   8.489
 1527WAT     H1 4823   1.316   5.492   8.452
 1527WAT     H2 4824   1.154   5.509   8.452
 1528WAT      O 4825   7.730   0.558   5.943
 1528WAT     H1 4826   7.787   0.476   5.948
 1528WAT     H2 4827   7.646   0.543   5.996
 1529WAT      O 4828   0.342   6.471   8.269
 1529WAT     H1 4829   0.416   6.525   8.228
 1529WAT     H2 4830   0.266   6.530   8.292
 1530WAT      O 4831   4.009   4.344   5.919
 1530WAT     H1 4832   4.012   4.311   6.014
 1530WAT     H2 4833   4.071   4.289   5.863
 1531WAT      O 4834   8.210   9.277   3.931
 1531WAT     H1 4835   8.182   9.370   3.906
 1531WAT     H2 4836   8.170   9.253   4.020
 1532WAT      O 4837   4.245   6.981   4.058
 1532WAT     H1 4838   4.264   7.079   4.066
 1532WAT     H2 4839   4.156   6.968   4.015
 1533WAT      O 4840   2.643   3.475   4.596
 1533WAT     H1 4841   2.565   3.532   4.624
 1533WAT     H2 4842   2.680   3.428   4.676
 1534WAT      O 4843   3.980   4.077   6.632
 1534WAT     H1 4844   3.941   4.067   6.541
 1534WAT     H2 4845   4.052   4.146   6.630
 1535WAT      O 4846   7.942   1.982   0.290
 1535WAT     H1 4847   7.928   1.916   0.216
 1535WAT     H2 4848   7.967   1.933   0.374
 1536WAT      O 4849   4.092   9.118   1.667
 1536WAT     H1 4850   4.013   9.057   1.661
 1536WAT     H2 4851   4.175   9.063   1.680
 1537WAT      O 4852   2.497   6.568   8.565
 1537WAT     H1 4853   2.535   6.659   8.583
 1537WAT     H2 4854   2.401   6.565   8.593
 1538WAT      O 4855   6.589   1.778   5.631
 1538WAT     H1 4856   6.664   1.729   5.587
 1538WAT     H2 4857   6.599   1.772   5.731
 1539WAT      O 4858   7.508   6.875   7.576
 1539WAT     H1 4859   7.503   6.839   7.483
 1539WAT     H2 4860   7.462   6.964   7.580
 1540WAT      O 4861   1.537   0.366   3.172
 1540WAT     H1 4862   1.464   0.299   3.182
 1540WAT     H2 4863   1.522   0.419   3.089
 1541WAT      O 4864   8.248   6.913   2.612
 1541WAT     H1 4865   8.332   6.866   2.586
 1541WAT     H2 4866   8.207   6.955   2.531
 1542WAT      O 4867   9.706   4.774   5.052
 1542WAT     H1 4868   9.693   4.726   4.966
 1542WAT     H2 4869   9.623   4.765   5.108
 1543WAT      O 4870   2.255   1.071   4.385
 1543WAT     H1 4871   2.351   1.082   4.359
 1543WAT     H2 4872   2.230   1.142   4.451
 1544WAT      O 4873   5.502   0.450   6.713
 1544WAT     H1 4874   5.537   0.361   6.685
 1544WAT     H2 4875   5.575   0.503   6.757
 1545WAT      O 4876   1.065   8.808   7.089
 1545WAT     H1 4877   0.999   8.794   7.163
 1545WAT     H2 4878   1.050   8.740   7.017
 1546WAT      O 4879   1.035   5.688   0.376
 1546WAT     H1 4880   1.075   5.607   0.333
 1546WAT     H2 4881   1.105   5.757   0.390
 1547WAT      O 4882   1.562   8.093   6.201
 1547WAT     H1 4883   1.592   8.051   6.287
 1547WAT     H2 4884   1.471   8.133   6.213
 1548WAT      O 4885   7.733   1.097   5.567
 1548WAT     H1 4886   7.681   1.167   5.616
 1548WAT     H2 4887   7.725   1.010   5.616
 1549WAT      O 4888   8.678   6.739   1.280
 1549WAT     H1 4889   8.645   6.699   1.365
 1549WAT     H2 4890   8.758   6.687   1.247
 1550WAT      O 4891   8.227   2.577   4.725
 1550WAT     H1 4892   8.129   2.562   4.741
 1550WAT     H2 4893   8.274   2.488   4.726
 1551WAT      O 4894   5.342   9.049   0.853
 1551WAT     H1 4895   5.314   8.969   0.907
 1551WAT     H2 4896   5.265   9.078   0.796
 1552WAT      O 4897   2.050   8.926   4.783
 1552WAT     H1 4898   1.965   8.951   4.738
 1552WAT     H2 4899   2.040   8.936   4.882
 1553WAT      O 4900   4.768   2.861   3.329
 1553WAT     H1 4901   4.854   2.813   3.347
 1553WAT     H2 4902   4.704   2.842   3.403
 1554WAT      O 4903   5.804   7.262   3.360
 1554WAT     H1 4904   5.790   7.165   3.342
 1554WAT     H2 4905   5.753   7.317   3.294
 1555WAT      O 4906   1.811   9.746   7.936
 1555WAT     H1 4907   1.810   9.761   7.837
 1555WAT     H2 4908   1.748   9.810   7.980
 1556WAT      O 4909   0.419   7.776   7.660
 1556WAT     H1 4910   0.493   7.738   7.715
 1556WAT     H2 4911   0.433   7.751   7.564
 1557WAT      O 4912   9.380   6.125   2.021
 1557WAT     H1 4913   9.413   6.047   1.968
 1557WAT     H2 4914   9.399   6.209   1.971
 1558WAT      O 4915   5.736   9.455   8.979
 1558WAT     H1 4916   5.666   9.400   9.024
 1558WAT     H2 4917   5.717   9.552   8.993
 1559WAT      O 4918   1.007   0.325   7.557
 1559WAT     H1 4919   1.008   0.290   7.464
 1559WAT     H2 4920   0.913   0.330   7.591
 1560WAT      O 4921   1.713   5.355   6.300
 1560WAT     H1 4922   1.683   5.263   6.274
 1560WAT     H2 4923   1.794   5.380   6.247
 1561WAT      O 4924   3.330   0.809   8.721
 1561WAT     H1 4925   3.391   0.864   8.664
 1561WAT     H2 4926   3.320   0.852   8.811
 1562WAT      O 4927   4.052   0.493   7.180
 1562WAT     H1 4928   4.073   0.401   7.147
 1562WAT     H2 4929   4.000   0.487   7.265
 1563WAT      O 4930   9.544   8.174   5.331
 1563WAT     H1 4931   9.636   8.207   5.354
 1563WAT     H2 4932   9.549   8.079   5.302
 1564WAT      O 4933   4.677   3.749   8.589
 1564WAT     H1 4934   4.680   3.797   8.676
 1564WAT     H2 4935   4.581   3.735   8.562
 1565WAT      O 4936   6.748   0.754   5.325
 1565WAT     H1 4937   6.802   0.696   5.264
 1565WAT     H2 4938   6.760   0.850   5.299
 1566WAT      O 4939   8.062   5.911   4.151
 1566WAT     H1 4940   8.147   5.866   4.126
 1566WAT     H2 4941   8.015   5.857   4.221
 1567WAT      O 4942   4.957   6.321   9.492
 1567WAT     H1 4943   4.892   6.294   9.564
 1567WAT     H2 4944   5.044   6.347   9.535
 1568WAT      O 4945   9.660   1.731   5.509
 1568WAT     H1 4946   9.674   1.644   5.557
 1568WAT     H2 4947   9.623   1.713   5.418
 1569WAT      O 4948   8.275   0.091   2.691
 1569WAT     H1 4949   8.227   0.061   2.609
 1569WAT     H2 4950   8.211   0.093   2.768
 1570WAT      O 4951   8.684   0.735   6.349
 1570WAT     H1 4952   8.611   0.683   6.303
 1570WAT     H2 4953   8.751   0.672   6.388
 1571WAT      O 4954   7.461   0.928   3.043
 1571WAT     H1 4955   7.510   0.855   3.091
 1571WAT     H2 4956   7.463   0.911   2.945
 1572WAT      O 4957   0.541   4.066   6.622
 1572WAT     H1 4958   0.449   4.031   6.610
 1572WAT     H2 4959   0.577   4.038   6.711
 1573WAT      O 4960   7.106   4.379   4.353
 1573WAT     H1 4961   7.078   4.294   4.307
 1573WAT     H2 4962   7.184   4.419   4.305
 1574WAT      O 4963   5.231   0.074   3.567
 1574WAT     H1 4964   5.169   0.151   3.585
 1574WAT     H2 4965   5.301   0.072   3.638
 1575WAT      O 4966   5.783   2.274   0.311
 1575WAT     H1 4967   5.841   2.252   0.233
 1575WAT     H2 4968   5.786   2.373   0.328
 1576WAT      O 4969   5.529   7.893   2.020
 1576WAT     H1 4970   5.561   7.884   2.114
 1576WAT     H2 4971   5.443   7.844   2.009
 1577WAT      O 4972   5.734   9.034   7.761
 1577WAT     H1 4973   5.715   9.049   7.858
 1577WAT     H2 4974   5.658   8.984   7.719
 1578WAT      O 4975   0.320   0.161   7.383
 1578WAT     H1 4976   0.281   0.076   7.347
 1578WAT     H2 4977   0.257   0.236   7.366
 1579WAT      O 4978   4.643   9.582   8.830
 1579WAT     H1 4979   4.657   9.675   8.794
 1579WAT     H2 4980   4.630   9.519   8.753
 1580WAT      O 4981   0.630   4.390   4.368
 1580WAT     H1 4982   0.714   4.335   4.364
 1580WAT     H2 4983   0.652   4.483   4.396
 1581WAT      O 4984   2.290   2.406   4.093
 1581WAT     H1 4985   2.220   2.475   4.074
 1581WAT     H2 4986   2.296   2.390   4.192
 1582WAT      O 4987   2.154   8.846   0.762
 1582WAT     H1 4988   2.105   8.790   0.694
 1582WAT     H2 4989   2.130   8.942   0.748
 1583WAT      O 4990   4.510   4.651   1.164
 1583WAT     H1 4991   4.486   4.666   1.068
 1583WAT     H2 4992   4.516   4.739   1.211
 1584WAT      O 4993   5.070   8.769   0.733
 1584WAT     H1 4994   5.024   8.818   0.807
 1584WAT     H2 4995   5.113   8.836   0.671
 1585WAT      O 4996   8.353   2.234   5.464
 1585WAT     H1 4997   8.295   2.315   5.465
 1585WAT     H2 4998   8.385   2.215   5.371
 1586WAT      O 4999   6.855   5.525   5.584
 1586WAT     H1 5000   6.759   5.537   5.609
 1586WAT     H2 5001   6.862   5.484   5.494
 1587WAT      O 5002   4.654   3.292   8.721
 1587WAT     H1 5003   4.655   3.365   8.653
 1587WAT     H2 5004   4.594   3.218   8.690
 1588WAT      O 5005   2.986   7.559   1.362
 1588WAT     H1 5006   3.041   7.492   1.412
 1588WAT     H2 5007   2.915   7.512   1.310
 1589WAT      O 5008   1.749   7.220   1.765
 1589WAT     H1 5009   1.686   7.274   1.821
 1589WAT     H2 5010   1.837   7.267   1.759
 1590WAT      O 5011   0.609   2.799   0.012
 1590WAT     H1 5012   0.564   2.729   0.068
 1590WAT     H2 5013   0.649   2.869   0.072
 1591WAT      O 5014   4.148   3.505   5.104
 1591WAT     H1 5015   4.049   3.497   5.092
 1591WAT     H2 5016   4.168   3.548   5.192
 1592WAT      O 5017   2.360   5.827   3.834
 1592WAT     H1 5018   2.359   5.799   3.930
 1592WAT     H2 5019   2.399   5.918   3.826
 1593WAT      O 5020   2.692   1.411   2.665
 1593WAT     H1 5021   2.770   1.442   2.719
 1593WAT     H2 5022   2.723   1.346   2.596
 1594WAT      O 5023   1.978   2.066   7.299
 1594WAT     H1 5024   1.937   1.975   7.308
 1594WAT     H2 5025   1.925   2.132   7.352
 1595WAT      O 5026   3.778   0.176   4.165
 1595WAT     H1 5027   3.834   0.188   4.247
 1595WAT     H2 5028   3.733   0.262   4.142
 1596WAT      O 5029   5.691   9.340   6.866
 1596WAT     H1 5030   5.726   9.380   6.782
 1596WAT     H2 5031   5.594   9.317   6.855
 1597WAT      O 5032   0.082   5.876   0.562
 1597WAT     H1 5033   0.176   5.867   0.529
 1597WAT     H2 5034   0.077   5.845   0.657
 1598WAT      O 5035   0.671   6.216   5.740
 1598WAT     H1 5036   0.660   6.179   5.832
 1598WAT     H2 5037   0.715   6.305   5.744
 1599WAT      O 5038   7.227   3.128   6.164
 1599WAT     H1 5039   7.258   3.101   6.256
 1599WAT     H2 5040   7.147   3.073   6.138
 1600WAT      O 5041   5.326   8.579   9.855
 1600WAT     H1 5042   5.259   8.611   9.922
 1600WAT     H2 5043   5.418   8.600   9.888
 1601WAT      O 5044   9.756   9.489   7.242
 1601WAT     H1 5045   9.736   9.583   7.217
 1601WAT     H2 5046   9.854   9.478   7.256
 1602WAT      O 5047   7.131   3.866   2.601
 1602WAT     H1 5048   7.218   3.824   2.577
 1602WAT     H2 5049   7.067   3.857   2.524
 1603WAT      O 5050   6.956   6.790   6.622
 1603WAT     H1 5051   6.967   6.721   6.550
 1603WAT     H2 5052   6.954   6.881   6.581
 1604WAT      O 5053   1.680   9.134   8.321
 1604WAT     H1 5054   1.618   9.183   8.383
 1604WAT     H2 5055   1.647   9.040   8.309
 1605WAT      O 5056   1.219   6.886   1.314
 1605WAT     H1 5057   1.294   6.885   1.381
 1605WAT     H2 5058   1.236   6.956   1.245
 1606WAT      O 5059   8.162   3.778   5.730
 1606WAT     H1 5060   8.090   3.790   5.662
 1606WAT     H2 5061   8.128   3.804   5.821
 1607WAT      O 5062   4.674   8.439   7.048
 1607WAT     H1 5063   4.646   8.447   7.144
 1607WAT     H2 5064   4.648   8.350   7.013
 1608WAT      O 5065   0.516   6.739   4.526
 1608WAT     H1 5066   0.441   6.779   4.578
 1608WAT     H2 5067   0.492   6.646   4.498
 1609WAT      O 5068   1.331   0.536   3.998
 1609WAT     H1 5069   1.303   0.550   4.093
 1609WAT     H2 5070   1.428   0.510   3.996
 1610WAT      O 5071   9.029   8.996   1.602
 1610WAT     H1 5072   8.990   9.084   1.629
 1610WAT     H2 5073   9.021   8.984   1.503
 1611WAT      O 5074   7.758   7.824   5.006
 1611WAT     H1 5075   7.672   7.860   4.971
 1611WAT     H2 5076   7.834   7.882   4.974
 1612WAT      O 5077   2.986   8.657   6.156
 1612WAT     H1 5078   2.986   8.644   6.256
 1612WAT     H2 5079   2.894   8.638   6.121
 1613WAT      O 5080   4.503   9.036   9.658
 1613WAT     H1 5081   4.595   9.020   9.693
 1613WAT     H2 5082   4.443   8.962   9.687
 1614WAT      O 5083   2.302   4.878   9.650
 1614WAT     H1 5084   2.289   4.959   9.707
 1614WAT     H2 5085   2.271   4.797   9.698
 1615WAT      O 5086   2.391   6.805   3.290
 1615WAT     H1 5087   2.307   6.789   3.342
 1615WAT     H2 5088   2.375   6.786   3.193
 1616WAT      O 5089   2.806   2.232   5.522
 1616WAT     H1 5090   2.858   2.294   5.580
 1616WAT     H2 5091   2.715   2.219   5.561
 1617WAT      O 5092   4.868   1.654   2.623
 1617WAT     H1 5093   4.962   1.645   2.655
 1617WAT     H2 5094   4.865   1.714   2.543
 1618WAT      O 5095   4.102   0.062   4.696
 1618WAT     H1 5096   4.069   0.134   4.635
 1618WAT     H2 5097   4.033   0.042   4.765
 1619WAT      O 5098   1.068   3.264   5.735
 1619WAT     H1 5099   1.069   3.218   5.647
 1619WAT     H2 5100   1.162   3.276   5.768
 1620WAT      O 5101   6.911   9.803   8.099
 1620WAT     H1 5102   7.000   9.761   8.119
 1620WAT     H2 5103   6.864   9.749   8.029
 1621WAT      O 5104   6.847   1.741   4.083
 1621WAT     H1 5105   6.881   1.817   4.139
 1621WAT     H2 5106   6.922   1.677   4.066
 1622WAT      O 5107   2.257   4.363   3.624
 1622WAT     H1 5108   2.230   4.457   3.644
 1622WAT     H2 5109   2.333   4.336   3.684
 1623WAT      O 5110   9.729   3.975   7.133
 1623WAT     H1 5111   9.645   4.021   7.162
 1623WAT     H2 5112   9.741   3.892   7.187
 1624WAT      O 5113   1.273   8.834   1.294
 1624WAT     H1 5114   1.219   8.918   1.298
 1624WAT     H2 5115   1.326   8.824   1.378
 1625WAT      O 5116   2.308   3.878   3.512
 1625WAT     H1 5117   2.278   3.917   3.425
 1625WAT     H2 5118   2.384   3.932   3.548
 1626WAT      O 5119   6.900   9.800   8.514
 1626WAT     H1 5120   6.831   9.821   8.445
 1626WAT     H2 5121   6.965   9.876   8.521
 1627WAT      O 5122   8.880   7.051   9.745
 1627WAT     H1 5123   8.884   7.065   9.646
 1627WAT     H2 5124   8.836   7.131   9.787
 1628WAT      O 5125   3.959   2.105   4.777
 1628WAT     H1 5126   4.024   2.148   4.714
 1628WAT     H2 5127   3.866   2.116   4.742
 1629WAT      O 5128   1.434   7.814   2.645
 1629WAT     H1 5129   1.443   7.715   2.656
 1629WAT     H2 5130   1.524   7.856   2.638
 1630WAT      O 5131   7.430   5.572   1.794
 1630WAT     H1 5132   7.443   5.486   1.844
 1630WAT     H2 5133   7.515   5.596   1.746
 1631WAT      O 5134   8.334   5.809   3.215
 1631WAT     H1 5135   8.358   5.872   3.288
 1631WAT     H2 5136   8.417   5.770   3.176
 1632WAT      O 5137   6.548   4.037   4.893
 1632WAT     H1 5138   6.576   3.948   4.928
 1632WAT     H2 5139   6.623   4.078   4.842
 1633WAT      O 5140   8.505   4.715   9.431
 1633WAT     H1 5141   8.484   4.710   9.529
 1633WAT     H2 5142   8.601   4.692   9.416
 1634WAT      O 5143   7.339   4.035   9.288
 1634WAT     H1 5144   7.401   3.979   9.233
 1634WAT     H2 5145   7.244   4.014   9.263
 1635WAT      O 5146   1.258   9.734   3.757
 1635WAT     H1 5147   1.197   9.720   3.836
 1635WAT     H2 5148   1.347   9.766   3.789
 1636WAT      O 5149   6.742   2.951   6.562
 1636WAT     H1 5150   6.692   2.959   6.476
 1636WAT     H2 5151   6.702   3.013   6.630
 1637WAT      O 5152   5.706   7.819   3.737
 1637WAT     H1 5153   5.678   7.737   3.787
 1637WAT     H2 5154   5.791   7.854   3.775
 1638WAT      O 5155   8.415   8.679   7.295
 1638WAT     H1 5156   8.409   8.581   7.275
 1638WAT     H2 5157   8.470   8.693   7.377
 1639WAT      O 5158   7.144   7.468   9.517
 1639WAT     H1 5159   7.211   7.522   9.466
 1639WAT     H2 5160   7.114   7.520   9.597
 1640WAT      O 5161   4.167   5.783   3.249
 1640WAT     H1 5162   4.224   5.769   3.330
 1640WAT     H2 5163   4.107   5.862   3.263
 1641WAT      O 5164   7.707   5.756   2.439
 1641WAT     H1 5165   7.642   5.697   2.486
 1641WAT     H2 5166   7.740   5.827   2.501
 1642WAT      O 5167   5.048   7.303   3.423
 1642WAT     H1 5168   5.034   7.204   3.425
 1642WAT     H2 5169   5.027   7.341   3.513
 1643WAT      O 5170   7.562   6.107   3.735
 1643WAT     H1 5171   7.587   6.145   3.824
 1643WAT     H2 5172   7.476   6.148   3.705
 1644WAT      O 5173   5.227   4.512   9.682
 1644WAT     H1 5174   5.302   4.536   9.744
 1644WAT     H2 5175   5.245   4.550   9.591
 1645WAT      O 5176   2.017   7.312   6.588
 1645WAT     H1 5177   2.100   7.282   6.541
 1645WAT     H2 5178   2.042   7.366   6.668
 1646WAT      O 5179   4.870   5.777   8.165
 1646WAT     H1 5180   4.966   5.752   8.154
 1646WAT     H2 5181   4.863   5.871   8.197
 1647WAT      O 5182   9.067   7.250   2.997
 1647WAT     H1 5183   9.151   7.209   2.961
 1647WAT     H2 5184   9.067   7.243   3.097
 1648WAT      O 5185   0.878   8.513   0.165
 1648WAT     H1 5186   0.893   8.465   0.078
 1648WAT     H2 5187   0.963   8.555   0.195
 1649WAT      O 5188   6.986   7.943   5.141
 1649WAT     H1 5189   7.073   7.915   5.098
 1649WAT     H2 5190   7.003   8.020   5.202
 1650WAT      O 5191   2.634   0.111   9.843
 1650WAT     H1 5192   2.637   0.207   9.817
 1650WAT     H2 5193   2.722   0.068   9.820
 1651WAT      O 5194   4.948   8.124   0.364
 1651WAT     H1 5195   4.918   8.062   0.292
 1651WAT     H2 5196   5.040   8.156   0.344
 1652WAT      O 5197   5.821   7.987   0.237
 1652WAT     H1 5198   5.884   7.913   0.214
 1652WAT     H2 5199   5.764   8.009   0.158
 1653WAT      O 5200   6.735   3.387   8.542
 1653WAT     H1 5201   6.649   3.337   8.529
 1653WAT     H2 5202   6.804   3.351   8.480
 1654WAT      O 5203   5.210   6.860   3.438
 1654WAT     H1 5204   5.306   6.832   3.432
 1654WAT     H2 5205   5.156   6.811   3.370
 1655WAT      O 5206   8.909   3.568   8.458
 1655WAT     H1 5207   8.855   3.632   8.512
 1655WAT     H2 5208   9.003   3.567   8.492
 1656WAT      O 5209   3.056   9.041   3.548
 1656WAT     H1 5210   3.102   9.026   3.460
 1656WAT     H2 5211   3.124   9.053   3.620
 1657WAT      O 5212   1.244   1.169   0.283
 1657WAT     H1 5213   1.194   1.083   0.289
 1657WAT     H2 5214   1.190   1.236   0.233
 1658WAT      O 5215   5.233   2.716   4.764
 1658WAT     H1 5216   5.197   2.781   4.697
 1658WAT     H2 5217   5.173   2.636   4.769
 1659WAT      O 5218   3.164   7.751   1.293
 1659WAT     H1 5219   3.085   7.690   1.302
 1659WAT     H2 5220   3.157   7.802   1.207
 1660WAT      O 5221   1.604   9.804   6.391
 1660WAT     H1 5222   1.562   9.816   6.481
 1660WAT     H2 5223   1.694   9.764   6.401
 1661WAT      O 5224   9.021   4.325   3.510
 1661WAT     H1 5225   8.933   4.321   3.463
 1661WAT     H2 5226   9.093   4.288   3.451
 1662WAT      O 5227   1.530   8.408   2.875
 1662WAT     H1 5228   1.539   8.505   2.898
 1662WAT     H2 5229   1.618   8.362   2.890
 1663WAT      O 5230   4.249   1.385   8.501
 1663WAT     H1 5231   4.167   1.413   8.451
 1663WAT     H2 5232   4.247   1.424   8.593
 1664WAT      O 5233   6.903   4.573   1.235
 1664WAT     H1 5234   6.934   4.506   1.167
 1664WAT     H2 5235   6.906   4.664   1.195
 1665WAT      O 5236   1.288   5.453   6.444
 1665WAT     H1 5237   1.326   5.513   6.514
 1665WAT     H2 5238   1.350   5.376   6.428
 1666WAT      O 5239   9.185   4.268   4.354
 1666WAT     H1 5240   9.181   4.187   4.296
 1666WAT     H2 5241   9.110   4.266   4.420
 1667WAT      O 5242   9.350   8.182   3.630
 1667WAT     H1 5243   9.265   8.226   3.604
 1667WAT     H2 5244   9.416   8.251   3.661
 1668WAT      O 5245   3.037   2.445   5.886
 1668WAT     H1 5246   3.008   2.472   5.978
 1668WAT     H2 5247   3.130   2.408   5.889
 1669WAT      O 5248   2.192   9.564   8.139
 1669WAT     H1 5249   2.224   9.526   8.226
 1669WAT     H2 5250   2.191   9.493   8.069
 1670WAT      O 5251   8.387   0.549   8.556
 1670WAT     H1 5252   8.290   0.527   8.543
 1670WAT     H2 5253   8.418   0.510   8.642
 1671WAT      O 5254   4.381   9.657   0.594
 1671WAT     H1 5255   4.425   9.665   0.684
 1671WAT     H2 5256   4.287   9.689   0.600
 1672WAT      O 5257   9.822   1.567   7.138
 1672WAT     H1 5258   9.763   1.486   7.143
 1672WAT     H2 5259   9.842   1.588   7.042
 1673WAT      O 5260   7.405   2.003   0.384
 1673WAT     H1 5261   7.381   2.083   0.329
 1673WAT     H2 5262   7.484   2.023   0.441
 1674WAT      O 5263   6.843   5.342   9.756
 1674WAT     H1 5264   6.858   5.425   9.810
 1674WAT     H2 5265   6.930   5.309   9.720
 1675WAT      O 5266   2.139   8.375   0.738
 1675WAT     H1 5267   2.090   8.292   0.710
 1675WAT     H2 5268   2.137   8.382   0.838
 1676WAT      O 5269   5.297   2.434   5.647
 1676WAT     H1 5270   5.199   2.453   5.654
 1676WAT     H2 5271   5.328   2.386   5.729
 1677WAT      O 5272   6.106   7.077   3.436
 1677WAT     H1 5273   6.177   7.006   3.430
 1677WAT     H2 5274   6.050   7.061   3.517
 1678WAT      O 5275   0.280   7.317   5.612
 1678WAT     H1 5276   0.362   7.286   5.564
 1678WAT     H2 5277   0.265   7.259   5.692
 1679WAT      O 5278   8.830   3.536   2.790
 1679WAT     H1 5279   8.772   3.473   2.840
 1679WAT     H2 5280   8.791   3.628   2.795
 1680WAT      O 5281   5.091   4.027   6.382
 1680WAT     H1 5282   5.121   4.123   6.379
 1680WAT     H2 5283   5.096   3.988   6.290
 1681WAT      O 5284   2.295   9.216   6.646
 1681WAT     H1 5285   2.322   9.155   6.572
 1681WAT     H2 5286   2.369   9.224   6.712
 1682WAT      O 5287   7.759   9.750   5.928
 1682WAT     H1 5288   7.853   9.748   5.894
 1682WAT     H2 5289   7.700   9.795   5.860
 1683WAT      O 5290   8.550   7.760   2.689
 1683WAT     H1 5291   8.594   7.695   2.751
 1683WAT     H2 5292   8.589   7.851   2.702
 1684WAT      O 5293   3.025   1.132   0.604
 1684WAT     H1 5294   3.029   1.170   0.696
 1684WAT     H2 5295   3.118   1.119   0.570
 1685WAT      O 5296   6.993   5.758   1.836
 1685WAT     H1 5297   7.030   5.809   1.914
 1685WAT     H2 5298   6.906   5.798   1.809
 1686WAT      O 5299   2.635   3.835   2.071
 1686WAT     H1 5300   2.560   3.793   2.123
 1686WAT     H2 5301   2.676   3.766   2.011
 1687WAT      O 5302   0.686   1.661   2.637
 1687WAT     H1 5303   0.752   1.673   2.563
 1687WAT     H2 5304   0.657   1.565   2.640
 1688WAT      O 5305   4.556   1.043   7.201
 1688WAT     H1 5306   4.480   1.028   7.264
 1688WAT     H2 5307   4.564   0.966   7.138
 1689WAT      O 5308   3.985   7.295   3.415
 1689WAT     H1 5309   3.934   7.313   3.500
 1689WAT     H2 5310   3.937   7.336   3.338
 1690WAT      O 5311   9.482   0.113   9.572
 1690WAT     H1 5312   9.503   0.017   9.553
 1690WAT     H2 5313   9.558   0.171   9.541
 1691WAT      O 5314   5.208   7.025   3.050
 1691WAT     H1 5315   5.199   6.932   3.014
 1691WAT     H2 5316   5.205   7.091   2.975
 1692WAT      O 5317   1.910   0.705   9.552
 1692WAT     H1 5318   1.865   0.617   9.563
 1692WAT     H2 5319   1.860   0.760   9.485
 1693WAT      O 5320   0.216   7.207   1.760
 1693WAT     H1 5321   0.255   7.285   1.808
 1693WAT     H2 5322   0.248   7.207   1.665
 1694WAT      O 5323   2.753   5.024   0.523
 1694WAT     H1 5324   2.740   5.089   0.448
 1694WAT     H2 5325   2.674   5.028   0.585
 1695WAT      O 5326   1.683   7.155   6.875
 1695WAT     H1 5327   1.713   7.114   6.961
 1695WAT     H2 5328   1.720   7.247   6.867
 1696WAT      O 5329   2.197   0.585   9.554
 1696WAT     H1 5330   2.176   0.646   9.630
 1696WAT     H2 5331   2.121   0.584   9.490
 1697WAT      O 5332   5.057   8.783   3.407
 1697WAT     H1 5333   5.107   8.858   3.364
 1697WAT     H2 5334   5.081   8.779   3.504
 1698WAT      O 5335   0.557   3.896   1.605
 1698WAT     H1 5336   0.592   3.965   1.542
 1698WAT     H2 5337   0.626   3.824   1.617
 1699WAT      O 5338   9.827   9.748   8.434
 1699WAT     H1 5339   9.915   9.795   8.429
 1699WAT     H2 5340   9.756   9.812   8.463
 1700WAT      O 5341   4.032   0.161   3.548
 1700WAT     H1 5342   4.029   0.243   3.491
 1700WAT     H2 5343   4.037   0.080   3.489
 1701WAT      O 5344   1.772   2.418   3.846
 1701WAT     H1 5345   1.823   2.366   3.777
 1701WAT     H2 5346   1.674   2.402   3.835
 1702WAT      O 5347   1.194   3.436   7.854
 1702WAT     H1 5348   1.271   3.498   7.868
 1702WAT     H2 5349   1.221   3.344   7.879
 1703WAT      O 5350   7.229   5.878   4.472
 1703WAT     H1 5351   7.165   5.822   4.420
 1703WAT     H2 5352   7.178   5.945   4.526
 1704WAT      O 5353   1.328   9.332   0.558
 1704WAT     H1 5354   1.353   9.258   0.621
 1704WAT     H2 5355   1.283   9.405   0.610
 1705WAT      O 5356   0.028   7.732   6.369
 1705WAT     H1 5357  -0.029   7.766   6.295
 1705WAT     H2 5358   0.026   7.797   6.445
 1706WAT      O 5359   5.760   0.131   4.030
 1706WAT     H1 5360   5.743   0.143   3.932
 1706WAT     H2 5361   5.849   0.086   4.043
 1707WAT      O 5362   0.369   7.615   4.584
 1707WAT     H1 5363   0.298   7.684   4.568
 1707WAT     H2 5364   0.447   7.657   4.629
 1708WAT      O 5365   2.416   0.576   3.448
 1708WAT     H1 5366   2.429   0.583   3.349
 1708WAT     H2 5367   2.457   0.491   3.481
 1709WAT      O 5368   6.305   2.474   6.094
 1709WAT     H1 5369   6.337   2.483   6.188
 1709WAT     H2 5370   6.319   2.381   6.062
 1710WAT      O 5371   0.690   3.943   7.310
 1710WAT     H1 5372   0.708   4.015   7.243
 1710WAT     H2 5373   0.766   3.938   7.375
 1711WAT      O 5374   6.456   2.545   6.822
 1711WAT     H1 5375   6.477   2.585   6.911
 1711WAT     H2 5376   6.361   2.513   6.821
 1712WAT      O 5377   7.250   9.113   8.787
 1712WAT     H1 5378   7.237   9.037   8.852
 1712WAT     H2 5379   7.290   9.077   8.703
 1713WAT      O 5380   3.917   7.500   4.231
 1713WAT     H1 5381   3.986   7.523   4.162
 1713WAT     H2 5382   3.881   7.409   4.213
 1714WAT      O 5383   5.546   1.868   3.103
 1714WAT     H1 5384   5.633   1.826   3.078
 1714WAT     H2 5385   5.561   1.937   3.174
 1715WAT      O 5386   2.528   1.358   2.208
 1715WAT     H1 5387   2.487   1.409   2.132
 1715WAT     H2 5388   2.513   1.408   2.293
 1716WAT      O 5389   4.285   7.819   8.402
 1716WAT     H1 5390   4.244   7.729   8.390
 1716WAT     H2 5391   4.267   7.852   8.495
 1717WAT      O 5392   2.278   3.317   0.694
 1717WAT     H1 5393   2.332   3.368   0.628
 1717WAT     H2 5394   2.314   3.224   0.703
 1718WAT      O 5395   3.155   1.304   3.699
 1718WAT     H1 5396   3.091   1.230   3.677
 1718WAT     H2 5397   3.179   1.299   3.796
 1719WAT      O 5398   3.944   8.221   1.651
 1719WAT     H1 5399   3.883   8.299   1.638
 1719WAT     H2 5400   3.982   8.223   1.744
 1720WAT      O 5401   1.376   4.608   8.923
 1720WAT     H1 5402   1.448   4.654   8.976
 1720WAT     H2 5403   1.417   4.563   8.844
 1721WAT      O 5404   2.374   4.808   8.285
 1721WAT     H1 5405   2.441   4.773   8.351
 1721WAT     H2 5406   2.415   4.810   8.194
 1722WAT      O 5407   6.338   7.979   1.551
 1722WAT     H1 5408   6.384   7.959   1.464
 1722WAT     H2 5409   6.242   7.999   1.534
 1723WAT      O 5410   1.144   5.338   6.896
 1723WAT     H1 5411   1.229   5.299   6.931
 1723WAT     H2 5412   1.080   5.264   6.875
 1724WAT      O 5413   9.803   4.387   5.148
 1724WAT     H1 5414   9.844   4.420   5.233
 1724WAT     H2 5415   9.832   4.293   5.131
 1725WAT      O 5416   5.418   2.337   9.652
 1725WAT     H1 5417   5.341   2.395   9.677
 1725WAT     H2 5418   5.498   2.393   9.634
 1726WAT      O 5419   5.761   1.001   0.953
 1726WAT     H1 5420   5.802   1.002   0.862
 1726WAT     H2 5421   5.679   1.058   0.954
 1727WAT      O 5422   8.070   6.247   3.528
 1727WAT     H1 5423   8.023   6.186   3.591
 1727WAT     H2 5424   8.115   6.193   3.456
 1728WAT      O 5425   4.748   6.333   7.313
 1728WAT     H1 5426   4.708   6.321   7.222
 1728WAT     H2 5427   4.676   6.361   7.378
 1729WAT      O 5428   8.308   0.435   9.695
 1729WAT     H1 5429   8.311   0.489   9.779
 1729WAT     H2 5430   8.365   0.478   9.625
 1730WAT      O 5431   9.318   8.020   7.674
 1730WAT     H1 5432   9.321   8.087   7.748
 1730WAT     H2 5433   9.382   8.047   7.602
 1731WAT      O 5434   9.347   0.136   9.196
 1731WAT     H1 5435   9.379   0.050   9.236
 1731WAT     H2 5436   9.250   0.129   9.176
 1732WAT      O 5437   8.538   5.400   3.729
 1732WAT     H1 5438   8.572   5.449   3.648
 1732WAT     H2 5439   8.457   5.446   3.764
 1733WAT      O 5440   7.280   9.113   0.072
 1733WAT     H1 5441   7.288   9.211   0.054
 1733WAT     H2 5442   7.361   9.066   0.036
 1734WAT      O 5443   1.106   9.260   3.089
 1734WAT     H1 5444   1.177   9.291   3.027
 1734WAT     H2 5445   1.063   9.339   3.133
 1735WAT      O 5446   7.290   2.424   1.031
 1735WAT     H1 5447   7.290   2.504   0.970
 1735WAT     H2 5448   7.291   2.341   0.975
 1736WAT      O 5449   2.019   3.542   7.762
 1736WAT     H1 5450   2.055   3.487   7.686
 1736WAT     H2 5451   1.921   3.556   7.748
 1737WAT      O 5452   7.119   5.922   4.998
 1737WAT     H1 5453   7.063   5.896   5.076
 1737WAT     H2 5454   7.215   5.927   5.026
 1738WAT      O 5455   8.398   9.093   4.852
 1738WAT     H1 5456   8.399   9.025   4.924
 1738WAT     H2 5457   8.478   9.153   4.861
 1739WAT      O 5458   2.197   7.857   5.432
 1739WAT     H1 5459   2.248   7.822   5.511
 1739WAT     H2 5460   2.129   7.790   5.403
 1740WAT      O 5461   7.234   8.183   4.555
 1740WAT     H1 5462   7.244   8.088   4.524
 1740WAT     H2 5463   7.315   8.210   4.608
 1741WAT      O 5464   6.390   3.305   4.782
 1741WAT     H1 5465   6.369   3.358   4.701
 1741WAT     H2 5466   6.343   3.345   4.861
 1742WAT      O 5467   7.134   5.461   8.190
 1742WAT     H1 5468   7.148   5.379   8.134
 1742WAT     H2 5469   7.221   5.488   8.231
 1743WAT      O 5470   1.523   1.638   9.260
 1743WAT     H1 5471   1.556   1.665   9.169
 1743WAT     H2 5472   1.568   1.694   9.330
 1744WAT      O 5473   6.076   1.670   6.554
 1744WAT     H1 5474   6.144   1.735   6.519
 1744WAT     H2 5475   6.077   1.587   6.498
 1745WAT      O 5476   3.255   9.732   9.768
 1745WAT     H1 5477   3.212   9.795   9.703
 1745WAT     H2 5478   3.244   9.768   9.861
 1746WAT      O 5479   2.199   3.722   9.130
 1746WAT     H1 5480   2.101   3.729   9.112
 1746WAT     H2 5481   2.246   3.802   9.093
 1747WAT      O 5482   0.255   5.193   1.933
 1747WAT     H1 5483   0.181   5.207   1.868
 1747WAT     H2 5484   0.342   5.218   1.890
 1748WAT      O 5485   3.115   8.279   0.041
 1748WAT     H1 5486   3.115   8.190  -0.005
 1748WAT     H2 5487   3.037   8.284   0.103
 1749WAT      O 5488   7.888   3.783   1.547
 1749WAT     H1 5489   7.826   3.756   1.621
 1749WAT     H2 5490   7.841   3.847   1.486
 1750WAT      O 5491   6.959   7.352   3.526
 1750WAT     H1 5492   6.877   7.377   3.475
 1750WAT     H2 5493   6.945   7.373   3.623
 1751WAT      O 5494   1.546   5.095   2.690
 1751WAT     H1 5495   1.526   5.192   2.678
 1751WAT     H2 5496   1.632   5.072   2.645
 1752WAT      O 5497   6.802   7.389   4.025
 1752WAT     H1 5498   6.795   7.292   4.045
 1752WAT     H2 5499   6.744   7.441   4.088
 1753WAT      O 5500   9.050   4.573   3.618
 1753WAT     H1 5501   9.126   4.623   3.579
 1753WAT     H2 5502   9.057   4.476   3.595
 1754WAT      O 5503   7.234   1.174   1.605
 1754WAT     H1 5504   7.213   1.212   1.515
 1754WAT     H2 5505   7.268   1.246   1.665
 1755WAT      O 5506   4.339   6.413   6.733
 1755WAT     H1 5507   4.277   6.349   6.778
 1755WAT     H2 5508   4.291   6.500   6.718
 1756WAT      O 5509   2.697   2.711   6.164
 1756WAT     H1 5510   2.711   2.810   6.164
 1756WAT     H2 5511   2.786   2.665   6.164
 1757WAT      O 5512   3.095   7.307   4.820
 1757WAT     H1 5513   3.122   7.403   4.829
 1757WAT     H2 5514   3.135   7.254   4.894
 1758WAT      O 5515   4.161   4.086   7.890
 1758WAT     H1 5516   4.202   4.037   7.967
 1758WAT     H2 5517   4.065   4.061   7.881
 1759WAT      O 5518   3.027   8.328   2.080
 1759WAT     H1 5519   3.014   8.368   2.170
 1759WAT     H2 5520   2.938   8.311   2.038
 1760WAT      O 5521   2.194   5.617   1.572
 1760WAT     H1 5522   2.120   5.561   1.535
 1760WAT     H2 5523   2.155   5.698   1.618
 1761WAT      O 5524   2.758   1.660   4.995
 1761WAT     H1 5525   2.727   1.728   5.061
 1761WAT     H2 5526   2.850   1.684   4.964
 1762WAT      O 5527   3.568   0.619   2.033
 1762WAT     H1 5528   3.602   0.713   2.031
 1762WAT     H2 5529   3.587   0.575   1.944
 1763WAT      O 5530   5.869   0.707   9.049
 1763WAT     H1 5531   5.899   0.803   9.050
 1763WAT     H2 5532   5.932   0.654   8.992
 1764WAT      O 5533   9.068   5.765   3.365
 1764WAT     H1 5534   9.148   5.789   3.420
 1764WAT     H2 5535   9.002   5.840   3.367
 1765WAT      O 5536   8.835   4.720   3.682
 1765WAT     H1 5537   8.801   4.757   3.595
 1765WAT     H2 5538   8.919   4.668   3.666
 1766WAT      O 5539   7.815   9.516   3.079
 1766WAT     H1 5540   7.809   9.611   3.111
 1766WAT     H2 5541   7.759   9.505   2.997
 1767WAT      O 5542   2.369   9.207   4.553
 1767WAT     H1 5543   2.280   9.196   4.597
 1767WAT     H2 5544   2.381   9.137   4.483
 1768WAT      O 5545   0.085   0.916   1.290
 1768WAT     H1 5546   0.152   0.885   1.222
 1768WAT     H2 5547   0.129   0.929   1.378
 1769WAT      O 5548   2.030   7.714   1.359
 1769WAT     H1 5549   2.083   7.743   1.279
 1769WAT     H2 5550   2.065   7.761   1.440
 1770WAT      O 5551   5.485   9.044   2.379
 1770WAT     H1 5552   5.561   8.979   2.376
 1770WAT     H2 5553   5.517   9.132   2.414
 1771WAT      O 5554   4.425   8.676   2.100
 1771WAT     H1 5555   4.500   8.741   2.109
 1771WAT     H2 5556   4.340   8.725   2.082
 1772WAT      O 5557   8.563   8.817   6.968
 1772WAT     H1 5558   8.586   8.721   6.980
 1772WAT     H2 5559   8.479   8.838   7.018
 1773WAT      O 5560   9.512   4.959   6.047
 1773WAT     H1 5561   9.527   4.979   6.144
 1773WAT     H2 5562   9.463   4.873   6.038
 1774WAT      O 5563   6.960   8.337   2.888
 1774WAT     H1 5564   6.996   8.244   2.904
 1774WAT     H2 5565   6.862   8.338   2.908
 1775WAT      O 5566   3.188   1.462   1.576
 1775WAT     H1 5567   3.094   1.487   1.597
 1775WAT     H2 5568   3.234   1.433   1.661
 1776WAT      O 5569   8.803   2.444   4.254
 1776WAT     H1 5570   8.792   2.467   4.157
 1776WAT     H2 5571   8.891   2.478   4.287
 1777WAT      O 5572   0.783   6.498   8.043
 1777WAT     H1 5573   0.835   6.417   8.070
 1777WAT     H2 5574   0.761   6.492   7.945
 1778WAT      O 5575   6.375   3.068   2.199
 1778WAT     H1 5576   6.445   2.998   2.208
 1778WAT     H2 5577   6.418   3.156   2.179
 1779WAT      O 5578   7.072   4.354   0.493
 1779WAT     H1 5579   7.085   4.256   0.486
 1779WAT     H2 5580   7.128   4.401   0.425
 1780WAT      O 5581   3.505   1.668   2.890
 1780WAT     H1 5582   3.512   1.574   2.857
 1780WAT     H2 5583   3.416   1.706   2.863
 1781WAT      O 5584   6.870   3.176   8.877
 1781WAT     H1 5585   6.792   3.184   8.816
 1781WAT     H2 5586   6.924   3.096   8.852
 1782WAT      O 5587   0.828   6.028   3.886
 1782WAT     H1 5588   0.740   6.050   3.929
 1782WAT     H2 5589   0.882   6.112   3.876
 1783WAT      O 5590   7.524   4.061   7.897
 1783WAT     H1 5591   7.455   3.999   7.934
 1783WAT     H2 5592   7.540   4.039   7.801
 1784WAT      O 5593   5.924   0.096   2.026
 1784WAT     H1 5594   5.848   0.097   1.960
 1784WAT     H2 5595   5.902   0.156   2.103
 1785WAT      O 5596   8.447   0.290   2.734
 1785WAT     H1 5597   8.379   0.222   2.706
 1785WAT     H2 5598   8.422   0.328   2.823
 1786WAT      O 5599   9.448   7.754   2.760
 1786WAT     H1 5600   9.545   7.731   2.752
 1786WAT     H2 5601   9.403   7.685   2.816
 1787WAT      O 5602   1.770   6.853   4.763
 1787WAT     H1 5603   1.764   6.776   4.699
 1787WAT     H2 5604   1.771   6.939   4.712
 1788WAT      O 5605   2.562   0.566   4.671
 1788WAT     H1 5606   2.490   0.499   4.692
 1788WAT     H2 5607   2.590   0.557   4.576
 1789WAT      O 5608   1.720   3.345   0.700
 1789WAT     H1 5609   1.749   3.393   0.617
 1789WAT     H2 5610   1.797   3.292   0.737
 1790WAT      O 5611   6.258   4.706   7.778
 1790WAT     H1 5612   6.288   4.641   7.847
 1790WAT     H2 5613   6.211   4.782   7.822
 1791WAT      O 5614   0.566   6.099   1.711
 1791WAT     H1 5615   0.555   6.196   1.687
 1791WAT     H2 5616   0.566   6.044   1.628
 1792WAT      O 5617   2.338   2.445   8.772
 1792WAT     H1 5618   2.364   2.539   8.797
 1792WAT     H2 5619   2.246   2.425   8.806
 1793WAT      O 5620   8.349   3.089   2.653
 1793WAT     H1 5621   8.405   3.097   2.571
 1793WAT     H2 5622   8.305   3.177   2.671
 1794WAT      O 5623   6.397   5.049   8.039
 1794WAT     H1 5624   6.301   5.062   8.063
 1794WAT     H2 5625   6.425   4.955   8.060
 1795WAT      O 5626   9.717   2.673   5.992
 1795WAT     H1 5627   9.762   2.587   6.017
 1795WAT     H2 5628   9.712   2.732   6.072
 1796WAT      O 5629   7.329   7.638   2.383
 1796WAT     H1 5630   7.276   7.573   2.438
 1796WAT     H2 5631   7.393   7.588   2.325
 1797WAT      O 5632   7.456   7.329   7.496
 1797WAT     H1 5633   7.364   7.310   7.461
 1797WAT     H2 5634   7.470   7.428   7.501
 1798WAT      O 5635   3.115   2.051   6.161
 1798WAT     H1 5636   3.120   2.022   6.065
 1798WAT     H2 5637   3.124   1.972   6.221
 1799WAT      O 5638   6.553   1.129   4.999
 1799WAT     H1 5639   6.608   1.193   4.946
 1799WAT     H2 5640   6.525   1.053   4.941
 1800WAT      O 5641   7.428   9.556   8.911
 1800WAT     H1 5642   7.476   9.481   8.865
 1800WAT     H2 5643   7.480   9.641   8.897
 1801WAT      O 5644   2.329   0.265   6.932
 1801WAT     H1 5645   2.245   0.218   6.902
 1801WAT     H2 5646   2.383   0.202   6.988
 1802WAT      O 5647   7.962   1.404   0.076
 1802WAT     H1 5648   8.039   1.463   0.054
 1802WAT     H2 5649   7.917   1.438   0.159
 1803WAT      O 5650   2.040   8.999   7.387
 1803WAT     H1 5651   2.057   8.970   7.293
 1803WAT     H2 5652   2.004   9.092   7.387
 1804WAT      O 5653   3.747   1.844   8.341
 1804WAT     H1 5654   3.670   1.815   8.283
 1804WAT     H2 5655   3.718   1.847   8.436
 1805WAT      O 5656   1.749   7.585   5.889
 1805WAT     H1 5657   1.660   7.612   5.925
 1805WAT     H2 5658   1.819   7.596   5.960
 1806WAT      O 5659   7.067   5.234   8.638
 1806WAT     H1 5660   7.157   5.276   8.631
 1806WAT     H2 5661   7.026   5.227   8.547
 1807WAT      O 5662   8.725   5.606   8.558
 1807WAT     H1 5663   8.728   5.519   8.606
 1807WAT     H2 5664   8.644   5.657   8.588
 1808WAT      O 5665   0.669   3.079   3.102
 1808WAT     H1 5666   0.695   3.175   3.111
 1808WAT     H2 5667   0.649   3.041   3.193
 1809WAT      O 5668   4.904   5.664   2.477
 1809WAT     H1 5669   4.997   5.701   2.477
 1809WAT     H2 5670   4.907   5.565   2.491
 1810WAT      O 5671   3.418   5.027   7.799
 1810WAT     H1 5672   3.466   5.109   7.767
 1810WAT     H2 5673   3.334   5.054   7.845
 1811WAT      O 5674   6.787   7.783   5.753
 1811WAT     H1 5675   6.715   7.740   5.699
 1811WAT     H2 5676   6.867   7.799   5.696
 1812WAT      O 5677   0.505   1.973   0.892
 1812WAT     H1 5678   0.538   1.905   0.827
 1812WAT     H2 5679   0.536   1.950   0.984
 1813WAT      O 5680   7.981   7.870   9.491
 1813WAT     H1 5681   7.943   7.888   9.401
 1813WAT     H2 5682   7.937   7.930   9.559
 1814WAT      O 5683   3.440   7.965   9.211
 1814WAT     H1 5684   3.354   7.976   9.162
 1814WAT     H2 5685   3.477   8.055   9.235
 1815WAT      O 5686   9.387   2.298   3.761
 1815WAT     H1 5687   9.379   2.335   3.854
 1815WAT     H2 5688   9.421   2.204   3.766
 1816WAT      O 5689   7.764   9.168   5.224
 1816WAT     H1 5690   7.698   9.121   5.166
 1816WAT     H2 5691   7.729   9.260   5.245
 1817WAT      O 5692   0.372   9.708   0.557
 1817WAT     H1 5693   0.360   9.775   0.483
 1817WAT     H2 5694   0.386   9.757   0.643
 1818WAT      O 5695   7.744   0.714   1.288
 1818WAT     H1 5696   7.716   0.751   1.377
 1818WAT     H2 5697   7.758   0.615   1.297
 1819WAT      O 5698   0.747   2.133   1.584
 1819WAT     H1 5699   0.802   2.066   1.534
 1819WAT     H2 5700   0.786   2.224   1.573
 1820WAT      O 5701   0.925   0.454   5.599
 1820WAT     H1 5702   0.958   0.363   5.624
 1820WAT     H2 5703   0.961   0.479   5.509
 1821WAT      O 5704   9.757   7.922   4.633
 1821WAT     H1 5705   9.732   7.877   4.718
 1821WAT     H2 5706   9.689   7.901   4.562
 1822WAT      O 5707   9.472   3.139   7.517
 1822WAT     H1 5708   9.416   3.210   7.474
 1822WAT     H2 5709   9.525   3.179   7.591
 1823WAT      O 5710   2.940   0.109   8.830
 1823WAT     H1 5711   2.938   0.100   8.929
 1823WAT     H2 5712   2.875   0.045   8.789
 1824WAT      O 5713   1.701   3.455   3.899
 1824WAT     H1 5714   1.721   3.357   3.898
 1824WAT     H2 5715   1.757   3.501   3.831
 1825WAT      O 5716   5.864   2.507   3.904
 1825WAT     H1 5717   5.770   2.527   3.932
 1825WAT     H2 5718   5.902   2.585   3.854
 1826WAT      O 5719   6.970   8.080   5.561
 1826WAT     H1 5720   7.004   7.989   5.583
 1826WAT     H2 5721   6.870   8.081   5.568
 1827WAT      O 5722   2.564   3.472   2.341
 1827WAT     H1 5723   2.535   3.549   2.284
 1827WAT     H2 5724   2.502   3.461   2.418
 1828WAT      O 5725   5.069   5.805   3.020
 1828WAT     H1 5726   5.038   5.824   3.113
 1828WAT     H2 5727   5.137   5.731   3.022
 1829WAT      O 5728   9.310   0.484   2.596
 1829WAT     H1 5729   9.350   0.422   2.664
 1829WAT     H2 5730   9.211   0.467   2.590
 1830WAT      O 5731   8.880   8.314   5.797
 1830WAT     H1 5732   8.902   8.412   5.789
 1830WAT     H2 5733   8.914   8.266   5.716
 1831WAT      O 5734   3.583   4.576   3.389
 1831WAT     H1 5735   3.681   4.559   3.398
 1831WAT     H2 5736   3.549   4.530   3.308
 1832WAT      O 5737   8.556   3.360   7.555
 1832WAT     H1 5738   8.599   3.344   7.644
 1832WAT     H2 5739   8.479   3.297   7.544
 1833WAT      O 5740   4.599   6.122   5.385
 1833WAT     H1 5741   4.562   6.030   5.373
 1833WAT     H2 5742   4.608   6.141   5.483
 1834WAT      O 5743   7.108   0.647   5.611
 1834WAT     H1 5744   7.013   0.644   5.579
 1834WAT     H2 5745   7.117   0.720   5.679
 1835WAT      O 5746   4.755   4.025   5.038
 1835WAT     H1 5747   4.822   4.018   4.964
 1835WAT     H2 5748   4.800   4.059   5.121
 1836WAT      O 5749   4.873   2.781   6.595
 1836WAT     H1 5750   4.883   2.696   6.542
 1836WAT     H2 5751   4.962   2.812   6.626
 1837WAT      O 5752   0.559   8.641   2.523
 1837WAT     H1 5753   0.532   8.557   2.571
 1837WAT     H2 5754   0.646   8.626   2.476
 1838WAT      O 5755   0.907   0.877   4.600
 1838WAT     H1 5756   0.990   0.931   4.615
 1838WAT     H2 5757   0.927   0.802   4.537
 1839WAT      O 5758   9.090   8.542   3.764
 1839WAT     H1 5759   9.188   8.557   3.759
 1839WAT     H2 5760   9.062   8.472   3.698
 1840WAT      O 5761   3.199   2.073   3.192
 1840WAT     H1 5762   3.234   2.162   3.221
 1840WAT     H2 5763   3.100   2.080   3.176
 1841WAT      O 5764   3.047   0.015   1.579
 1841WAT     H1 5765   2.979  -0.055   1.559
 1841WAT     H2 5766   3.135  -0.013   1.542
 1842WAT      O 5767   6.616   6.013   5.209
 1842WAT     H1 5768   6.671   6.009   5.125
 1842WAT     H2 5769   6.657   5.954   5.279
 1843WAT      O 5770   2.320   2.720   3.464
 1843WAT     H1 5771   2.345   2.659   3.539
 1843WAT     H2 5772   2.300   2.666   3.382
 1844WAT      O 5773   5.559   4.505   9.530
 1844WAT     H1 5774   5.510   4.519   9.617
 1844WAT     H2 5775   5.657   4.501   9.548
 1845WAT      O 5776   5.718   7.716   9.887
 1845WAT     H1 5777   5.804   7.746   9.847
 1845WAT     H2 5778   5.665   7.796   9.917
 1846WAT      O 5779   5.606   5.329   6.508
 1846WAT     H1 5780   5.602   5.245   6.453
 1846WAT     H2 5781   5.530   5.388   6.483
 1847WAT      O 5782   8.541   6.331   8.599
 1847WAT     H1 5783   8.630   6.370   8.576
 1847WAT     H2 5784   8.479   6.340   8.520
 1848WAT      O 5785   9.551   6.680   7.378
 1848WAT     H1 5786   9.617   6.610   7.406
 1848WAT     H2 5787   9.500   6.710   7.458
 1849WAT      O 5788   5.642   1.935   2.816
 1849WAT     H1 5789   5.653   2.006   2.886
 1849WAT     H2 5790   5.720   1.937   2.754
 1850WAT      O 5791   0.330   2.836   3.526
 1850WAT     H1 5792   0.363   2.889   3.604
 1850WAT     H2 5793   0.406   2.784   3.488
 1851WAT      O 5794   6.502   5.374   2.359
 1851WAT     H1 5795   6.546   5.293   2.398
 1851WAT     H2 5796   6.529   5.455   2.411
 1852WAT      O 5797   9.139   8.844   5.712
 1852WAT     H1 5798   9.160   8.840   5.614
 1852WAT     H2 5799   9.076   8.920   5.729
 1853WAT      O 5800   6.021   5.869   5.074
 1853WAT     H1 5801   6.096   5.810   5.042
 1853WAT     H2 5802   6.037   5.963   5.043
 1854WAT      O 5803   8.210   2.850   4.388
 1854WAT     H1 5804   8.264   2.784   4.336
 1854WAT     H2 5805   8.223   2.833   4.486
 1855WAT      O 5806   3.713   7.929   1.401
 1855WAT     H1 5807   3.803   7.887   1.383
 1855WAT     H2 5808   3.710   8.020   1.360
 1856WAT      O 5809   1.466   4.493   5.113
 1856WAT     H1 5810   1.376   4.450   5.107
 1856WAT     H2 5811   1.501   4.487   5.206
 1857WAT      O 5812   7.630   9.831   5.357
 1857WAT     H1 5813   7.698   9.776   5.307
 1857WAT     H2 5814   7.664   9.925   5.365
 1858WAT      O 5815   3.299   1.100   3.321
 1858WAT     H1 5816   3.391   1.123   3.289
 1858WAT     H2 5817   3.259   1.032   3.260
 1859WAT      O 5818   2.463   0.431   6.741
 1859WAT     H1 5819   2.481   0.360   6.674
 1859WAT     H2 5820   2.412   0.393   6.818
 1860WAT      O 5821   6.990   5.336   7.899
 1860WAT     H1 5822   7.023   5.294   7.814
 1860WAT     H2 5823   7.049   5.413   7.923
 1861WAT      O 5824   6.972   7.196   6.019
 1861WAT     H1 5825   6.936   7.103   6.029
 1861WAT     H2 5826   6.920   7.258   6.079
 1862WAT      O 5827   7.940   4.918   6.021
 1862WAT     H1 5828   7.921   4.840   6.080
 1862WAT     H2 5829   8.004   4.980   6.067
 1863WAT      O 5830   0.572   6.011   5.277
 1863WAT     H1 5831   0.487   5.959   5.283
 1863WAT     H2 5832   0.595   6.027   5.181
 1864WAT      O 5833   2.535   3.759   1.545
 1864WAT     H1 5834   2.487   3.839   1.582
 1864WAT     H2 5835   2.468   3.695   1.507
 1865WAT      O 5836   3.431   5.749   0.022
 1865WAT     H1 5837   3.394   5.676   0.080
 1865WAT     H2 5838   3.526   5.729  -0.002
 1866WAT      O 5839   7.620   8.490   5.085
 1866WAT     H1 5840   7.698   8.520   5.030
 1866WAT     H2 5841   7.650   8.474   5.179
 1867WAT      O 5842   3.829   1.998   9.432
 1867WAT     H1 5843   3.884   2.033   9.508
 1867WAT     H2 5844   3.762   2.068   9.405
 1868WAT      O 5845   9.673   2.947   1.778
 1868WAT     H1 5846   9.591   2.977   1.828
 1868WAT     H2 5847   9.693   3.013   1.706
 1869WAT      O 5848   8.770   3.530   4.724
 1869WAT     H1 5849   8.801   3.448   4.772
 1869WAT     H2 5850   8.681   3.559   4.759
 1870WAT      O 5851   9.407   1.306   0.308
 1870WAT     H1 5852   9.308   1.306   0.321
 1870WAT     H2 5853   9.429   1.268   0.218
 1871WAT      O 5854   3.510   6.407   4.772
 1871WAT     H1 5855   3.439   6.418   4.841
 1871WAT     H2 5856   3.511   6.313   4.740
 1872WAT      O 5857   6.007   8.061   2.209
 1872WAT     H1 5858   5.966   8.151   2.220
 1872WAT     H2 5859   6.104   8.065   2.232
 1873WAT      O 5860   5.445   3.886   7.845
 1873WAT     H1 5861   5.545   3.882   7.841
 1873WAT     H2 5862   5.413   3.845   7.931
 1874WAT      O 5863   9.429   8.967   5.656
 1874WAT     H1 5864   9.473   9.006   5.737
 1874WAT     H2 5865   9.364   8.896   5.684
 1875WAT      O 5866   3.110   0.341   9.507
 1875WAT     H1 5867   3.030   0.331   9.566
 1875WAT     H2 5868   3.193   0.322   9.559
 1876WAT      O 5869   5.764   0.815   5.651
 1876WAT     H1 5870   5.853   0.794   5.611
 1876WAT     H2 5871   5.767   0.904   5.696
 1877WAT      O 5872   5.736   1.799   1.405
 1877WAT     H1 5873   5.663   1.868   1.405
 1877WAT     H2 5874   5.779   1.796   1.315
 1878WAT      O 5875   0.761   2.413   3.228
 1878WAT     H1 5876   0.795   2.322   3.205
 1878WAT     H2 5877   0.812   2.448   3.306
 1879WAT      O 5878   1.830   0.241   4.142
 1879WAT     H1 5879   1.855   0.273   4.050
 1879WAT     H2 5880   1.902   0.264   4.206
 1880WAT      O 5881   8.550   0.658   2.499
 1880WAT     H1 5882   8.500   0.697   2.422
 1880WAT     H2 5883   8.492   0.658   2.580
 1881WAT      O 5884   9.080   3.565   4.691
 1881WAT     H1 5885   9.097   3.612   4.605
 1881WAT     H2 5886   8.985   3.532   4.693
 1882WAT      O 5887   7.586   9.121   8.809
 1882WAT     H1 5888   7.522   9.105   8.884
 1882WAT     H2 5889   7.571   9.053   8.737
 1883WAT      O 5890   2.212   9.117   4.993
 1883WAT     H1 5891   2.157   9.085   4.916
 1883WAT     H2 5892   2.158   9.179   5.049
 1884WAT      O 5893   2.138   1.035   5.030
 1884WAT     H1 5894   2.100   0.962   5.086
 1884WAT     H2 5895   2.106   1.024   4.935
 1885WAT      O 5896   5.528   8.960   9.333
 1885WAT     H1 5897   5.615   9.003   9.308
 1885WAT     H2 5898   5.465   9.030   9.367
 1886WAT      O 5899   0.010   9.798   1.339
 1886WAT     H1 5900   0.048   9.735   1.406
 1886WAT     H2 5901   0.030   9.892   1.366
 1887WAT      O 5902   4.897   6.085   4.947
 1887WAT     H1 5903   4.873   6.180   4.968
 1887WAT     H2 5904   4.893   6.071   4.848
 1888WAT      O 5905   4.118   4.356   2.454
 1888WAT     H1 5906   4.116   4.282   2.521
 1888WAT     H2 5907   4.176   4.329   2.377
 1889WAT      O 5908   9.640   1.502   8.877
 1889WAT     H1 5909   9.666   1.587   8.830
 1889WAT     H2 5910   9.550   1.472   8.846
 1890WAT      O 5911   8.512   2.403   7.004
 1890WAT     H1 5912   8.573   2.383   6.927
 1890WAT     H2 5913   8.517   2.330   7.071
 1891WAT      O 5914   5.662   6.017   1.489
 1891WAT     H1 5915   5.601   5.989   1.562
 1891WAT     H2 5916   5.651   5.956   1.410
 1892WAT      O 5917   7.693   6.540   3.358
 1892WAT     H1 5918   7.740   6.551   3.271
 1892WAT     H2 5919   7.755   6.501   3.426
 1893WAT      O 5920   7.974   7.723   7.641
 1893WAT     H1 5921   8.010   7.690   7.554
 1893WAT     H2 5922   7.998   7.659   7.714
 1894WAT      O 5923   9.653   0.693   8.702
 1894WAT     H1 5924   9.647   0.611   8.759
 1894WAT     H2 5925   9.563   0.733   8.691
 1895WAT      O 5926   1.578   3.893   2.148
 1895WAT     H1 5927   1.493   3.916   2.101
 1895WAT     H2 5928   1.573   3.799   2.182
 1896WAT      O 5929   3.756   8.829   2.173
 1896WAT     H1 5930   3.724   8.760   2.107
 1896WAT     H2 5931   3.791   8.783   2.255
 1897WAT      O 5932   4.128   9.587   7.593
 1897WAT     H1 5933   4.055   9.618   7.533
 1897WAT     H2 5934   4.130   9.644   7.675
 1898WAT      O 5935   8.867   0.613   9.160
 1898WAT     H1 5936   8.864   0.527   9.211
 1898WAT     H2 5937   8.779   0.630   9.116
 1899WAT      O 5938   8.169   8.629   3.340
 1899WAT     H1 5939   8.152   8.719   3.380
 1899WAT     H2 5940   8.262   8.600   3.361
 1900WAT      O 5941   0.311   6.394   1.976
 1900WAT     H1 5942   0.369   6.356   2.048
 1900WAT     H2 5943   0.240   6.327   1.952
 1901WAT      O 5944   7.629   4.412   1.654
 1901WAT     H1 5945   7.715   4.429   1.703
 1901WAT     H2 5946   7.553   4.410   1.720
 1902WAT      O 5947   2.511   0.225   6.558
 1902WAT     H1 5948   2.606   0.215   6.526
 1902WAT     H2 5949   2.455   0.261   6.484
 1903WAT      O 5950   7.054   6.350   9.461
 1903WAT     H1 5951   7.115   6.307   9.394
 1903WAT     H2 5952   7.074   6.448   9.467
 1904WAT      O 5953   4.369   9.837   4.475
 1904WAT     H1 5954   4.450   9.799   4.430
 1904WAT     H2 5955   4.353   9.789   4.561
 1905WAT      O 5956   4.986   6.207   7.332
 1905WAT     H1 5957   4.987   6.123   7.277
 1905WAT     H2 5958   4.894   6.245   7.333
 1906WAT      O 5959   2.269   2.637   9.454
 1906WAT     H1 5960   2.296   2.559   9.397
 1906WAT     H2 5961   2.171   2.632   9.474
 1907WAT      O 5962   2.084   8.292   7.607
 1907WAT     H1 5963   2.180   8.284   7.579
 1907WAT     H2 5964   2.080   8.343   7.693
 1908WAT      O 5965   2.308   4.383   5.320
 1908WAT     H1 5966   2.218   4.389   5.279
 1908WAT     H2 5967   2.377   4.417   5.255
 1909WAT      O 5968   8.332   8.919   2.571
 1909WAT     H1 5969   8.311   8.985   2.499
 1909WAT     H2 5970   8.401   8.854   2.538
 1910WAT      O 5971   7.060   8.748   2.541
 1910WAT     H1 5972   6.999   8.817   2.579
 1910WAT     H2 5973   7.007   8.668   2.512
 1911WAT      O 5974   1.482   1.960   9.772
 1911WAT     H1 5975   1.478   1.861   9.789
 1911WAT     H2 5976   1.545   1.979   9.698
 1912WAT      O 5977   0.964   4.084   5.496
 1912WAT     H1 5978   1.043   4.138   5.523
 1912WAT     H2 5979   0.888   4.101   5.559
 1913WAT      O 5980   4.894   6.590   0.729
 1913WAT     H1 5981   4.923   6.495   0.738
 1913WAT     H2 5982   4.795   6.594   0.719
 1914WAT      O 5983   0.983   4.609   4.562
 1914WAT     H1 5984   1.021   4.531   4.512
 1914WAT     H2 5985   0.883   4.603   4.562
 1915WAT      O 5986   9.491   7.290   3.523
 1915WAT     H1 5987   9.459   7.264   3.614
 1915WAT     H2 5988   9.518   7.386   3.523
 1916WAT      O 5989   9.524   4.899   1.844
 1916WAT     H1 5990   9.485   4.991   1.849
 1916WAT     H2 5991   9.541   4.875   1.749
 1917WAT      O 5992   2.122   0.873   2.605
 1917WAT     H1 5993   2.033   0.835   2.583
 1917WAT     H2 5994   2.114   0.930   2.687
 1918WAT      O 5995   3.481   1.543   9.054
 1918WAT     H1 5996   3.539   1.590   9.120
 1918WAT     H2 5997   3.391   1.587   9.052
 1919WAT      O 5998   0.018   6.006   2.228
 1919WAT     H1 5999  -0.079   5.999   2.253
 1919WAT     H2 6000   0.051   6.098   2.249
 1920WAT      O 6001   4.788   9.634   2.076
 1920WAT     H1 6002   4.875   9.587   2.088
 1920WAT     H2 6003   4.804   9.732   2.064
 1921WAT      O 6004   4.179   8.874   7.720
 1921WAT     H1 6005   4.124   8.905   7.798
 1921WAT     H2 6006   4.175   8.942   7.647
 1922WAT      O 6007   5.792   7.979   5.027
 1922WAT     H1 6008   5.792   7.886   5.063
 1922WAT     H2 6009   5.697   8.013   5.022
 1923WAT      O 6010   3.029   4.184   3.064
 1923WAT     H1 6011   3.058   4.251   3.132
 1923WAT     H2 6012   2.946   4.216   3.019
 1924WAT      O 6013   3.074   6.121   7.900
 1924WAT     H1 6014   3.069   6.160   7.807
 1924WAT     H2 6015   3.141   6.172   7.954
 1925WAT      O 6016   6.067   6.943   1.321
 1925WAT     H1 6017   6.041   6.862   1.269
 1925WAT     H2 6018   6.039   6.931   1.417
 1926WAT      O 6019   8.388   3.669   3.452
 1926WAT     H1 6020   8.344   3.697   3.366
 1926WAT     H2 6021   8.331   3.601   3.498
 1927WAT      O 6022   6.307   3.954   2.006
 1927WAT     H1 6023   6.263   4.034   2.047
 1927WAT     H2 6024   6.257   3.928   1.923
 1928WAT      O 6025   5.575   8.950   8.810
 1928WAT     H1 6026   5.654   8.942   8.871
 1928WAT     H2 6027   5.601   9.001   8.728
 1929WAT      O 6028   8.403   7.916   1.219
 1929WAT     H1 6029   8.480   7.890   1.278
 1929WAT     H2 6030   8.438   7.952   1.133
 1930WAT      O 6031   7.946   7.600   9.580
 1930WAT     H1 6032   7.924   7.647   9.495
 1930WAT     H2 6033   8.045   7.606   9.597
 1931WAT      O 6034   3.129   7.459   2.495
 1931WAT     H1 6035   3.031   7.440   2.498
 1931WAT     H2 6036   3.173   7.395   2.432
 1932WAT      O 6037   1.167   6.229   0.198
 1932WAT     H1 6038   1.134   6.135   0.212
 1932WAT     H2 6039   1.149   6.257   0.104
 1933WAT      O 6040   4.380   6.438   8.825
 1933WAT     H1 6041   4.393   6.525   8.777
 1933WAT     H2 6042   4.289   6.402   8.804
 1934WAT      O 6043   6.630   2.366   3.163
 1934WAT     H1 6044   6.689   2.406   3.093
 1934WAT     H2 6045   6.674   2.373   3.253
 1935WAT      O 6046   3.436   8.917   8.067
 1935WAT     H1 6047   3.491   8.935   7.985
 1935WAT     H2 6048   3.425   9.002   8.118
 1936WAT      O 6049   5.752   6.277   4.331
 1936WAT     H1 6050   5.804   6.362   4.327
 1936WAT     H2 6051   5.785   6.215   4.260
 1937WAT      O 6052   6.241   4.472   5.102
 1937WAT     H1 6053   6.333   4.471   5.140
 1937WAT     H2 6054   6.202   4.380   5.104
 1938WAT      O 6055   2.099   9.710   0.922
 1938WAT     H1 6056   2.055   9.715   1.012
 1938WAT     H2 6057   2.042   9.658   0.859
 1939WAT      O 6058   4.351   3.327   2.772
 1939WAT     H1 6059   4.264   3.290   2.803
 1939WAT     H2 6060   4.379   3.281   2.687
 1940WAT      O 6061   6.364   9.712   6.713
 1940WAT     H1 6062   6.349   9.803   6.752
 1940WAT     H2 6063   6.426   9.719   6.634
 1941WAT      O 6064   6.655   7.694   0.485
 1941WAT     H1 6065   6.707   7.621   0.441
 1941WAT     H2 6066   6.716   7.769   0.509
 1942WAT      O 6067   0.173   4.340   0.292
 1942WAT     H1 6068   0.206   4.288   0.213
 1942WAT     H2 6069   0.248   4.355   0.356
 1943WAT      O 6070   8.109   8.009   0.357
 1943WAT     H1 6071   8.152   7.925   0.390
 1943WAT     H2 6072   8.117   8.013   0.257
 1944WAT      O 6073   2.386   6.191   6.036
 1944WAT     H1 6074   2.399   6.099   6.074
 1944WAT     H2 6075   2.469   6.245   6.051
 1945WAT      O 6076   2.300   2.659   2.201
 1945WAT     H1 6077   2.397   2.684   2.210
 1945WAT     H2 6078   2.254   2.726   2.143
 1946WAT      O 6079   5.288   3.193   5.765
 1946WAT     H1 6080   5.301   3.219   5.670
 1946WAT     H2 6081   5.211   3.245   5.803
 1947WAT      O 6082   1.335   4.954   8.091
 1947WAT     H1 6083   1.378   4.992   8.009
 1947WAT     H2 6084   1.264   4.889   8.065
 1948WAT      O 6085   5.721   6.255   4.023
 1948WAT     H1 6086   5.678   6.165   4.033
 1948WAT     H2 6087   5.666   6.324   4.069
 1949WAT      O 6088   4.008   7.552   1.941
 1949WAT     H1 6089   4.056   7.637   1.919
 1949WAT     H2 6090   4.074   7.484   1.971
 1950WAT      O 6091   8.883   4.118   2.457
 1950WAT     H1 6092   8.929   4.080   2.537
 1950WAT     H2 6093   8.904   4.216   2.450
 1951WAT      O 6094   9.694   9.305   7.062
 1951WAT     H1 6095   9.608   9.291   7.012
 1951WAT     H2 6096   9.683   9.381   7.126
 1952WAT      O 6097   7.457   9.810   3.112
 1952WAT     H1 6098   7.554   9.792   3.129
 1952WAT     H2 6099   7.428   9.760   3.031
 1953WAT      O 6100   6.929   9.486   8.352
 1953WAT     H1 6101   6.940   9.489   8.253
 1953WAT     H2 6102   7.016   9.508   8.396
 1954WAT      O 6103   5.568   8.388   3.941
 1954WAT     H1 6104   5.490   8.439   3.977
 1954WAT     H2 6105   5.648   8.403   4.000
 1955WAT      O 6106   8.131   3.696   1.634
 1955WAT     H1 6107   8.095   3.626   1.696
 1955WAT     H2 6108   8.056   3.745   1.591
 1956WAT      O 6109   8.589   9.526   3.672
 1956WAT     H1 6110   8.564   9.478   3.588
 1956WAT     H2 6111   8.511   9.580   3.704
 1957WAT      O 6112   0.628   1.502   9.216
 1957WAT     H1 6113   0.578   1.495   9.130
 1957WAT     H2 6114   0.709   1.444   9.212
 1958WAT      O 6115   6.096   0.403   6.241
 1958WAT     H1 6116   6.080   0.451   6.327
 1958WAT     H2 6117   6.035   0.325   6.233
 1959WAT      O 6118   5.853   7.341   0.802
 1959WAT     H1 6119   5.778   7.331   0.736
 1959WAT     H2 6120   5.847   7.430   0.846
 1960WAT      O 6121   1.419   9.272   5.804
 1960WAT     H1 6122   1.395   9.175   5.797
 1960WAT     H2 6123   1.376   9.323   5.730
 1961WAT      O 6124   2.634   2.498   5.956
 1961WAT     H1 6125   2.702   2.524   5.889
 1961WAT     H2 6126   2.658   2.536   6.046
 1962WAT      O 6127   1.931   7.213   4.805
 1962WAT     H1 6128   1.921   7.312   4.809
 1962WAT     H2 6129   2.009   7.185   4.861
 1963WAT      O 6130   4.350   5.057   9.097
 1963WAT     H1 6131   4.355   4.958   9.095
 1963WAT     H2 6132   4.399   5.095   9.019
 1964WAT      O 6133   3.972   9.014   8.517
 1964WAT     H1 6134   3.923   9.041   8.600
 1964WAT     H2 6135   3.932   8.930   8.480
 1965WAT      O 6136   0.914   6.991   4.442
 1965WAT     H1 6137   1.006   7.002   4.479
 1965WAT     H2 6138   0.861   7.074   4.458
 1966WAT      O 6139   7.904   2.899   7.448
 1966WAT     H1 6140   7.852   2.969   7.497
 1966WAT     H2 6141   7.886   2.905   7.350
 1967WAT      O 6142   8.881   4.557   6.212
 1967WAT     H1 6143   8.790   4.519   6.196
 1967WAT     H2 6144   8.949   4.501   6.165
 1968WAT      O 6145   0.871   1.435   9.654
 1968WAT     H1 6146   0.827   1.354   9.616
 1968WAT     H2 6147   0.957   1.409   9.697
 1969WAT      O 6148   3.285   2.678   2.978
 1969WAT     H1 6149   3.376   2.677   3.019
 1969WAT     H2 6150   3.269   2.767   2.935
 1970WAT      O 6151   5.588   3.326   4.626
 1970WAT     H1 6152   5.564   3.297   4.534
 1970WAT     H2 6153   5.623   3.420   4.623
 1971WAT      O 6154   9.384   8.856   6.103
 1971WAT     H1 6155   9.321   8.924   6.140
 1971WAT     H2 6156   9.337   8.802   6.032
 1972WAT      O 6157   1.228   4.726   9.167
 1972WAT     H1 6158   1.259   4.639   9.203
 1972WAT     H2 6159   1.130   4.722   9.146
 1973WAT      O 6160   2.574   6.402   3.801
 1973WAT     H1 6161   2.532   6.361   3.881
 1973WAT     H2 6162   2.629   6.481   3.829
 1974WAT      O 6163   6.284   1.641   4.328
 1974WAT     H1 6164   6.249   1.606   4.241
 1974WAT     H2 6165   6.330   1.728   4.313
 1975WAT      O 6166   5.974   3.096   7.763
 1975WAT     H1 6167   5.887   3.059   7.728
 1975WAT     H2 6168   6.037   3.021   7.780
 1976WAT      O 6169   7.261   6.906   1.511
 1976WAT     H1 6170   7.318   6.967   1.566
 1976WAT     H2 6171   7.295   6.812   1.519
 1977WAT      O 6172   8.656   4.991   4.346
 1977WAT     H1 6173   8.576   4.932   4.338
 1977WAT     H2 6174   8.711   4.963   4.425
 1978WAT      O 6175   2.091   5.538   8.742
 1978WAT     H1 6176   2.076   5.595   8.661
 1978WAT     H2 6177   2.184   5.551   8.775
 1979WAT      O 6178   4.659   0.542   2.926
 1979WAT     H1 6179   4.664   0.480   3.004
 1979WAT     H2 6180   4.564   0.568   2.910
 1980WAT      O 6181   1.455   7.211   8.202
 1980WAT     H1 6182   1.492   7.213   8.295
 1980WAT     H2 6183   1.503   7.279   8.146
 1981WAT      O 6184   9.567   1.627   8.407
 1981WAT     H1 6185   9.535   1.650   8.315
 1981WAT     H2 6186   9.653   1.576   8.400
 1982WAT      O 6187   0.152   4.445   6.611
 1982WAT     H1 6188   0.079   4.377   6.621
 1982WAT     H2 6189   0.188   4.440   6.517
 1983WAT      O 6190   9.541   1.205   3.650
 1983WAT     H1 6191   9.482   1.208   3.569
 1983WAT     H2 6192   9.610   1.134   3.639
 1984WAT      O 6193   9.337   6.652   7.622
 1984WAT     H1 6194   9.337   6.572   7.683
 1984WAT     H2 6195   9.424   6.700   7.629
 1985WAT      O 6196   9.091   3.796   4.178
 1985WAT     H1 6197   8.993   3.799   4.157
 1985WAT     H2 6198   9.124   3.702   4.172
 1986WAT      O 6199   3.242   2.365   1.304
 1986WAT     H1 6200   3.280   2.287   1.254
 1986WAT     H2 6201   3.314   2.409   1.358
 1987WAT      O 6202   9.434   9.344   6.038
 1987WAT     H1 6203   9.482   9.387   5.962
 1987WAT     H2 6204   9.449   9.397   6.122
 1988WAT      O 6205   8.876   3.710   2.515
 1988WAT     H1 6206   8.824   3.727   2.599
 1988WAT     H2 6207   8.972   3.695   2.538
 1989WAT      O 6208   4.042   2.950   1.472
 1989WAT     H1 6209   4.064   2.984   1.563
 1989WAT     H2 6210   3.993   3.021   1.421
 1990WAT      O 6211   5.069   2.635   5.165
 1990WAT     H1 6212   5.045   2.555   5.109
 1990WAT     H2 6213   5.065   2.717   5.109
 1991WAT      O 6214   2.031   8.025   4.875
 1991WAT     H1 6215   2.022   8.124   4.887
 1991WAT     H2 6216   1.962   7.978   4.929
 1992WAT      O 6217   8.670   3.461   0.796
 1992WAT     H1 6218   8.764   3.489   0.812
 1992WAT     H2 6219   8.612   3.492   0.872
 1993WAT      O 6220   7.033   9.748   2.029
 1993WAT     H1 6221   7.116   9.693   2.033
 1993WAT     H2 6222   7.042   9.825   2.092
 1994WAT      O 6223   6.245   4.686   1.924
 1994WAT     H1 6224   6.213   4.592   1.937
 1994WAT     H2 6225   6.318   4.688   1.856
 1995WAT      O 6226   4.909   1.468   1.209
 1995WAT     H1 6227   4.833   1.403   1.214
 1995WAT     H2 6228   4.880   1.556   1.246
 1996WAT      O 6229   2.224   7.153   4.265
 1996WAT     H1 6230   2.253   7.249   4.263
 1996WAT     H2 6231   2.292   7.099   4.315
 1997WAT      O 6232   9.828   0.884   7.199
 1997WAT     H1 6233   9.769   0.929   7.131
 1997WAT     H2 6234   9.920   0.875   7.162
 1998WAT      O 6235   1.126   7.620   5.396
 1998WAT     H1 6236   1.084   7.537   5.360
 1998WAT     H2 6237   1.202   7.595   5.457
 1999WAT      O 6238   2.814   7.070   7.174
 1999WAT     H1 6239   2.909   7.048   7.151
 1999WAT     H2 6240   2.810   7.106   7.267
 2000WAT      O 6241   4.324   3.044   4.892
 2000WAT     H1 6242   4.239   2.999   4.921
 2000WAT     H2 6243   4.325   3.138   4.926
 2001WAT      O 6244   2.419   9.427   6.924
 2001WAT     H1 6245   2.380   9.506   6.877
 2001WAT     H2 6246   2.435   9.449   7.020
 2002WAT      O 6247   3.943   5.409   7.596
 2002WAT     H1 6248   4.028   5.445   7.636
 2002WAT     H2 6249   3.865   5.455   7.638
 2003WAT      O 6250   2.395   0.086   8.302
 2003WAT     H1 6251   2.303   0.088   8.343
 2003WAT     H2 6252   2.419   0.177   8.270
 2004WAT      O 6253   9.080   5.734   4.025
 2004WAT     H1 6254   9.069   5.707   3.929
 2004WAT     H2 6255   9.010   5.801   4.049
 2005WAT      O 6256   3.156   1.942   8.177
 2005WAT     H1 6257   3.178   1.873   8.246
 2005WAT     H2 6258   3.239   1.991   8.151
 2006WAT      O 6259   7.155   2.512   2.171
 2006WAT     H1 6260   7.146   2.571   2.251
 2006WAT     H2 6261   7.101   2.429   2.184
 2007WAT      O 6262   2.336   3.582   5.539
 2007WAT     H1 6263   2.259   3.519   5.541
 2007WAT     H2 6264   2.409   3.547   5.598
 2008WAT      O 6265   4.678   4.796   6.999
 2008WAT     H1 6266   4.774   4.793   6.971
 2008WAT     H2 6267   4.643   4.889   6.988
 2009WAT      O 6268   0.217   9.521   5.705
 2009WAT     H1 6269   0.271   9.593   5.662
 2009WAT     H2 6270   0.143   9.562   5.758
 2010WAT      O 6271   3.134   4.288   1.198
 2010WAT     H1 6272   3.169   4.379   1.177
 2010WAT     H2 6273   3.113   4.282   1.296
 2011WAT      O 6274   9.095   4.267   5.730
 2011WAT     H1 6275   9.021   4.305   5.785
 2011WAT     H2 6276   9.107   4.323   5.648
 2012WAT      O 6277   9.640   8.215   2.654
 2012WAT     H1 6278   9.652   8.230   2.752
 2012WAT     H2 6279   9.596   8.295   2.613
 2013WAT      O 6280   6.587   0.478   7.796
 2013WAT     H1 6281   6.628   0.393   7.764
 2013WAT     H2 6282   6.593   0.547   7.724
 2014WAT      O 6283   9.275   5.458   5.748
 2014WAT     H1 6284   9.252   5.545   5.703
 2014WAT     H2 6285   9.286   5.387   5.678
 2015WAT      O 6286   7.461   1.167   1.413
 2015WAT     H1 6287   7.513   1.122   1.341
 2015WAT     H2 6288   7.363   1.156   1.395
 2016WAT      O 6289   2.606   9.541   1.570
 2016WAT     H1 6290   2.546   9.591   1.508
 2016WAT     H2 6291   2.701   9.572   1.557
 2017WAT      O 6292   0.477   8.421   2.666
 2017WAT     H1 6293   0.380   8.402   2.650
 2017WAT     H2 6294   0.532   8.351   2.621
 2018WAT      O 6295   1.217   9.678   2.233
 2018WAT     H1 6296   1.173   9.595   2.200
 2018WAT     H2 6297   1.160   9.758   2.212
 2019WAT      O 6298   8.254   4.478   2.347
 2019WAT     H1 6299   8.169   4.488   2.400
 2019WAT     H2 6300   8.248   4.396   2.291
 2020WAT      O 6301   4.693   8.825   5.089
 2020WAT     H1 6302   4.728   8.844   5.181
 2020WAT     H2 6303   4.679   8.911   5.040
 2021WAT      O 6304   3.073   5.036   9.366
 2021WAT     H1 6305   3.087   4.994   9.455
 2021WAT     H2 6306   3.150   5.014   9.306
 2022WAT      O 6307   4.365   1.719   1.685
 2022WAT     H1 6308   4.459   1.689   1.670
 2022WAT     H2 6309   4.362   1.778   1.766
 2023WAT      O 6310   7.277   5.715   1.964
 2023WAT     H1 6311   7.240   5.792   1.912
 2023WAT     H2 6312   7.344   5.667   1.909
 2024WAT      O 6313   3.576   7.638   4.188
 2024WAT     H1 6314   3.630   7.571   4.239
 2024WAT     H2 6315   3.592   7.626   4.090
 2025WAT      O 6316   1.643   1.729   8.756
 2025WAT     H1 6317   1.577   1.666   8.716
 2025WAT     H2 6318   1.639   1.816   8.707
 2026WAT      O 6319   1.934   4.878   2.276
 2026WAT     H1 6320   1.994   4.826   2.216
 2026WAT     H2 6321   1.956   4.976   2.268
 2027WAT      O 6322   9.097   6.972   5.349
 2027WAT     H1 6323   9.061   7.065   5.344
 2027WAT     H2 6324   9.146   6.960   5.436
 2028WAT      O 6325   7.546   4.959   0.834
 2028WAT     H1 6326   7.528   4.870   0.792
 2028WAT     H2 6327   7.547   4.949   0.933
 2029WAT      O 6328   5.413   1.277   9.886
 2029WAT     H1 6329   5.447   1.225   9.808
 2029WAT     H2 6330   5.369   1.361   9.854
 2030WAT      O 6331   1.384   9.324   4.547
 2030WAT     H1 6332   1.350   9.234   4.574
 2030WAT     H2 6333   1.376   9.387   4.624
 2031WAT      O 6334   9.419   4.173   6.927
 2031WAT     H1 6335   9.338   4.231   6.919
 2031WAT     H2 6336   9.435   4.152   7.024
 2032WAT      O 6337   6.030   5.863   0.124
 2032WAT     H1 6338   6.070   5.954   0.109
 2032WAT     H2 6339   6.061   5.827   0.212
 2033WAT      O 6340   6.635   7.376   9.802
 2033WAT     H1 6341   6.654   7.421   9.715
 2033WAT     H2 6342   6.559   7.312   9.791
 2034WAT      O 6343   3.379   6.425   2.870
 2034WAT     H1 6344   3.431   6.343   2.846
 2034WAT     H2 6345   3.314   6.445   2.797
 2035WAT      O 6346   2.775   2.770   4.129
 2035WAT     H1 6347   2.742   2.796   4.220
 2035WAT     H2 6348   2.802   2.852   4.079
 2036WAT      O 6349   2.723   7.817   2.545
 2036WAT     H1 6350   2.747   7.894   2.486
 2036WAT     H2 6351   2.717   7.849   2.640
 2037WAT      O 6352   3.203   2.221   9.130
 2037WAT     H1 6353   3.224   2.260   9.220
 2037WAT     H2 6354   3.155   2.289   9.074
 2038WAT      O 6355   6.570   1.286   1.360
 2038WAT     H1 6356   6.579   1.365   1.421
 2038WAT     H2 6357   6.653   1.279   1.303
 2039WAT      O 6358   5.306   0.064   7.564
 2039WAT     H1 6359   5.244  -0.002   7.522
 2039WAT     H2 6360   5.374   0.016   7.619
 2040WAT      O 6361   4.799   0.470   2.687
 2040WAT     H1 6362   4.759   0.497   2.775
 2040WAT     H2 6363   4.847   0.383   2.698
 2041WAT      O 6364   3.408   1.909   8.348
 2041WAT     H1 6365   3.337   1.860   8.400
 2041WAT     H2 6366   3.434   1.992   8.398
 2042WAT      O 6367   4.320   7.369   6.369
 2042WAT     H1 6368   4.263   7.450   6.357
 2042WAT     H2 6369   4.266   7.296   6.413
 2043WAT      O 6370   0.548   1.336   8.484
 2043WAT     H1 6371   0.517   1.416   8.432
 2043WAT     H2 6372   0.473   1.304   8.542
 2044WAT      O 6373   8.370   4.068   7.170
 2044WAT     H1 6374   8.324   4.151   7.137
 2044WAT     H2 6375   8.340   3.990   7.116
 2045WAT      O 6376   3.410   6.925   1.625
 2045WAT     H1 6377   3.398   7.002   1.562
 2045WAT     H2 6378   3.389   6.840   1.579
 2046WAT      O 6379   6.283   0.603   3.888
 2046WAT     H1 6380   6.215   0.570   3.823
 2046WAT     H2 6381   6.256   0.576   3.981
 2047WAT      O 6382   3.631   9.535   0.305
 2047WAT     H1 6383   3.539   9.573   0.292
 2047WAT     H2 6384   3.651   9.470   0.233
 2048WAT      O 6385   8.390   0.809   9.213
 2048WAT     H1 6386   8.299   0.770   9.199
 2048WAT     H2 6387   8.398   0.895   9.162
 2049WAT      O 6388   5.632   8.732   9.388
 2049WAT     H1 6389   5.611   8.748   9.485
 2049WAT     H2 6390   5.602   8.811   9.335
 2050WAT      O 6391   6.850   3.417   3.638
 2050WAT     H1 6392   6.864   3.434   3.541
 2050WAT     H2 6393   6.778   3.478   3.673
 2051WAT      O 6394   4.166   0.910   0.127
 2051WAT     H1 6395   4.143   0.954   0.214
 2051WAT     H2 6396   4.134   0.816   0.128
 2052WAT      O 6397   7.481   5.598   3.790
 2052WAT     H1 6398   7.466   5.556   3.880
 2052WAT     H2 6399   7.531   5.684   3.801
 2053WAT      O 6400   6.828   4.667   9.149
 2053WAT     H1 6401   6.903   4.658   9.215
 2053WAT     H2 6402   6.795   4.576   9.124
 2054WAT      O 6403   2.701   2.365   4.259
 2054WAT     H1 6404   2.641   2.294   4.297
 2054WAT     H2 6405   2.763   2.396   4.331
 2055WAT      O 6406   0.746   4.618   2.278
 2055WAT     H1 6407   0.716   4.632   2.372
 2055WAT     H2 6408   0.798   4.699   2.247
 2056WAT      O 6409   1.620   5.067   1.872
 2056WAT     H1 6410   1.693   5.017   1.827
 2056WAT     H2 6411   1.649   5.094   1.964
 2057WAT      O 6412   7.918   2.456   0.242
 2057WAT     H1 6413   7.853   2.529   0.265
 2057WAT     H2 6414   7.881   2.368   0.272
 2058WAT      O 6415   5.970   5.441   8.927
 2058WAT     H1 6416   5.964   5.524   8.982
 2058WAT     H2 6417   6.056   5.394   8.946
 2059WAT      O 6418   7.096   6.367   1.009
 2059WAT     H1 6419   7.097   6.276   0.966
 2059WAT     H2 6420   7.038   6.365   1.090
 2060WAT      O 6421   7.517   9.031   5.155
 2060WAT     H1 6422   7.487   8.977   5.076
 2060WAT     H2 6423   7.503   9.128   5.136
 2061WAT      O 6424   4.898   1.484   9.094
 2061WAT     H1 6425   4.895   1.564   9.033
 2061WAT     H2 6426   4.993   1.466   9.121
 2062WAT      O 6427   5.111   4.564   5.773
 2062WAT     H1 6428   5.193   4.615   5.746
 2062WAT     H2 6429   5.053   4.549   5.693
 2063WAT      O 6430   1.712   8.285   8.573
 2063WAT     H1 6431   1.769   8.289   8.491
 2063WAT     H2 6432   1.641   8.217   8.560
 2064WAT      O 6433   6.939   7.030   4.780
 2064WAT     H1 6434   6.858   7.022   4.838
 2064WAT     H2 6435   7.017   6.984   4.824
 2065WAT      O 6436   0.578   7.025   9.858
 2065WAT     H1 6437   0.580   7.123   9.837
 2065WAT     H2 6438   0.587   6.973   9.773
 2066WAT      O 6439   6.899   3.991   3.148
 2066WAT     H1 6440   6.883   3.893   3.135
 2066WAT     H2 6441   6.828   4.043   3.100
 2067WAT      O 6442   7.982   4.382   2.872
 2067WAT     H1 6443   8.072   4.421   2.888
 2067WAT     H2 6444   7.912   4.450   2.893
 2068WAT      O 6445   2.727   1.554   1.074
 2068WAT     H1 6446   2.782   1.483   1.030
 2068WAT     H2 6447   2.777   1.641   1.072
 2069WAT      O 6448   7.261   3.370   3.235
 2069WAT     H1 6449   7.281   3.286   3.286
 2069WAT     H2 6450   7.176   3.409   3.268
 2070WAT      O 6451   7.229   6.503   6.074
 2070WAT     H1 6452   7.256   6.511   6.169
 2070WAT     H2 6453   7.237   6.408   6.044
 2071WAT      O 6454   7.243   5.762   1.517
 2071WAT     H1 6455   7.152   5.785   1.484
 2071WAT     H2 6456   7.238   5.682   1.578
 2072WAT      O 6457   1.924   3.901   5.604
 2072WAT     H1 6458   1.958   3.874   5.694
 2072WAT     H2 6459   1.855   3.834   5.574
 2073WAT      O 6460   5.997   5.901   2.066
 2073WAT     H1 6461   5.949   5.982   2.031
 2073WAT     H2 6462   6.011   5.837   1.991
 2074WAT      O 6463   3.798   4.776   8.297
 2074WAT     H1 6464   3.815   4.791   8.394
 2074WAT     H2 6465   3.885   4.759   8.250
 2075WAT      O 6466   5.510   1.896   7.129
 2075WAT     H1 6467   5.510   1.845   7.043
 2075WAT     H2 6468   5.601   1.895   7.168
 2076WAT      O 6469   2.663   0.716   2.900
 2076WAT     H1 6470   2.564   0.704   2.893
 2076WAT     H2 6471   2.687   0.812   2.889
 2077WAT      O 6472   4.651   8.173   7.294
 2077WAT     H1 6473   4.589   8.096   7.308
 2077WAT     H2 6474   4.746   8.140   7.289
 2078WAT      O 6475   0.479   1.936   5.889
 2078WAT     H1 6476   0.388   1.927   5.929
 2078WAT     H2 6477   0.475   1.998   5.810
 2079WAT      O 6478   7.406   0.843   5.136
 2079WAT     H1 6479   7.445   0.803   5.052
 2079WAT     H2 6480   7.349   0.775   5.182
 2080WAT      O 6481   0.258   7.480   6.573
 2080WAT     H1 6482   0.339   7.484   6.631
 2080WAT     H2 6483   0.277   7.523   6.485
 2081WAT      O 6484   5.506   4.568   0.685
 2081WAT     H1 6485   5.599   4.562   0.649
 2081WAT     H2 6486   5.504   4.639   0.756
 2082WAT      O 6487   7.846   3.643   4.866
 2082WAT     H1 6488   7.909   3.718   4.848
 2082WAT     H2 6489   7.791   3.625   4.785
 2083WAT      O 6490   5.416   1.681   1.057
 2083WAT     H1 6491   5.375   1.767   1.087
 2083WAT     H2 6492   5.516   1.690   1.056
 2084WAT      O 6493   1.335   6.619   3.106
 2084WAT     H1 6494   1.354   6.628   3.204
 2084WAT     H2 6495   1.373   6.533   3.073
 2085WAT      O 6496   6.054   1.865   3.228
 2085WAT     H1 6497   6.039   1.766   3.227
 2085WAT     H2 6498   6.140   1.885   3.274
 2086WAT      O 6499   9.491   7.837   9.619
 2086WAT     H1 6500   9.476   7.842   9.521
 2086WAT     H2 6501   9.523   7.745   9.643
 2087WAT      O 6502   0.955   2.996   2.812
 2087WAT     H1 6503   0.985   3.072   2.753
 2087WAT     H2 6504   0.883   2.944   2.765
 2088WAT      O 6505   8.630   0.729   4.484
 2088WAT     H1 6506   8.624   0.805   4.549
 2088WAT     H2 6507   8.706   0.669   4.509
 2089WAT      O 6508   1.488   2.013   7.717
 2089WAT     H1 6509   1.531   2.050   7.799
 2089WAT     H2 6510   1.445   1.925   7.737
 2090WAT      O 6511   1.563   1.933   8.554
 2090WAT     H1 6512   1.655   1.960   8.526
 2090WAT     H2 6513   1.504   2.013   8.554
 2091WAT      O 6514   0.950   8.495   5.904
 2091WAT     H1 6515   0.975   8.577   5.956
 2091WAT     H2 6516   1.032   8.452   5.867
 2092WAT      O 6517   7.633   9.407   4.358
 2092WAT     H1 6518   7.696   9.428   4.433
 2092WAT     H2 6519   7.539   9.419   4.390
 2093WAT      O 6520   9.659   0.191   0.965
 2093WAT     H1 6521   9.665   0.263   1.034
 2093WAT     H2 6522   9.694   0.105   1.004
 2094WAT      O 6523   6.375   3.955   3.546
 2094WAT     H1 6524   6.437   4.019   3.499
 2094WAT     H2 6525   6.283   3.964   3.508
 2095WAT      O 6526   9.480   0.205   7.856
 2095WAT     H1 6527   9.564   0.258   7.855
 2095WAT     H2 6528   9.405   0.261   7.820
 2096WAT      O 6529   1.904   4.376   1.297
 2096WAT     H1 6530   1.949   4.308   1.354
 2096WAT     H2 6531   1.893   4.461   1.348
 2097WAT      O 6532   5.410   4.004   0.818
 2097WAT     H1 6533   5.438   4.098   0.836
 2097WAT     H2 6534   5.489   3.943   0.830
 2098WAT      O 6535   3.439   0.930   2.906
 2098WAT     H1 6536   3.381   1.010   2.921
 2098WAT     H2 6537   3.471   0.930   2.811
 2099WAT      O 6538   4.765   3.686   4.586
 2099WAT     H1 6539   4.678   3.712   4.544
 2099WAT     H2 6540   4.748   3.632   4.668
 2100WAT      O 6541   7.070   6.638   9.512
 2100WAT     H1 6542   7.160   6.626   9.555
 2100WAT     H2 6543   7.051   6.736   9.504
 2101WAT      O 6544   0.926   7.929   7.815
 2101WAT     H1 6545   0.952   8.015   7.771
 2101WAT     H2 6546   0.964   7.927   7.908
 2102WAT      O 6547   9.651   2.879   4.190
 2102WAT     H1 6548   9.707   2.855   4.111
 2102WAT     H2 6549   9.635   2.798   4.246
 2103WAT      O 6550   6.982   5.133   4.207
 2103WAT     H1 6551   6.927   5.192   4.148
 2103WAT     H2 6552   6.992   5.043   4.164
 2104WAT      O 6553   1.361   3.997   8.311
 2104WAT     H1 6554   1.315   4.049   8.383
 2104WAT     H2 6555   1.387   3.907   8.346
 2105WAT      O 6556   8.747   8.778   1.565
 2105WAT     H1 6557   8.781   8.743   1.652
 2105WAT     H2 6558   8.685   8.855   1.581
 2106WAT      O 6559   9.055   1.995   5.153
 2106WAT     H1 6560   9.090   2.007   5.061
 2106WAT     H2 6561   9.107   1.924   5.200
 2107WAT      O 6562   4.247   0.318   9.480
 2107WAT     H1 6563   4.311   0.386   9.443
 2107WAT     H2 6564   4.169   0.309   9.418
 2108WAT      O 6565   2.233   5.015   1.964
 2108WAT     H1 6566   2.328   5.045   1.977
 2108WAT     H2 6567   2.228   4.916   1.979
 2109WAT      O 6568   0.813   0.761   2.299
 2109WAT     H1 6569   0.892   0.796   2.249
 2109WAT     H2 6570   0.821   0.787   2.395
 2110WAT      O 6571   6.508   5.668   3.879
 2110WAT     H1 6572   6.459   5.645   3.795
 2110WAT     H2 6573   6.446   5.715   3.942
 2111WAT      O 6574   4.327   4.092   9.775
 2111WAT     H1 6575   4.319   4.104   9.874
 2111WAT     H2 6576   4.298   4.176   9.729
 2112WAT      O 6577   8.236   6.569   4.136
 2112WAT     H1 6578   8.328   6.580   4.171
 2112WAT     H2 6579   8.183   6.652   4.157
 2113WAT      O 6580   9.319   4.945   3.684
 2113WAT     H1 6581   9.253   4.996   3.739
 2113WAT     H2 6582   9.281   4.931   3.592
 2114WAT      O 6583   5.445   5.742   8.318
 2114WAT     H1 6584   5.451   5.680   8.239
 2114WAT     H2 6585   5.349   5.762   8.337
 2115WAT      O 6586   8.576   9.333   8.858
 2115WAT     H1 6587   8.666   9.294   8.840
 2115WAT     H2 6588   8.562   9.413   8.799
 2116WAT      O 6589   3.140   0.824   7.349
 2116WAT     H1 6590   3.101   0.758   7.414
 2116WAT     H2 6591   3.189   0.774   7.278
 2117WAT      O 6592   2.672   2.537   8.556
 2117WAT     H1 6593   2.573   2.529   8.548
 2117WAT     H2 6594   2.701   2.628   8.528
 2118WAT      O 6595   2.343   1.525   7.494
 2118WAT     H1 6596   2.294   1.504   7.578
 2118WAT     H2 6597   2.397   1.446   7.466
 2119WAT      O 6598   6.836   1.439   8.930
 2119WAT     H1 6599   6.756   1.424   8.988
 2119WAT     H2 6600   6.805   1.473   8.840
 2120WAT      O 6601   1.746   5.648   4.772
 2120WAT     H1 6602   1.827   5.636   4.715
 2120WAT     H2 6603   1.756   5.594   4.856
 2121WAT      O 6604   0.780   4.784   8.120
 2121WAT     H1 6605   0.693   4.765   8.165
 2121WAT     H2 6606   0.787   4.883   8.102
 2122WAT      O 6607   5.809   4.753   9.301
 2122WAT     H1 6608   5.837   4.824   9.365
 2122WAT     H2 6609   5.710   4.760   9.285
 2123WAT      O 6610   3.743   6.592   8.201
 2123WAT     H1 6611   3.660   6.538   8.211
 2123WAT     H2 6612   3.776   6.618   8.292
 2124WAT      O 6613   6.784   3.013   3.015
 2124WAT     H1 6614   6.882   3.023   3.027
 2124WAT     H2 6615   6.747   3.092   2.966
 2125WAT      O 6616   4.655   4.422   8.764
 2125WAT     H1 6617   4.653   4.324   8.783
 2125WAT     H2 6618   4.715   4.468   8.830
 2126WAT      O 6619   6.896   8.966   8.473
 2126WAT     H1 6620   6.969   8.979   8.407
 2126WAT     H2 6621   6.912   9.024   8.553
 2127WAT      O 6622   3.700   3.403   1.901
 2127WAT     H1 6623   3.798   3.413   1.915
 2127WAT     H2 6624   3.650   3.459   1.967
 2128WAT      O 6625   3.570   9.718   8.842
 2128WAT     H1 6626   3.495   9.690   8.903
 2128WAT     H2 6627   3.657   9.697   8.886
 2129WAT      O 6628   0.164   3.487   5.625
 2129WAT     H1 6629   0.067   3.475   5.647
 2129WAT     H2 6630   0.200   3.401   5.588
 2130WAT      O 6631   6.427   9.758   4.079
 2130WAT     H1 6632   6.423   9.702   4.162
 2130WAT     H2 6633   6.362   9.722   4.012
 2131WAT      O 6634   3.668   3.810   6.550
 2131WAT     H1 6635   3.664   3.858   6.637
 2131WAT     H2 6636   3.682   3.877   6.476
 2132WAT      O 6637   1.911   7.257   3.580
 2132WAT     H1 6638   1.925   7.163   3.611
 2132WAT     H2 6639   1.851   7.258   3.500
 2133WAT      O 6640   5.919   8.398   5.852
 2133WAT     H1 6641   5.839   8.383   5.910
 2133WAT     H2 6642   5.998   8.421   5.908
 2134WAT      O 6643   8.013   9.072   3.576
 2134WAT     H1 6644   8.073   9.083   3.654
 2134WAT     H2 6645   7.957   9.155   3.565
 2135WAT      O 6646   1.000   5.367   7.533
 2135WAT     H1 6647   1.014   5.466   7.529
 2135WAT     H2 6648   0.966   5.335   7.444
 2136WAT      O 6649   4.938   2.513   3.078
 2136WAT     H1 6650   4.992   2.432   3.104
 2136WAT     H2 6651   4.843   2.500   3.108
 2137WAT      O 6652   5.842   5.766   2.567
 2137WAT     H1 6653   5.821   5.824   2.647
 2137WAT     H2 6654   5.924   5.801   2.522
 2138WAT      O 6655   9.091   5.996   6.813
 2138WAT     H1 6656   9.167   5.964   6.757
 2138WAT     H2 6657   9.005   5.970   6.769
 2139WAT      O 6658   7.562   5.211   6.290
 2139WAT     H1 6659   7.591   5.159   6.210
 2139WAT     H2 6660   7.513   5.293   6.261
 2140WAT      O 6661   7.094   2.976   2.984
 2140WAT     H1 6662   7.061   2.884   3.004
 2140WAT     H2 6663   7.135   2.978   2.892
 2141WAT      O 6664   3.431   1.177   2.132
 2141WAT     H1 6665   3.361   1.106   2.137
 2141WAT     H2 6666   3.398   1.254   2.077
 2142WAT      O 6667   6.791   5.267   6.511
 2142WAT     H1 6668   6.839   5.235   6.429
 2142WAT     H2 6669   6.751   5.189   6.559
 2143WAT      O 6670   5.578   7.049   2.405
 2143WAT     H1 6671   5.581   7.113   2.482
 2143WAT     H2 6672   5.515   6.975   2.426
 2144WAT      O 6673   4.212   7.842   7.180
 2144WAT     H1 6674   4.173   7.754   7.151
 2144WAT     H2 6675   4.307   7.829   7.206
 2145WAT      O 6676   4.691   1.769   0.758
 2145WAT     H1 6677   4.650   1.679   0.773
 2145WAT     H2 6678   4.757   1.763   0.684
 2146WAT      O 6679   0.885   4.903   0.799
 2146WAT     H1 6680   0.977   4.940   0.787
 2146WAT     H2 6681   0.875   4.819   0.745
 2147WAT      O 6682   7.266   9.077   6.767
 2147WAT     H1 6683   7.254   9.137   6.846
 2147WAT     H2 6684   7.235   9.125   6.684
 2148WAT      O 6685   3.221  -0.002   0.127
 2148WAT     H1 6686   3.126   0.023   0.142
 2148WAT     H2 6687   3.278   0.080   0.122
 2149WAT      O 6688   7.451   5.892   9.634
 2149WAT     H1 6689   7.482   5.862   9.543
 2149WAT     H2 6690   7.355   5.920   9.628
 2150WAT      O 6691   8.940   3.643   7.266
 2150WAT     H1 6692   8.916   3.672   7.359
 2150WAT     H2 6693   8.857   3.622   7.215
 2151WAT      O 6694   0.131   1.430   0.737
 2151WAT     H1 6695   0.051   1.448   0.680
 2151WAT     H2 6696   0.116   1.347   0.791
 2152WAT      O 6697   3.833   6.000   5.619
 2152WAT     H1 6698   3.889   5.934   5.569
 2152WAT     H2 6699   3.889   6.048   5.686
 2153WAT      O 6700   4.972   4.258   3.562
 2153WAT     H1 6701   5.069   4.235   3.554
 2153WAT     H2 6702   4.919   4.174   3.571
 2154WAT      O 6703   6.123   6.103   5.010
 2154WAT     H1 6704   6.165   6.082   4.922
 2154WAT     H2 6705   6.193   6.099   5.082
 2155WAT      O 6706   6.608   3.331   2.118
 2155WAT     H1 6707   6.557   3.410   2.084
 2155WAT     H2 6708   6.662   3.358   2.198
 2156WAT      O 6709   1.550   6.504   1.964
 2156WAT     H1 6710   1.612   6.560   2.018
 2156WAT     H2 6711   1.542   6.414   2.005
 2157WAT      O 6712   1.887   7.029   7.269
 2157WAT     H1 6713   1.958   7.035   7.198
 2157WAT     H2 6714   1.888   6.938   7.310
 2158WAT      O 6715   9.719   1.421   5.521
 2158WAT     H1 6716   9.727   1.365   5.439
 2158WAT     H2 6717   9.804   1.416   5.573
 2159WAT      O 6718   3.435   0.644   7.435
 2159WAT     H1 6719   3.369   0.575   7.404
 2159WAT     H2 6720   3.397   0.735   7.421
 2160WAT      O 6721   0.246   5.699   5.138
 2160WAT     H1 6722   0.282   5.630   5.075
 2160WAT     H2 6723   0.216   5.779   5.085
 2161WAT      O 6724   2.061   8.139   2.689
 2161WAT     H1 6725   2.027   8.220   2.738
 2161WAT     H2 6726   2.161   8.136   2.694
 2162WAT      O 6727   7.211   5.598   0.823
 2162WAT     H1 6728   7.138   5.625   0.760
 2162WAT     H2 6729   7.214   5.662   0.900
 2163WAT      O 6730   0.969   7.492   1.113
 2163WAT     H1 6731   1.014   7.405   1.131
 2163WAT     H2 6732   0.983   7.553   1.192
 2164WAT      O 6733   8.832   0.119   7.717
 2164WAT     H1 6734   8.853   0.188   7.786
 2164WAT     H2 6735   8.907   0.111   7.652
 2165WAT      O 6736   4.907   8.071   7.263
 2165WAT     H1 6737   4.988   8.043   7.211
 2165WAT     H2 6738   4.937   8.118   7.347
 2166WAT      O 6739   1.178   8.048   1.390
 2166WAT     H1 6740   1.080   8.058   1.409
 2166WAT     H2 6741   1.193   8.050   1.291
 2167WAT      O 6742   1.288   6.338   7.471
 2167WAT     H1 6743   1.367   6.338   7.532
 2167WAT     H2 6744   1.289   6.256   7.415
 2168WAT      O 6745   7.159   3.039   8.324
 2168WAT     H1 6746   7.128   3.123   8.279
 2168WAT     H2 6747   7.107   3.024   8.408
 2169WAT      O 6748   8.269   9.377   5.820
 2169WAT     H1 6749   8.178   9.355   5.786
 2169WAT     H2 6750   8.335   9.313   5.781
 2170WAT      O 6751   0.758   8.167   0.176
 2170WAT     H1 6752   0.842   8.200   0.133
 2170WAT     H2 6753   0.776   8.145   0.272
 2171WAT      O 6754   0.138   0.914   4.296
 2171WAT     H1 6755   0.093   0.957   4.374
 2171WAT     H2 6756   0.232   0.947   4.289
 2172WAT      O 6757   3.540   7.932   9.735
 2172WAT     H1 6758   3.592   7.935   9.821
 2172WAT     H2 6759   3.552   8.018   9.686
 2173WAT      O 6760   0.311   8.963   4.668
 2173WAT     H1 6761   0.215   8.964   4.640
 2173WAT     H2 6762   0.346   9.057   4.671
 2174WAT      O 6763   3.838   7.737   1.736
 2174WAT     H1 6764   3.815   7.829   1.705
 2174WAT     H2 6765   3.882   7.687   1.662
 2175WAT      O 6766   2.198   6.764   8.504
 2175WAT     H1 6767   2.154   6.830   8.564
 2175WAT     H2 6768   2.177   6.672   8.535
 2176WAT      O 6769   8.870   6.063   9.505
 2176WAT     H1 6770   8.887   5.978   9.454
 2176WAT     H2 6771   8.835   6.133   9.442
 2177WAT      O 6772   1.610   8.810   5.136
 2177WAT     H1 6773   1.572   8.735   5.082
 2177WAT     H2 6774   1.554   8.892   5.124
 2178WAT      O 6775   4.160   6.411   8.301
 2178WAT     H1 6776   4.109   6.332   8.266
 2178WAT     H2 6777   4.251   6.413   8.260
 2179WAT      O 6778   2.071   3.674   8.453
 2179WAT     H1 6779   2.064   3.594   8.392
 2179WAT     H2 6780   2.028   3.753   8.409
 2180WAT      O 6781   3.695   5.834   4.446
 2180WAT     H1 6782   3.778   5.786   4.416
 2180WAT     H2 6783   3.710   5.933   4.442
 2181WAT      O 6784   0.918   4.511   9.164
 2181WAT     H1 6785   0.947   4.427   9.208
 2181WAT     H2 6786   0.991   4.543   9.103
 2182WAT      O 6787   0.313   9.386   9.772
 2182WAT     H1 6788   0.256   9.408   9.693
 2182WAT     H2 6789   0.298   9.291   9.799
 2183WAT      O 6790   2.065   4.281   3.004
 2183WAT     H1 6791   2.143   4.277   3.066
 2183WAT     H2 6792   2.092   4.330   2.921
 2184WAT      O 6793   0.732   3.136   2.160
 2184WAT     H1 6794   0.675   3.218   2.153
 2184WAT     H2 6795   0.681   3.064   2.206
 2185WAT      O 6796   4.240   3.898   3.907
 2185WAT     H1 6797   4.255   3.900   4.005
 2185WAT     H2 6798   4.317   3.942   3.860
 2186WAT      O 6799   6.663   4.782   0.865
 2186WAT     H1 6800   6.714   4.772   0.950
 2186WAT     H2 6801   6.683   4.871   0.825
 2187WAT      O 6802   7.550   7.558   5.605
 2187WAT     H1 6803   7.511   7.647   5.628
 2187WAT     H2 6804   7.478   7.489   5.601
 2188WAT      O 6805   3.110   7.962   7.072
 2188WAT     H1 6806   3.189   7.902   7.058
 2188WAT     H2 6807   3.127   8.051   7.028
 2189WAT      O 6808   3.714   1.467   9.358
 2189WAT     H1 6809   3.661   1.420   9.428
 2189WAT     H2 6810   3.741   1.402   9.287
 2190WAT      O 6811   2.918   4.585   1.507
 2190WAT     H1 6812   2.850   4.519   1.475
 2190WAT     H2 6813   2.989   4.596   1.437
 2191WAT      O 6814   7.018   4.355   2.543
 2191WAT     H1 6815   6.924   4.324   2.527
 2191WAT     H2 6816   7.077   4.277   2.561
 2192WAT      O 6817   9.767   5.350   3.614
 2192WAT     H1 6818   9.782   5.445   3.589
 2192WAT     H2 6819   9.680   5.342   3.663
 2193WAT      O 6820   5.321   7.011   1.755
 2193WAT     H1 6821   5.364   6.922   1.743
 2193WAT     H2 6822   5.391   7.079   1.776
 2194WAT      O 6823   2.078   4.603   5.893
 2194WAT     H1 6824   2.008   4.632   5.828
 2194WAT     H2 6825   2.037   4.590   5.983
 2195WAT      O 6826   7.032   8.175   9.333
 2195WAT     H1 6827   6.936   8.180   9.306
 2195WAT     H2 6828   7.055   8.082   9.360
 2196WAT      O 6829   7.804   0.639   1.039
 2196WAT     H1 6830   7.780   0.689   0.956
 2196WAT     H2 6831   7.768   0.688   1.119
 2197WAT      O 6832   4.324   3.948   8.478
 2197WAT     H1 6833   4.357   3.870   8.531
 2197WAT     H2 6834   4.378   3.956   8.394
 2198WAT      O 6835   6.998   8.558   3.684
 2198WAT     H1 6836   7.008   8.628   3.755
 2198WAT     H2 6837   6.901   8.538   3.670
 2199WAT      O 6838   3.510   2.926   5.188
 2199WAT     H1 6839   3.575   2.867   5.235
 2199WAT     H2 6840   3.523   2.917   5.089
 2200WAT      O 6841   7.248   7.622   6.554
 2200WAT     H1 6842   7.171   7.644   6.614
 2200WAT     H2 6843   7.320   7.577   6.606
 2201WAT      O 6844   2.851   3.280   3.689
 2201WAT     H1 6845   2.809   3.212   3.629
 2201WAT     H2 6846   2.904   3.345   3.634
 2202WAT      O 6847   9.894   0.842   3.983
 2202WAT     H1 6848   9.818   0.870   3.924
 2202WAT     H2 6849   9.858   0.799   4.066
 2203WAT      O 6850   2.724   5.394   5.302
 2203WAT     H1 6851   2.662   5.437   5.237
 2203WAT     H2 6852   2.811   5.373   5.256
 2204WAT      O 6853   6.662   2.622   6.437
 2204WAT     H1 6854   6.605   2.683   6.492
 2204WAT     H2 6855   6.758   2.634   6.462
 2205WAT      O 6856   5.122   9.151   6.842
 2205WAT     H1 6857   5.025   9.179   6.840
 2205WAT     H2 6858   5.166   9.190   6.922
 2206WAT      O 6859   2.162   1.475   2.215
 2206WAT     H1 6860   2.162   1.434   2.307
 2206WAT     H2 6861   2.209   1.563   2.218
 2207WAT      O 6862   5.304   4.207   3.815
 2207WAT     H1 6863   5.213   4.183   3.849
 2207WAT     H2 6864   5.368   4.212   3.892
 2208WAT      O 6865   4.298   5.718   0.893
 2208WAT     H1 6866   4.231   5.685   0.958
 2208WAT     H2 6867   4.255   5.729   0.803
 2209WAT      O 6868   9.253   5.162   2.888
 2209WAT     H1 6869   9.325   5.102   2.853
 2209WAT     H2 6870   9.295   5.235   2.942
 2210WAT      O 6871   2.468   3.109   9.685
 2210WAT     H1 6872   2.562   3.091   9.712
 2210WAT     H2 6873   2.459   3.097   9.586
 2211WAT      O 6874   0.319   1.974   3.910
 2211WAT     H1 6875   0.250   2.046   3.921
 2211WAT     H2 6876   0.274   1.887   3.892
 2212WAT      O 6877   0.219   3.968   5.538
 2212WAT     H1 6878   0.173   3.985   5.625
 2212WAT     H2 6879   0.226   3.869   5.523
 2213WAT      O 6880   4.459   0.430   9.354
 2213WAT     H1 6881   4.477   0.512   9.409
 2213WAT     H2 6882   4.546   0.389   9.326
 2214WAT      O 6883   9.289   7.871   6.156
 2214WAT     H1 6884   9.341   7.846   6.238
 2214WAT     H2 6885   9.192   7.855   6.173
 2215WAT      O 6886   2.984   7.823   6.784
 2215WAT     H1 6887   3.083   7.811   6.771
 2215WAT     H2 6888   2.942   7.848   6.697
 2216WAT      O 6889   2.964   6.249   8.814
 2216WAT     H1 6890   2.951   6.169   8.754
 2216WAT     H2 6891   2.986   6.218   8.906
 2217WAT      O 6892   8.903   0.091   3.642
 2217WAT     H1 6893   8.877   0.166   3.703
 2217WAT     H2 6894   8.999   0.069   3.655
 2218WAT      O 6895   4.760   0.657   1.522
 2218WAT     H1 6896   4.788   0.744   1.563
 2218WAT     H2 6897   4.700   0.609   1.586
 2219WAT      O 6898   3.958   5.500   3.364
 2219WAT     H1 6899   3.903   5.453   3.295
 2219WAT     H2 6900   4.054   5.476   3.352
 2220WAT      O 6901   5.043   4.696   0.790
 2220WAT     H1 6902   5.053   4.794   0.771
 2220WAT     H2 6903   5.134   4.654   0.796
 2221WAT      O 6904   5.649   7.513   2.819
 2221WAT     H1 6905   5.712   7.512   2.896
 2221WAT     H2 6906   5.698   7.537   2.735
 2222WAT      O 6907   1.650   8.536   4.185
 2222WAT     H1 6908   1.633   8.441   4.159
 2222WAT     H2 6909   1.563   8.580   4.209
 2223WAT      O 6910   4.867   7.426   9.525
 2223WAT     H1 6911   4.775   7.385   9.526
 2223WAT     H2 6912   4.861   7.519   9.487
 2224WAT      O 6913   4.004   2.099   0.616
 2224WAT     H1 6914   3.957   2.017   0.584
 2224WAT     H2 6915   4.006   2.167   0.543
 2225WAT      O 6916   1.788   6.920   1.120
 2225WAT     H1 6917   1.700   6.873   1.121
 2225WAT     H2 6918   1.788   6.988   1.046
 2226WAT      O 6919   0.119   5.381   7.101
 2226WAT     H1 6920   0.144   5.392   7.197
 2226WAT     H2 6921   0.176   5.310   7.060
 2227WAT      O 6922   4.044   1.635   9.384
 2227WAT     H1 6923   4.031   1.632   9.285
 2227WAT     H2 6924   3.970   1.687   9.426
 2228WAT      O 6925   5.560   4.027   1.230
 2228WAT     H1 6926   5.515   4.097   1.175
 2228WAT     H2 6927   5.621   3.972   1.172
 2229WAT      O 6928   6.916   9.358   4.510
 2229WAT     H1 6929   6.864   9.416   4.448
 2229WAT     H2 6930   6.877   9.363   4.602
 2230WAT      O 6931   7.843   3.455   2.510
 2230WAT     H1 6932   7.837   3.385   2.581
 2230WAT     H2 6933   7.888   3.417   2.429
 2231WAT      O 6934   4.881   2.657   4.050
 2231WAT     H1 6935   4.807   2.660   4.117
 2231WAT     H2 6936   4.937   2.739   4.059
 2232WAT      O 6937   0.783   3.379   9.541
 2232WAT     H1 6938   0.801   3.465   9.589
 2232WAT     H2 6939   0.722   3.396   9.464
 2233WAT      O 6940   8.454   2.055   7.910
 2233WAT     H1 6941   8.445   1.957   7.930
 2233WAT     H2 6942   8.545   2.086   7.940
 2234WAT      O 6943   4.355   8.514   0.097
 2234WAT     H1 6944   4.421   8.480   0.165
 2234WAT     H2 6945   4.392   8.500   0.005
 2235WAT      O 6946   5.180   3.958   0.684
 2235WAT     H1 6947   5.266   3.964   0.735
 2235WAT     H2 6948   5.156   3.862   0.670
 2236WAT      O 6949   8.485   4.980   9.667
 2236WAT     H1 6950   8.520   5.024   9.584
 2236WAT     H2 6951   8.396   4.939   9.648
 2237WAT      O 6952   7.266   5.155   2.030
 2237WAT     H1 6953   7.206   5.160   1.950
 2237WAT     H2 6954   7.278   5.060   2.057
 2238WAT      O 6955   3.378   4.110   0.017
 2238WAT     H1 6956   3.475   4.133   0.019
 2238WAT     H2 6957   3.345   4.113  -0.078
 2239WAT      O 6958   5.971   0.695   9.540
 2239WAT     H1 6959   6.032   0.775   9.539
 2239WAT     H2 6960   6.014   0.620   9.490
 2240WAT      O 6961   0.194   1.242   9.659
 2240WAT     H1 6962   0.250   1.249   9.741
 2240WAT     H2 6963   0.237   1.180   9.593
 2241WAT      O 6964   4.540   8.921   2.198
 2241WAT     H1 6965   4.507   9.011   2.228
 2241WAT     H2 6966   4.596   8.932   2.116
 2242WAT      O 6967   4.258   6.506   9.066
 2242WAT     H1 6968   4.290   6.586   9.117
 2242WAT     H2 6969   4.318   6.490   8.988
 2243WAT      O 6970   0.394   9.556   2.480
 2243WAT     H1 6971   0.322   9.496   2.446
 2243WAT     H2 6972   0.379   9.649   2.446
 2244WAT      O 6973   8.655   4.422   0.023
 2244WAT     H1 6974   8.663   4.360   0.100
 2244WAT     H2 6975   8.720   4.497   0.033
 2245WAT      O 6976   1.880   0.476   6.409
 2245WAT     H1 6977   1.833   0.514   6.329
 2245WAT     H2 6978   1.812   0.438   6.472
 2246WAT      O 6979   2.053   4.876   8.765
 2246WAT     H1 6980   2.100   4.789   8.752
 2246WAT     H2 6981   2.061   4.931   8.682
 2247WAT      O 6982   5.721   4.524   4.648
 2247WAT     H1 6983   5.766   4.613   4.636
 2247WAT     H2 6984   5.687   4.492   4.559
 2248WAT      O 6985   7.583   6.965   6.118
 2248WAT     H1 6986   7.607   6.971   6.022
 2248WAT     H2 6987   7.520   6.888   6.132
 2249WAT      O 6988   4.977   1.895   0.023
 2249WAT     H1 6989   5.016   1.984   0.049
 2249WAT     H2 6990   4.913   1.908  -0.052
 2250WAT      O 6991   7.527   3.855   1.395
 2250WAT     H1 6992   7.467   3.930   1.367
 2250WAT     H2 6993   7.492   3.769   1.357
 2251WAT      O 6994   2.083   6.735   9.053
 2251WAT     H1 6995   1.999   6.693   9.087
 2251WAT     H2 6996   2.144   6.753   9.130
 2252WAT      O 6997   6.519   2.310   8.154
 2252WAT     H1 6998   6.611   2.298   8.119
 2252WAT     H2 6999   6.462   2.355   8.085
 2253WAT      O 7000   9.306   6.266   6.511
 2253WAT     H1 7001   9.257   6.279   6.425
 2253WAT     H2 7002   9.283   6.176   6.548
 2254WAT      O 7003   9.180   4.807   1.397
 2254WAT     H1 7004   9.236   4.852   1.328
 2254WAT     H2 7005   9.225   4.723   1.428
 2255WAT      O 7006   6.235   0.866   6.144
 2255WAT     H1 7007   6.195   0.957   6.156
 2255WAT     H2 7008   6.312   0.872   6.080
 2256WAT      O 7009   9.762   7.862   0.607
 2256WAT     H1 7010   9.685   7.913   0.567
 2256WAT     H2 7011   9.840   7.865   0.545
 2257WAT      O 7012   4.979   1.441   6.430
 2257WAT     H1 7013   5.053   1.377   6.453
 2257WAT     H2 7014   5.013   1.506   6.362
 2258WAT      O 7015   7.834   3.977   0.178
 2258WAT     H1 7016   7.883   3.954   0.262
 2258WAT     H2 7017   7.898   3.982   0.101
 2259WAT      O 7018   3.280   2.463   7.912
 2259WAT     H1 7019   3.353   2.409   7.871
 2259WAT     H2 7020   3.302   2.560   7.905
 2260WAT      O 7021   9.255   8.451   5.840
 2260WAT     H1 7022   9.352   8.474   5.853
 2260WAT     H2 7023   9.248   8.363   5.793
 2261WAT      O 7024   6.907   9.466   4.080
 2261WAT     H1 7025   6.998   9.459   4.038
 2261WAT     H2 7026   6.894   9.558   4.116
 2262WAT      O 7027   1.485   7.726   6.588
 2262WAT     H1 7028   1.540   7.688   6.662
 2262WAT     H2 7029   1.541   7.733   6.506
 2263WAT      O 7030   4.970   8.519   5.118
 2263WAT     H1 7031   4.984   8.581   5.195
 2263WAT     H2 7032   4.978   8.570   5.032
 2264WAT      O 7033   5.822   4.144   5.628
 2264WAT     H1 7034   5.907   4.133   5.679
 2264WAT     H2 7035   5.795   4.241   5.627
 2265WAT      O 7036   5.916   9.754   7.243
 2265WAT     H1 7037   5.837   9.767   7.303
 2265WAT     H2 7038   5.890   9.693   7.167
 2266WAT      O 7039   6.254   1.030   1.954
 2266WAT     H1 7040   6.264   0.968   1.876
 2266WAT     H2 7041   6.253   0.978   2.039
 2267WAT      O 7042   5.223   3.316   8.302
 2267WAT     H1 7043   5.144   3.274   8.346
 2267WAT     H2 7044   5.248   3.264   8.220
 2268WAT      O 7045   2.364   6.505   5.553
 2268WAT     H1 7046   2.403   6.480   5.642
 2268WAT     H2 7047   2.429   6.563   5.503
 2269WAT      O 7048   4.835   0.412   9.866
 2269WAT     H1 7049   4.735   0.406   9.869
 2269WAT     H2 7050   4.864   0.458   9.782
 2270WAT      O 7051   2.946   4.198   5.841
 2270WAT     H1 7052   2.863   4.158   5.802
 2270WAT     H2 7053   2.998   4.244   5.769
 2271WAT      O 7054   6.914   5.532   8.794
 2271WAT     H1 7055   6.947   5.450   8.839
 2271WAT     H2 7056   6.884   5.510   8.702
 2272WAT      O 7057   8.514   1.980   3.745
 2272WAT     H1 7058   8.464   2.048   3.798
 2272WAT     H2 7059   8.532   2.016   3.653
 2273WAT      O 7060   5.065   8.205   2.762
 2273WAT     H1 7061   5.112   8.118   2.776
 2273WAT     H2 7062   5.076   8.264   2.842
 2274WAT      O 7063   5.228   4.497   0.709
 2274WAT     H1 7064   5.213   4.425   0.776
 2274WAT     H2 7065   5.325   4.521   0.706
 2275WAT      O 7066   0.681   3.108   0.879
 2275WAT     H1 7067   0.655   3.146   0.790
 2275WAT     H2 7068   0.773   3.139   0.903
 2276WAT      O 7069   7.944   8.294   4.194
 2276WAT     H1 7070   7.987   8.205   4.180
 2276WAT     H2 7071   7.845   8.285   4.182
 2277WAT      O 7072   4.997   6.482   1.015
 2277WAT     H1 7073   4.954   6.556   1.068
 2277WAT     H2 7074   5.024   6.517   0.925
 2278WAT      O 7075   3.037   0.906   8.857
 2278WAT     H1 7076   3.117   0.902   8.918
 2278WAT     H2 7077   2.975   0.831   8.877
 2279WAT      O 7078   6.064   6.648   0.779
 2279WAT     H1 7079   6.051   6.599   0.865
 2279WAT     H2 7080   6.129   6.723   0.793
 2280WAT      O 7081   7.854   8.186   1.677
 2280WAT     H1 7082   7.802   8.255   1.726
 2280WAT     H2 7083   7.952   8.201   1.693
 2281WAT      O 7084   0.599   7.150   1.994
 2281WAT     H1 7085   0.572   7.227   2.053
 2281WAT     H2 7086   0.638   7.078   2.051
 2282WAT      O 7087   5.309   2.343   8.161
 2282WAT     H1 7088   5.327   2.246   8.174
 2282WAT     H2 7089   5.386   2.385   8.113
 2283WAT      O 7090   4.058   6.929   3.574
 2283WAT     H1 7091   4.005   6.935   3.490
 2283WAT     H2 7092   4.084   6.833   3.590
 2284WAT      O 7093   7.890   7.810   8.799
 2284WAT     H1 7094   7.880   7.732   8.861
 2284WAT     H2 7095   7.953   7.786   8.726
 2285WAT      O 7096   8.044   5.646   4.348
 2285WAT     H1 7097   8.110   5.612   4.415
 2285WAT     H2 7098   7.992   5.722   4.389
 2286WAT      O 7099   5.320   6.475   0.391
 2286WAT     H1 7100   5.400   6.532   0.408
 2286WAT     H2 7101   5.243   6.510   0.444
 2287WAT      O 7102   4.593   0.520   2.514
 2287WAT     H1 7103   4.563   0.426   2.495
 2287WAT     H2 7104   4.671   0.518   2.577
 2288WAT      O 7105   2.945   3.980   5.523
 2288WAT     H1 7106   2.999   3.914   5.575
 2288WAT     H2 7107   2.857   3.940   5.499
 2289WAT      O 7108   8.379   4.030   1.548
 2289WAT     H1 7109   8.435   4.010   1.467
 2289WAT     H2 7110   8.282   4.026   1.524
 2290WAT      O 7111   9.140   8.106   5.248
 2290WAT     H1 7112   9.159   8.204   5.254
 2290WAT     H2 7113   9.210   8.062   5.191
 2291WAT      O 7114   7.809   6.006   5.470
 2291WAT     H1 7115   7.889   5.977   5.417
 2291WAT     H2 7116   7.824   5.989   5.567
 2292WAT      O 7117   2.833   6.091   2.625
 2292WAT     H1 7118   2.853   6.182   2.591
 2292WAT     H2 7119   2.821   6.028   2.548
 2293WAT      O 7120   7.921   5.214   6.402
 2293WAT     H1 7121   7.862   5.266   6.340
 2293WAT     H2 7122   7.994   5.171   6.350
 2294WAT      O 7123   2.812   4.793   5.138
 2294WAT     H1 7124   2.896   4.766   5.091
 2294WAT     H2 7125   2.802   4.740   5.221
 2295WAT      O 7126   7.554   2.127   3.072
 2295WAT     H1 7127   7.638   2.133   3.017
 2295WAT     H2 7128   7.475   2.119   3.011
 2296WAT      O 7129   3.820   8.980   6.536
 2296WAT     H1 7130   3.731   9.023   6.551
 2296WAT     H2 7131   3.826   8.896   6.591
 2297WAT      O 7132   0.241   6.335   0.501
 2297WAT     H1 7133   0.296   6.417   0.485
 2297WAT     H2 7134   0.171   6.355   0.570
 2298WAT      O 7135   9.158   9.817   4.770
 2298WAT     H1 7136   9.061   9.831   4.789
 2298WAT     H2 7137   9.205   9.905   4.772
 2299WAT      O 7138   8.470   6.651   9.444
 2299WAT     H1 7139   8.521   6.692   9.520
 2299WAT     H2 7140   8.494   6.697   9.359
 2300WAT      O 7141   2.503   5.284   0.421
 2300WAT     H1 7142   2.417   5.240   0.445
 2300WAT     H2 7143   2.496   5.327   0.331
 2301WAT      O 7144   0.085   2.753   0.546
 2301WAT     H1 7145   0.092   2.696   0.464
 2301WAT     H2 7146   0.059   2.696   0.624
 2302WAT      O 7147   5.260   8.966   9.646
 2302WAT     H1 7148   5.301   8.982   9.736
 2302WAT     H2 7149   5.161   8.962   9.654
 2303WAT      O 7150   6.789   4.321   7.827
 2303WAT     H1 7151   6.702   4.330   7.875
 2303WAT     H2 7152   6.828   4.412   7.812
 2304WAT      O 7153   0.405   2.046   2.975
 2304WAT     H1 7154   0.338   2.120   2.984
 2304WAT     H2 7155   0.450   2.030   3.063
 2305WAT      O 7156   7.773   2.868   2.845
 2305WAT     H1 7157   7.856   2.901   2.889
 2305WAT     H2 7158   7.707   2.841   2.915
 2306WAT      O 7159   6.741   1.363   9.466
 2306WAT     H1 7160   6.751   1.303   9.546
 2306WAT     H2 7161   6.765   1.312   9.384
 2307WAT      O 7162   7.034   8.982   4.938
 2307WAT     H1 7163   7.072   9.057   4.992
 2307WAT     H2 7164   7.084   8.974   4.852
 2308WAT      O 7165   6.706   9.099   3.792
 2308WAT     H1 7166   6.727   9.161   3.867
 2308WAT     H2 7167   6.607   9.100   3.774
 2309WAT      O 7168   2.122   0.883   8.199
 2309WAT     H1 7169   2.088   0.789   8.198
 2309WAT     H2 7170   2.063   0.941   8.143
 2310WAT      O 7171   6.868   6.950   9.067
 2310WAT     H1 7172   6.941   6.953   9.136
 2310WAT     H2 7173   6.794   7.011   9.095
 2311WAT      O 7174   7.862   3.151   4.341
 2311WAT     H1 7175   7.955   3.127   4.313
 2311WAT     H2 7176   7.824   3.077   4.398
 2312WAT      O 7177   4.378   8.002   8.189
 2312WAT     H1 7178   4.471   7.967   8.177
 2312WAT     H2 7179   4.336   7.958   8.268
 2313WAT      O 7180   4.103   2.667   4.387
 2313WAT     H1 7181   4.014   2.695   4.422
 2313WAT     H2 7182   4.175   2.700   4.448
 2314WAT      O 7183   1.350   5.716   4.080
 2314WAT     H1 7184   1.345   5.632   4.026
 2314WAT     H2 7185   1.419   5.706   4.151
 2315WAT      O 7186   3.231   3.880   4.970
 2315WAT     H1 7187   3.164   3.934   4.919
 2315WAT     H2 7188   3.193   3.856   5.059
 2316WAT      O 7189   7.047   3.987   6.129
 2316WAT     H1 7190   6.984   4.062   6.147
 2316WAT     H2 7191   7.141   4.019   6.142
 2317WAT      O 7192   4.191   2.717   3.238
 2317WAT     H1 7193   4.250   2.673   3.306
 2317WAT     H2 7194   4.115   2.762   3.285
 2318WAT      O 7195   1.261   4.470   8.250
 2318WAT     H1 7196   1.239   4.373   8.235
 2318WAT     H2 7197   1.188   4.513   8.303
 2319WAT      O 7198   2.793   0.650   1.324
 2319WAT     H1 7199   2.892   0.662   1.330
 2319WAT     H2 7200   2.767   0.565   1.369
 2320WAT      O 7201   2.756   1.966   2.422
 2320WAT     H1 7202   2.692   2.020   2.367
 2320WAT     H2 7203   2.816   2.027   2.474
 2321WAT      O 7204   5.369   5.015   7.151
 2321WAT     H1 7205   5.274   5.039   7.169
 2321WAT     H2 7206   5.385   4.919   7.174
 2322WAT      O 7207   5.225   7.682   3.802
 2322WAT     H1 7208   5.162   7.642   3.735
 2322WAT     H2 7209   5.319   7.669   3.770
 2323WAT      O 7210   0.685   9.596   5.613
 2323WAT     H1 7211   0.638   9.679   5.584
 2323WAT     H2 7212   0.767   9.583   5.557
 2324WAT      O 7213   7.149   5.294   9.577
 2324WAT     H1 7214   7.212   5.347   9.634
 2324WAT     H2 7215   7.135   5.340   9.490
 2325WAT      O 7216   0.221   6.726   9.029
 2325WAT     H1 7217   0.202   6.789   8.954
 2325WAT     H2 7218   0.319   6.722   9.046
 2326WAT      O 7219   2.811   9.267   8.235
 2326WAT     H1 7220   2.858   9.352   8.212
 2326WAT     H2 7221   2.873   9.206   8.284
 2327WAT      O 7222   2.962   5.056   8.308
 2327WAT     H1 7223   3.015   4.995   8.249
 2327WAT     H2 7224   2.872   5.017   8.326
 2328WAT      O 7225   4.103   8.272   9.434
 2328WAT     H1 7226   4.187   8.219   9.441
 2328WAT     H2 7227   4.038   8.239   9.503
 2329WAT      O 7228   8.409   2.473   0.254
 2329WAT     H1 7229   8.415   2.545   0.185
 2329WAT     H2 7230   8.314   2.442   0.261
 2330WAT      O 7231   1.213   3.099   1.531
 2330WAT     H1 7232   1.238   3.192   1.559
 2330WAT     H2 7233   1.221   3.037   1.609
 2331WAT      O 7234   8.920   2.465   7.943
 2331WAT     H1 7235   9.017   2.467   7.964
 2331WAT     H2 7236   8.890   2.554   7.909
 2332WAT      O 7237   4.277   7.328   1.754
 2332WAT     H1 7238   4.341   7.251   1.761
 2332WAT     H2 7239   4.315   7.398   1.694
 2333WAT      O 7240   7.677   0.568   3.814
 2333WAT     H1 7241   7.587   0.599   3.785
 2333WAT     H2 7242   7.738   0.646   3.826
 2334WAT      O 7243   1.982   5.504   6.169
 2334WAT     H1 7244   2.020   5.574   6.108
 2334WAT     H2 7245   1.959   5.545   6.257
 2335WAT      O 7246   0.960   2.424   5.644
 2335WAT     H1 7247   0.882   2.483   5.624
 2335WAT     H2 7248   1.038   2.451   5.586
 2336WAT      O 7249   0.620   9.346   5.966
 2336WAT     H1 7250   0.574   9.382   6.048
 2336WAT     H2 7251   0.563   9.275   5.924
 2337WAT      O 7252   7.274   7.425   4.400
 2337WAT     H1 7253   7.355   7.468   4.360
 2337WAT     H2 7254   7.298   7.387   4.489
 2338WAT      O 7255   7.494   6.677   8.840
 2338WAT     H1 7256   7.565   6.672   8.910
 2338WAT     H2 7257   7.513   6.753   8.778
 2339WAT      O 7258   7.748   2.164   2.103
 2339WAT     H1 7259   7.746   2.237   2.035
 2339WAT     H2 7260   7.824   2.102   2.083
 2340WAT      O 7261   1.239   6.751   3.834
 2340WAT     H1 7262   1.224   6.705   3.747
 2340WAT     H2 7263   1.233   6.850   3.821
 2341WAT      O 7264   6.571   5.215   8.210
 2341WAT     H1 7265   6.511   5.156   8.155
 2341WAT     H2 7266   6.650   5.242   8.155
 2342WAT      O 7267   1.187   0.685   7.349
 2342WAT     H1 7268   1.248   0.655   7.275
 2342WAT     H2 7269   1.202   0.629   7.430
 2343WAT      O 7270   6.479   8.489   9.366
 2343WAT     H1 7271   6.515   8.400   9.392
 2343WAT     H2 7272   6.511   8.513   9.274
 2344WAT      O 7273   1.744   4.663   8.247
 2344WAT     H1 7274   1.777   4.663   8.153
 2344WAT     H2 7275   1.822   4.658   8.310
 2345WAT      O 7276   0.996   7.273   8.148
 2345WAT     H1 7277   1.055   7.244   8.073
 2345WAT     H2 7278   0.947   7.193   8.185
 2346WAT      O 7279   5.651   9.130   6.311
 2346WAT     H1 7280   5.741   9.135   6.268
 2346WAT     H2 7281   5.657   9.160   6.406
 2347WAT      O 7282   1.302   7.877   4.645
 2347WAT     H1 7283   1.275   7.846   4.736
 2347WAT     H2 7284   1.220   7.897   4.591
 2348WAT      O 7285   2.615   3.529   5.620
 2348WAT     H1 7286   2.641   3.617   5.581
 2348WAT     H2 7287   2.696   3.485   5.659
 2349WAT      O 7288   2.169   0.907   7.494
 2349WAT     H1 7289   2.177   0.961   7.578
 2349WAT     H2 7290   2.258   0.904   7.448
 2350WAT      O 7291   5.845   6.435   3.804
 2350WAT     H1 7292   5.802   6.502   3.865
 2350WAT     H2 7293   5.854   6.347   3.851
 2351WAT      O 7294   3.926   2.599   0.229
 2351WAT     H1 7295   3.921   2.504   0.261
 2351WAT     H2 7296   4.005   2.609   0.168
 2352WAT      O 7297   5.636   4.479   7.733
 2352WAT     H1 7298   5.545   4.517   7.749
 2352WAT     H2 7299   5.632   4.412   7.658
 2353WAT      O 7300   2.237   6.264   5.471
 2353WAT     H1 7301   2.315   6.210   5.439
 2353WAT     H2 7302   2.267   6.357   5.493
 2354WAT      O 7303   2.554   1.787   3.859
 2354WAT     H1 7304   2.552   1.706   3.800
 2354WAT     H2 7305   2.474   1.844   3.839
 2355WAT      O 7306   8.918   2.427   2.658
 2355WAT     H1 7307   8.878   2.519   2.659
 2355WAT     H2 7308   8.986   2.420   2.730
 2356WAT      O 7309   3.411   9.605   9.031
 2356WAT     H1 7310   3.322   9.652   9.026
 2356WAT     H2 7311   3.454   9.624   9.119
 2357WAT      O 7312   7.712   9.360   8.308
 2357WAT     H1 7313   7.742   9.300   8.234
 2357WAT     H2 7314   7.790   9.388   8.363
 2358WAT      O 7315   3.624   1.320   5.476
 2358WAT     H1 7316   3.669   1.230   5.476
 2358WAT     H2 7317   3.653   1.371   5.394
 2359WAT      O 7318   6.566   9.094   9.660
 2359WAT     H1 7319   6.599   9.139   9.743
 2359WAT     H2 7320   6.642   9.047   9.615
 2360WAT      O 7321   5.404   4.331   1.814
 2360WAT     H1 7322   5.445   4.384   1.889
 2360WAT     H2 7323   5.465   4.333   1.735
 2361WAT      O 7324   4.626   3.917   2.835
 2361WAT     H1 7325   4.541   3.954   2.874
 2361WAT     H2 7326   4.629   3.818   2.849
 2362WAT      O 7327   1.122   4.168   1.580
 2362WAT     H1 7328   1.140   4.262   1.550
 2362WAT     H2 7329   1.199   4.110   1.554
 2363WAT      O 7330   5.612   5.398   3.828
 2363WAT     H1 7331   5.614   5.375   3.925
 2363WAT     H2 7332   5.684   5.466   3.809
 2364WAT      O 7333   6.779   7.778   8.770
 2364WAT     H1 7334   6.787   7.803   8.866
 2364WAT     H2 7335   6.867   7.791   8.725
 2365WAT      O 7336   7.469   0.729   4.071
 2365WAT     H1 7337   7.424   0.645   4.102
 2365WAT     H2 7338   7.462   0.799   4.142
 2366WAT      O 7339   6.637   7.769   7.902
 2366WAT     H1 7340   6.732   7.798   7.914
 2366WAT     H2 7341   6.577   7.849   7.907
 2367WAT      O 7342   0.616   8.617   6.597
 2367WAT     H1 7343   0.591   8.710   6.627
 2367WAT     H2 7344   0.715   8.607   6.599
 2368WAT      O 7345   3.117   1.598   0.200
 2368WAT     H1 7346   3.093   1.504   0.225
 2368WAT     H2 7347   3.189   1.597   0.131
 2369WAT      O 7348   4.314   8.537   3.605
 2369WAT     H1 7349   4.347   8.471   3.672
 2369WAT     H2 7350   4.373   8.617   3.604
 2370WAT      O 7351   2.251   2.126   5.270
 2370WAT     H1 7352   2.253   2.146   5.368
 2370WAT     H2 7353   2.158   2.103   5.242
 2371WAT      O 7354   3.673   7.659   0.689
 2371WAT     H1 7355   3.770   7.680   0.682
 2371WAT     H2 7356   3.623   7.741   0.718
 2372WAT      O 7357   5.954   4.302   7.303
 2372WAT     H1 7358   5.952   4.204   7.283
 2372WAT     H2 7359   6.039   4.325   7.351
 2373WAT      O 7360   4.426   6.802   4.713
 2373WAT     H1 7361   4.417   6.894   4.674
 2373WAT     H2 7362   4.356   6.788   4.783
 2374WAT      O 7363   4.846   8.786   7.587
 2374WAT     H1 7364   4.870   8.796   7.683
 2374WAT     H2 7365   4.930   8.788   7.532
 2375WAT      O 7366   6.565   3.689   9.779
 2375WAT     H1 7367   6.654   3.680   9.823
 2375WAT     H2 7368   6.495   3.644   9.834
 2376WAT      O 7369   5.948   3.987   2.557
 2376WAT     H1 7370   6.016   3.958   2.624
 2376WAT     H2 7371   5.978   4.071   2.513
 2377WAT      O 7372   6.341   5.810   4.685
 2377WAT     H1 7373   6.254   5.762   4.676
 2377WAT     H2 7374   6.385   5.815   4.595
 2378WAT      O 7375   5.691   6.999   6.857
 2378WAT     H1 7376   5.764   6.931   6.848
 2378WAT     H2 7377   5.676   7.045   6.769
 2379WAT      O 7378   0.879   2.839   2.404
 2379WAT     H1 7379   0.978   2.856   2.402
 2379WAT     H2 7380   0.862   2.741   2.394
 2380WAT      O 7381   7.763   5.420   0.407
 2380WAT     H1 7382   7.850   5.441   0.362
 2380WAT     H2 7383   7.728   5.502   0.452
 2381WAT      O 7384   4.887   5.565   8.336
 2381WAT     H1 7385   4.930   5.502   8.271
 2381WAT     H2 7386   4.862   5.649   8.288
 2382WAT      O 7387   4.347   9.658   9.083
 2382WAT     H1 7388   4.325   9.563   9.060
 2382WAT     H2 7389   4.262   9.708   9.100
 2383WAT      O 7390   8.859   1.354   5.507
 2383WAT     H1 7391   8.955   1.326   5.504
 2383WAT     H2 7392   8.845   1.419   5.582
 2384WAT      O 7393   6.232   6.922   6.129
 2384WAT     H1 7394   6.306   6.978   6.092
 2384WAT     H2 7395   6.160   6.912   6.060
 2385WAT      O 7396   5.488   0.526   4.854
 2385WAT     H1 7397   5.494   0.457   4.782
 2385WAT     H2 7398   5.406   0.581   4.841
 2386WAT      O 7399   2.701   8.828   6.077
 2386WAT     H1 7400   2.715   8.864   6.169
 2386WAT     H2 7401   2.629   8.880   6.031
 2387WAT      O 7402   7.394   5.840   8.945
 2387WAT     H1 7403   7.430   5.879   8.861
 2387WAT     H2 7404   7.420   5.743   8.951
 2388WAT      O 7405   7.089   5.189   1.740
 2388WAT     H1 7406   7.187   5.183   1.720
 2388WAT     H2 7407   7.040   5.217   1.657
 2389WAT      O 7408   0.480   2.182   4.602
 2389WAT     H1 7409   0.452   2.139   4.687
 2389WAT     H2 7410   0.400   2.199   4.545
 2390WAT      O 7411   5.363   6.702   6.376
 2390WAT     H1 7412   5.271   6.740   6.367
 2390WAT     H2 7413   5.361   6.624   6.438
 2391WAT      O 7414   0.363   1.241   7.433
 2391WAT     H1 7415   0.424   1.303   7.383
 2391WAT     H2 7416   0.350   1.157   7.381
 2392WAT      O 7417   6.351   0.861   8.169
 2392WAT     H1 7418   6.425   0.923   8.198
 2392WAT     H2 7419   6.390   0.790   8.110
 2393WAT      O 7420   4.097   9.257   5.939
 2393WAT     H1 7421   4.051   9.319   5.875
 2393WAT     H2 7422   4.113   9.169   5.894
 2394WAT      O 7423   8.811   5.396   6.570
 2394WAT     H1 7424   8.893   5.373   6.518
 2394WAT     H2 7425   8.749   5.318   6.572
 2395WAT      O 7426   8.641   9.831   0.973
 2395WAT     H1 7427   8.644   9.742   0.927
 2395WAT     H2 7428   8.701   9.830   1.052
 2396WAT      O 7429   4.863   7.761   9.721
 2396WAT     H1 7430   4.898   7.847   9.682
 2396WAT     H2 7431   4.764   7.758   9.709
 2397WAT      O 7432   9.240   7.845   2.087
 2397WAT     H1 7433   9.265   7.830   1.991
 2397WAT     H2 7434   9.276   7.932   2.117
 2398WAT      O 7435   1.113   5.733   9.381
 2398WAT     H1 7436   1.111   5.667   9.305
 2398WAT     H2 7437   1.182   5.803   9.362
 2399WAT      O 7438   4.412   7.373   2.531
 2399WAT     H1 7439   4.323   7.333   2.556
 2399WAT     H2 7440   4.483   7.336   2.591
 2400WAT      O 7441   4.306   2.460   5.249
 2400WAT     H1 7442   4.247   2.411   5.185
 2400WAT     H2 7443   4.398   2.469   5.210
 2401WAT      O 7444   5.074   9.587   5.728
 2401WAT     H1 7445   5.140   9.584   5.653
 2401WAT     H2 7446   5.049   9.494   5.755
 2402WAT      O 7447   1.192   9.036   0.933
 2402WAT     H1 7448   1.191   9.133   0.910
 2402WAT     H2 7449   1.172   8.982   0.851
 2403WAT      O 7450   0.079   0.273   6.141
 2403WAT     H1 7451   0.128   0.210   6.201
 2403WAT     H2 7452   0.135   0.290   6.059
 2404WAT      O 7453   9.675   9.389   7.496
 2404WAT     H1 7454   9.682   9.450   7.417
 2404WAT     H2 7455   9.625   9.435   7.569
 2405WAT      O 7456   8.316   2.373   5.883
 2405WAT     H1 7457   8.375   2.350   5.806
 2405WAT     H2 7458   8.283   2.467   5.873
 2406WAT      O 7459   6.416   9.392   2.164
 2406WAT     H1 7460   6.354   9.453   2.213
 2406WAT     H2 7461   6.362   9.332   2.104
 2407WAT      O 7462   6.413   7.292   7.267
 2407WAT     H1 7463   6.368   7.367   7.316
 2407WAT     H2 7464   6.364   7.275   7.181
 2408WAT      O 7465   6.670   5.946   5.988
 2408WAT     H1 7466   6.661   5.941   5.889
 2408WAT     H2 7467   6.725   6.025   6.013
 2409WAT      O 7468   9.089   2.384   6.020
 2409WAT     H1 7469   9.187   2.380   5.999
 2409WAT     H2 7470   9.061   2.297   6.060
 2410WAT      O 7471   4.155   5.380   6.058
 2410WAT     H1 7472   4.208   5.465   6.059
 2410WAT     H2 7473   4.191   5.318   6.128
 2411WAT      O 7474   8.059   6.308   6.428
 2411WAT     H1 7475   8.017   6.316   6.338
 2411WAT     H2 7476   7.993   6.272   6.494
 2412WAT      O 7477   2.088   5.465   2.809
 2412WAT     H1 7478   2.118   5.552   2.770
 2412WAT     H2 7479   1.988   5.461   2.809
 2413WAT      O 7480   9.150   4.373   8.907
 2413WAT     H1 7481   9.088   4.450   8.893
 2413WAT     H2 7482   9.241   4.396   8.873
 2414WAT      O 7483   0.109   0.944   1.929
 2414WAT     H1 7484   0.047   1.016   1.898
 2414WAT     H2 7485   0.176   0.925   1.856
 2415WAT      O 7486   9.372   3.523   9.179
 2415WAT     H1 7487   9.465   3.491   9.196
 2415WAT     H2 7488   9.344   3.495   9.088
 2416WAT      O 7489   0.011   6.137   5.401
 2416WAT     H1 7490  -0.037   6.062   5.447
 2416WAT     H2 7491  -0.055   6.197   5.356
 2417WAT      O 7492   9.743   8.178   6.400
 2417WAT     H1 7493   9.685   8.120   6.457
 2417WAT     H2 7494   9.744   8.143   6.306
 2418WAT      O 7495   2.629   5.106   3.762
 2418WAT     H1 7496   2.574   5.025   3.780
 2418WAT     H2 7497   2.583   5.187   3.799
 2419WAT      O 7498   9.075   5.123   2.151
 2419WAT     H1 7499   9.118   5.144   2.063
 2419WAT     H2 7500   9.022   5.038   2.142
 2420WAT      O 7501   0.676   3.624   0.025
 2420WAT     H1 7502   0.710   3.642   0.117
 2420WAT     H2 7503   0.643   3.530   0.019
 2421WAT      O 7504   6.960   2.951   1.633
 2421WAT     H1 7505   7.043   2.987   1.676
 2421WAT     H2 7506   6.977   2.857   1.603
 2422WAT      O 7507   0.529   6.175   4.937
 2422WAT     H1 7508   0.598   6.137   4.876
 2422WAT     H2 7509   0.446   6.195   4.885
 2423WAT      O 7510   6.775   9.715   9.814
 2423WAT     H1 7511   6.747   9.804   9.849
 2423WAT     H2 7512   6.871   9.719   9.783
 2424WAT      O 7513   1.559   0.770   3.183
 2424WAT     H1 7514   1.574   0.856   3.135
 2424WAT     H2 7515   1.602   0.696   3.131
 2425WAT      O 7516   0.525   6.453   1.592
 2425WAT     H1 7517   0.469   6.484   1.669
 2425WAT     H2 7518   0.607   6.408   1.627
 2426WAT      O 7519   8.308   8.508   5.610
 2426WAT     H1 7520   8.235   8.526   5.544
 2426WAT     H2 7521   8.269   8.465   5.692
 2427WAT      O 7522   7.501   5.274   9.748
 2427WAT     H1 7523   7.416   5.226   9.768
 2427WAT     H2 7524   7.561   5.217   9.693
 2428WAT      O 7525   3.071   7.114   0.239
 2428WAT     H1 7526   3.047   7.063   0.322
 2428WAT     H2 7527   3.015   7.197   0.234
 2429WAT      O 7528   5.243   5.838   6.175
 2429WAT     H1 7529   5.191   5.888   6.244
 2429WAT     H2 7530   5.271   5.900   6.102
 2430WAT      O 7531   6.549   9.408   0.715
 2430WAT     H1 7532   6.508   9.433   0.627
 2430WAT     H2 7533   6.478   9.375   0.777
 2431WAT      O 7534   8.954   2.351   2.169
 2431WAT     H1 7535   8.963   2.382   2.264
 2431WAT     H2 7536   8.858   2.349   2.144
 2432WAT      O 7537   9.111   7.654   4.493
 2432WAT     H1 7538   9.054   7.581   4.530
 2432WAT     H2 7539   9.101   7.736   4.550
 2433WAT      O 7540   4.478   8.999   7.962
 2433WAT     H1 7541   4.419   8.975   8.039
 2433WAT     H2 7542   4.570   9.020   7.995
 2434WAT      O 7543   2.053   4.470   9.620
 2434WAT     H1 7544   2.007   4.559   9.613
 2434WAT     H2 7545   2.152   4.483   9.623
 2435WAT      O 7546   3.148   1.278   4.241
 2435WAT     H1 7547   3.068   1.218   4.239
 2435WAT     H2 7548   3.135   1.348   4.312
 2436WAT      O 7549   1.431   9.029   3.391
 2436WAT     H1 7550   1.528   9.038   3.415
 2436WAT     H2 7551   1.398   9.115   3.353
 2437WAT      O 7552   0.409   0.927   4.289
 2437WAT     H1 7553   0.433   0.946   4.384
 2437WAT     H2 7554   0.431   0.832   4.268
 2438WAT      O 7555   1.496   8.660   5.925
 2438WAT     H1 7556   1.441   8.645   5.843
 2438WAT     H2 7557   1.551   8.743   5.914
 2439WAT      O 7558   7.434   0.898   4.278
 2439WAT     H1 7559   7.458   0.995   4.278
 2439WAT     H2 7560   7.361   0.881   4.344
 2440WAT      O 7561   1.071   5.413   1.361
 2440WAT     H1 7562   1.125   5.333   1.387
 2440WAT     H2 7563   0.985   5.383   1.321
 2441WAT      O 7564   3.217   4.281   0.132
 2441WAT     H1 7565   3.242   4.376   0.115
 2441WAT     H2 7566   3.283   4.220   0.089
 2442WAT      O 7567   4.674   4.075   7.866
 2442WAT     H1 7568   4.701   4.121   7.781
 2442WAT     H2 7569   4.579   4.044   7.858
 2443WAT      O 7570   4.358   1.526   8.015
 2443WAT     H1 7571   4.378   1.463   8.090
 2443WAT     H2 7572   4.442   1.545   7.964
 2444WAT      O 7573   5.155   0.452   8.278
 2444WAT     H1 7574   5.100   0.439   8.361
 2444WAT     H2 7575   5.241   0.498   8.302
 2445WAT      O 7576   9.433   2.140   4.906
 2445WAT     H1 7577   9.407   2.163   4.813
 2445WAT     H2 7578   9.506   2.072   4.905
 2446WAT      O 7579   2.493   8.495   0.763
 2446WAT     H1 7580   2.456   8.471   0.674
 2446WAT     H2 7581   2.567   8.562   0.751
 2447WAT      O 7582   6.426   9.200   1.943
 2447WAT     H1 7583   6.506   9.164   1.895
 2447WAT     H2 7584   6.343   9.173   1.894
 2448WAT      O 7585   0.574   2.843   1.213
 2448WAT     H1 7586   0.596   2.834   1.115
 2448WAT     H2 7587   0.608   2.931   1.246
 2449WAT      O 7588   5.090   1.674   3.119
 2449WAT     H1 7589   5.025   1.657   3.193
 2449WAT     H2 7590   5.181   1.643   3.146
 2450WAT      O 7591   1.947   6.702   0.157
 2450WAT     H1 7592   1.870   6.737   0.211
 2450WAT     H2 7593   2.033   6.720   0.206
 2451WAT      O 7594   7.241   5.467   4.902
 2451WAT     H1 7595   7.149   5.504   4.913
 2451WAT     H2 7596   7.255   5.393   4.968
 2452WAT      O 7597   4.649   2.670   5.755
 2452WAT     H1 7598   4.728   2.665   5.693
 2452WAT     H2 7599   4.574   2.616   5.717
 2453WAT      O 7600   7.008   2.837   2.237
 2453WAT     H1 7601   6.986   2.743   2.262
 2453WAT     H2 7602   7.021   2.892   2.320
 2454WAT      O 7603   6.386   1.671   6.177
 2454WAT     H1 7604   6.477   1.655   6.215
 2454WAT     H2 7605   6.389   1.658   6.078
 2455WAT      O 7606   0.497   8.336   4.801
 2455WAT     H1 7607   0.466   8.277   4.876
 2455WAT     H2 7608   0.426   8.405   4.783
 2456WAT      O 7609   5.655   8.526   5.249
 2456WAT     H1 7610   5.726   8.530   5.320
 2456WAT     H2 7611   5.676   8.452   5.186
 2457WAT      O 7612   1.378   2.965   2.282
 2457WAT     H1 7613   1.429   3.024   2.220
 2457WAT     H2 7614   1.425   2.877   2.291
 2458WAT      O 7615   9.636   2.463   4.122
 2458WAT     H1 7616   9.691   2.379   4.122
 2458WAT     H2 7617   9.541   2.440   4.099
 2459WAT      O 7618   3.969   2.107   8.659
 2459WAT     H1 7619   4.026   2.053   8.720
 2459WAT     H2 7620   4.000   2.094   8.565
 2460WAT      O 7621   3.411   6.982   7.048
 2460WAT     H1 7622   3.376   7.039   7.122
 2460WAT     H2 7623   3.335   6.957   6.987
 2461WAT      O 7624   2.171   6.628   7.985
 2461WAT     H1 7625   2.241   6.634   8.055
 2461WAT     H2 7626   2.213   6.606   7.897
 2462WAT      O 7627   6.419   0.377   0.635
 2462WAT     H1 7628   6.510   0.362   0.596
 2462WAT     H2 7629   6.349   0.362   0.565
 2463WAT      O 7630   5.529   5.794   0.911
 2463WAT     H1 7631   5.455   5.848   0.952
 2463WAT     H2 7632   5.491   5.715   0.864
 2464WAT      O 7633   6.679   1.206   4.480
 2464WAT     H1 7634   6.700   1.299   4.448
 2464WAT     H2 7635   6.764   1.153   4.484
 2465WAT      O 7636   6.932   9.250   7.101
 2465WAT     H1 7637   6.952   9.314   7.175
 2465WAT     H2 7638   7.015   9.235   7.047
 2466WAT      O 7639   0.245   6.044   0.102
 2466WAT     H1 7640   0.279   6.110   0.034
 2466WAT     H2 7641   0.164   5.998   0.066
 2467WAT      O 7642   0.666   0.330   5.006
 2467WAT     H1 7643   0.573   0.293   5.004
 2467WAT     H2 7644   0.690   0.354   5.100
 2468WAT      O 7645   7.463   7.016   1.648
 2468WAT     H1 7646   7.458   7.072   1.731
 2468WAT     H2 7647   7.558   7.008   1.619
 2469WAT      O 7648   6.794   7.153   8.105
 2469WAT     H1 7649   6.867   7.093   8.138
 2469WAT     H2 7650   6.808   7.245   8.141
 2470WAT      O 7651   9.352   4.225   5.141
 2470WAT     H1 7652   9.384   4.150   5.200
 2470WAT     H2 7653   9.422   4.296   5.137
 2471WAT      O 7654   2.502   5.542   8.481
 2471WAT     H1 7655   2.583   5.485   8.474
 2471WAT     H2 7656   2.422   5.484   8.499
 2472WAT      O 7657   6.455   4.632   0.022
 2472WAT     H1 7658   6.406   4.644   0.108
 2472WAT     H2 7659   6.523   4.704   0.011
 2473WAT      O 7660   0.661   7.616   2.069
 2473WAT     H1 7661   0.606   7.677   2.127
 2473WAT     H2 7662   0.699   7.669   1.993
 2474WAT      O 7663   7.119   7.333   4.014
 2474WAT     H1 7664   7.071   7.388   4.082
 2474WAT     H2 7665   7.063   7.327   3.931
 2475WAT      O 7666   6.817   1.732   1.471
 2475WAT     H1 7667   6.867   1.739   1.558
 2475WAT     H2 7668   6.795   1.823   1.437
 2476WAT      O 7669   9.271   0.230   4.777
 2476WAT     H1 7670   9.238   0.300   4.840
 2476WAT     H2 7671   9.334   0.271   4.711
 2477WAT      O 7672   8.467   4.376   3.692
 2477WAT     H1 7673   8.524   4.319   3.633
 2477WAT     H2 7674   8.371   4.366   3.667
 2478WAT      O 7675   5.118   1.573   3.622
 2478WAT     H1 7676   5.035   1.600   3.572
 2478WAT     H2 7677   5.101   1.583   3.720
 2479WAT      O 7678   3.215   6.406   8.950
 2479WAT     H1 7679   3.245   6.318   8.987
 2479WAT     H2 7680   3.227   6.478   9.018
 2480WAT      O 7681   2.274   1.511   2.861
 2480WAT     H1 7682   2.178   1.538   2.863
 2480WAT     H2 7683   2.309   1.505   2.954
 2481WAT      O 7684   5.791   0.024   3.772
 2481WAT     H1 7685   5.719  -0.045   3.777
 2481WAT     H2 7686   5.844   0.013   3.688
 2482WAT      O 7687   9.227   4.128   9.238
 2482WAT     H1 7688   9.199   4.085   9.323
 2482WAT     H2 7689   9.152   4.125   9.172
 2483WAT      O 7690   0.436   7.184   5.193
 2483WAT     H1 7691   0.344   7.219   5.175
 2483WAT     H2 7692   0.454   7.105   5.134
 2484WAT      O 7693   8.860   7.693   8.000
 2484WAT     H1 7694   8.856   7.773   8.060
 2484WAT     H2 7695   8.771   7.680   7.957
 2485WAT      O 7696   8.725   6.159   1.662
 2485WAT     H1 7697   8.787   6.090   1.624
 2485WAT     H2 7698   8.775   6.217   1.727
 2486WAT      O 7699   6.447   6.845   2.547
 2486WAT     H1 7700   6.535   6.886   2.524
 2486WAT     H2 7701   6.449   6.748   2.525
 2487WAT      O 7702   5.295   8.159   4.218
 2487WAT     H1 7703   5.218   8.096   4.230
 2487WAT     H2 7704   5.275   8.245   4.265
 2488WAT      O 7705   7.456   5.381   5.796
 2488WAT     H1 7706   7.530   5.316   5.781
 2488WAT     H2 7707   7.376   5.353   5.744
 2489WAT      O 7708   3.337   3.849   8.869
 2489WAT     H1 7709   3.286   3.784   8.813
 2489WAT     H2 7710   3.414   3.885   8.817
 2490WAT      O 7711   2.718   2.556   2.208
 2490WAT     H1 7712   2.656   2.572   2.131
 2490WAT     H2 7713   2.805   2.602   2.190
 2491WAT      O 7714   8.882   4.136   8.080
 2491WAT     H1 7715   8.888   4.064   8.011
 2491WAT     H2 7716   8.799   4.190   8.066
 2492WAT      O 7717   1.210   2.562   7.125
 2492WAT     H1 7718   1.112   2.553   7.105
 2492WAT     H2 7719   1.231   2.510   7.208
 2493WAT      O 7720   5.391   9.684   1.268
 2493WAT     H1 7721   5.351   9.748   1.334
 2493WAT     H2 7722   5.466   9.728   1.219
 2494WAT      O 7723   5.996   2.227   6.127
 2494WAT     H1 7724   5.913   2.172   6.114
 2494WAT     H2 7725   6.041   2.241   6.039
 2495WAT      O 7726   8.723   8.490   1.122
 2495WAT     H1 7727   8.675   8.538   1.049
 2495WAT     H2 7728   8.724   8.547   1.204
 2496WAT      O 7729   0.863   5.926   4.600
 2496WAT     H1 7730   0.897   5.843   4.555
 2496WAT     H2 7731   0.780   5.956   4.554
 2497WAT      O 7732   6.401   6.252   4.236
 2497WAT     H1 7733   6.324   6.281   4.178
 2497WAT     H2 7734   6.464   6.328   4.247
 2498WAT      O 7735   2.588   7.413   0.368
 2498WAT     H1 7736   2.492   7.430   0.344
 2498WAT     H2 7737   2.643   7.492   0.344
 2499WAT      O 7738   1.719   9.049   3.493
 2499WAT     H1 7739   1.671   9.053   3.581
 2499WAT     H2 7740   1.733   8.954   3.467
 2500WAT      O 7741   0.142   3.934   4.003
 2500WAT     H1 7742   0.046   3.960   3.994
 2500WAT     H2 7743   0.178   3.908   3.914
 2501WAT      O 7744   1.081   5.147   2.499
 2501WAT     H1 7745   1.167   5.097   2.510
 2501WAT     H2 7746   1.097   5.244   2.515
 2502WAT      O 7747   6.392   9.432   0.477
 2502WAT     H1 7748   6.379   9.512   0.536
 2502WAT     H2 7749   6.335   9.357   0.509
 2503WAT      O 7750   4.336   0.998   0.864
 2503WAT     H1 7751   4.349   1.096   0.849
 2503WAT     H2 7752   4.410   0.963   0.923
 2504WAT      O 7753   0.552   4.259   7.434
 2504WAT     H1 7754   0.458   4.288   7.415
 2504WAT     H2 7755   0.608   4.339   7.452
 2505WAT      O 7756   0.282   5.813   4.502
 2505WAT     H1 7757   0.305   5.765   4.586
 2505WAT     H2 7758   0.183   5.815   4.490
 2506WAT      O 7759   1.563   7.564   4.212
 2506WAT     H1 7760   1.579   7.605   4.302
 2506WAT     H2 7761   1.589   7.467   4.215
 2507WAT      O 7762   2.338   7.203   9.632
 2507WAT     H1 7763   2.315   7.174   9.724
 2507WAT     H2 7764   2.414   7.148   9.597
 2508WAT      O 7765   6.500   6.529   3.542
 2508WAT     H1 7766   6.524   6.526   3.445
 2508WAT     H2 7767   6.582   6.547   3.595
 2509WAT      O 7768   8.435   2.605   2.242
 2509WAT     H1 7769   8.398   2.534   2.182
 2509WAT     H2 7770   8.530   2.583   2.265
 2510WAT      O 7771   9.413   4.213   7.883
 2510WAT     H1 7772   9.503   4.184   7.915
 2510WAT     H2 7773   9.355   4.234   7.962
 2511WAT      O 7774   1.547   5.049   2.331
 2511WAT     H1 7775   1.499   5.126   2.372
 2511WAT     H2 7776   1.517   4.964   2.375
 2512WAT      O 7777   6.118   9.402   3.801
 2512WAT     H1 7778   6.022   9.420   3.781
 2512WAT     H2 7779   6.129   9.386   3.899
 2513WAT      O 7780   9.146   6.770   5.774
 2513WAT     H1 7781   9.053   6.776   5.735
 2513WAT     H2 7782   9.170   6.673   5.786
 2514WAT      O 7783   5.162   4.259   2.627
 2514WAT     H1 7784   5.240   4.207   2.664
 2514WAT     H2 7785   5.133   4.327   2.695
 2515WAT      O 7786   9.407   8.430   0.551
 2515WAT     H1 7787   9.372   8.484   0.628
 2515WAT     H2 7788   9.355   8.453   0.469
 2516WAT      O 7789   3.100   1.282   9.080
 2516WAT     H1 7790   3.152   1.262   9.163
 2516WAT     H2 7791   3.158   1.266   9.000
 2517WAT      O 7792   8.185   2.946   0.088
 2517WAT     H1 7793   8.108   2.979   0.033
 2517WAT     H2 7794   8.243   2.887   0.032
 2518WAT      O 7795   7.755   8.476   4.451
 2518WAT     H1 7796   7.855   8.475   4.453
 2518WAT     H2 7797   7.723   8.564   4.416
 2519WAT      O 7798   8.767   3.767   0.263
 2519WAT     H1 7799   8.834   3.692   0.265
 2519WAT     H2 7800   8.709   3.762   0.344
 2520WAT      O 7801   8.938   2.751   4.230
 2520WAT     H1 7802   8.952   2.801   4.316
 2520WAT     H2 7803   9.001   2.674   4.226
 2521WAT      O 7804   9.842   5.593   1.706
 2521WAT     H1 7805   9.814   5.587   1.802
 2521WAT     H2 7806   9.931   5.639   1.700
 2522WAT      O 7807   1.946   2.973   4.063
 2522WAT     H1 7808   1.897   2.919   4.132
 2522WAT     H2 7809   2.042   2.983   4.090
 2523WAT      O 7810   2.458   0.971   8.708
 2523WAT     H1 7811   2.528   1.037   8.735
 2523WAT     H2 7812   2.492   0.913   8.634
 2524WAT      O 7813   0.576   5.495   1.266
 2524WAT     H1 7814   0.669   5.459   1.254
 2524WAT     H2 7815   0.570   5.587   1.227
 2525WAT      O 7816   6.926   3.273   4.444
 2525WAT     H1 7817   6.830   3.282   4.417
 2525WAT     H2 7818   6.959   3.183   4.418
 2526WAT      O 7819   8.636   8.945   5.517
 2526WAT     H1 7820   8.606   9.039   5.500
 2526WAT     H2 7821   8.561   8.882   5.500
 2527WAT      O 7822   1.300   6.089   0.727
 2527WAT     H1 7823   1.251   6.170   0.695
 2527WAT     H2 7824   1.375   6.068   0.664
 2528WAT      O 7825   1.921   0.368   5.093
 2528WAT     H1 7826   1.870   0.375   5.178
 2528WAT     H2 7827   1.886   0.434   5.026
 2529WAT      O 7828   4.099   0.595   8.429
 2529WAT     H1 7829   4.120   0.538   8.508
 2529WAT     H2 7830   4.173   0.662   8.416
 2530WAT      O 7831   9.276   1.493   7.566
 2530WAT     H1 7832   9.215   1.415   7.578
 2530WAT     H2 7833   9.315   1.491   7.474
 2531WAT      O 7834   4.479   1.099   4.861
 2531WAT     H1 7835   4.408   1.053   4.916
 2531WAT     H2 7836   4.474   1.066   4.767
 2532WAT      O 7837   4.088   2.330   0.175
 2532WAT     H1 7838   4.167   2.389   0.193
 2532WAT     H2 7839   4.106   2.239   0.213
 2533WAT      O 7840   0.254   5.599   3.864
 2533WAT     H1 7841   0.208   5.643   3.787
 2533WAT     H2 7842   0.298   5.515   3.833
 2534WAT      O 7843   8.686   0.333   8.833
 2534WAT     H1 7844   8.768   0.357   8.780
 2534WAT     H2 7845   8.604   0.351   8.778
 2535WAT      O 7846   5.257   7.469   4.736
 2535WAT     H1 7847   5.211   7.522   4.664
 2535WAT     H2 7848   5.352   7.500   4.743
 2536WAT      O 7849   4.544   4.280   1.828
 2536WAT     H1 7850   4.492   4.199   1.857
 2536WAT     H2 7851   4.485   4.361   1.836
 2537WAT      O 7852   9.048   0.495   6.780
 2537WAT     H1 7853   8.952   0.503   6.753
 2537WAT     H2 7854   9.056   0.433   6.858
 2538WAT      O 7855   0.851   0.132   1.601
 2538WAT     H1 7856   0.916   0.178   1.541
 2538WAT     H2 7857   0.877   0.148   1.697
 2539WAT      O 7858   3.086   7.365   1.547
 2539WAT     H1 7859   3.056   7.275   1.515
 2539WAT     H2 7860   3.181   7.361   1.575
 2540WAT      O 7861   2.710   5.212   2.235
 2540WAT     H1 7862   2.782   5.207   2.165
 2540WAT     H2 7863   2.719   5.134   2.298
 2541WAT      O 7864   3.777   4.275   0.834
 2541WAT     H1 7865   3.753   4.180   0.854
 2541WAT     H2 7866   3.865   4.278   0.786
 2542WAT      O 7867   8.221   0.402   6.221
 2542WAT     H1 7868   8.133   0.358   6.201
 2542WAT     H2 7869   8.290   0.371   6.156
 2543WAT      O 7870   7.619   1.642   9.452
 2543WAT     H1 7871   7.606   1.571   9.521
 2543WAT     H2 7872   7.717   1.659   9.439
 2544WAT      O 7873   2.738   9.188   5.848
 2544WAT     H1 7874   2.690   9.261   5.896
 2544WAT     H2 7875   2.672   9.122   5.811
 2545WAT      O 7876   1.254   7.133   1.097
 2545WAT     H1 7877   1.354   7.136   1.104
 2545WAT     H2 7878   1.228   7.076   1.019
 2546WAT      O 7879   0.316   8.960   5.097
 2546WAT     H1 7880   0.391   8.934   5.158
 2546WAT     H2 7881   0.313   8.897   5.019
 2547WAT      O 7882   8.744   5.571   8.995
 2547WAT     H1 7883   8.836   5.567   8.955
 2547WAT     H2 7884   8.705   5.479   8.995
 2548WAT      O 7885   8.773   7.740   9.056
 2548WAT     H1 7886   8.829   7.782   9.127
 2548WAT     H2 7887   8.677   7.761   9.073
 2549WAT      O 7888   6.394   4.404   7.467
 2549WAT     H1 7889   6.436   4.340   7.530
 2549WAT     H2 7890   6.294   4.404   7.479
 2550WAT      O 7891   2.158   2.860   9.649
 2550WAT     H1 7892   2.095   2.792   9.612
 2550WAT     H2 7893   2.106   2.937   9.688
 2551WAT      O 7894   1.606   3.230   0.336
 2551WAT     H1 7895   1.682   3.222   0.271
 2551WAT     H2 7896   1.532   3.284   0.294
 2552WAT      O 7897   0.740   8.951   8.089
 2552WAT     H1 7898   0.805   8.987   8.022
 2552WAT     H2 7899   0.679   8.886   8.044
 2553WAT      O 7900   3.666   1.412   5.733
 2553WAT     H1 7901   3.662   1.393   5.635
 2553WAT     H2 7902   3.624   1.501   5.751
 2554WAT      O 7903   0.679   0.180   4.507
 2554WAT     H1 7904   0.778   0.179   4.518
 2554WAT     H2 7905   0.643   0.086   4.512
 2555WAT      O 7906   1.166   9.694   1.010
 2555WAT     H1 7907   1.106   9.625   1.049
 2555WAT     H2 7908   1.117   9.742   0.936
 2556WAT      O 7909   2.860   3.904   2.776
 2556WAT     H1 7910   2.921   3.852   2.835
 2556WAT     H2 7911   2.794   3.954   2.833
 2557WAT      O 7912   7.864   7.634   9.295
 2557WAT     H1 7913   7.921   7.592   9.224
 2557WAT     H2 7914   7.852   7.731   9.275
 2558WAT      O 7915   0.827   6.179   9.870
 2558WAT     H1 7916   0.865   6.100   9.822
 2558WAT     H2 7917   0.728   6.168   9.879
 2559WAT      O 7918   6.290   3.228   3.563
 2559WAT     H1 7919   6.239   3.166   3.622
 2559WAT     H2 7920   6.259   3.322   3.579
 2560WAT      O 7921   1.307   3.434   1.864
 2560WAT     H1 7922   1.275   3.419   1.958
 2560WAT     H2 7923   1.396   3.480   1.866
 2561WAT      O 7924   9.377   0.244   1.127
 2561WAT     H1 7925   9.397   0.189   1.208
 2561WAT     H2 7926   9.446   0.317   1.120
 2562WAT      O 7927   2.712   7.652   3.121
 2562WAT     H1 7928   2.782   7.611   3.180
 2562WAT     H2 7929   2.755   7.718   3.060
 2563WAT      O 7930   3.864   1.086   9.538
 2563WAT     H1 7931   3.780   1.072   9.589
 2563WAT     H2 7932   3.911   1.168   9.573
 2564WAT      O 7933   4.732   9.014   8.586
 2564WAT     H1 7934   4.763   9.109   8.587
 2564WAT     H2 7935   4.715   8.984   8.679
 2565WAT      O 7936   4.751   7.876   8.905
 2565WAT     H1 7937   4.818   7.869   8.979
 2565WAT     H2 7938   4.797   7.901   8.820
 2566WAT      O 7939   4.190   7.343   2.844
 2566WAT     H1 7940   4.092   7.358   2.838
 2566WAT     H2 7941   4.239   7.428   2.822
 2567WAT      O 7942   3.287   7.245   7.166
 2567WAT     H1 7943   3.359   7.278   7.227
 2567WAT     H2 7944   3.213   7.312   7.162
 2568WAT      O 7945   6.588   7.539   4.088
 2568WAT     H1 7946   6.565   7.635   4.073
 2568WAT     H2 7947   6.542   7.482   4.019
 2569WAT      O 7948   7.165   3.311   7.847
 2569WAT     H1 7949   7.230   3.332   7.920
 2569WAT     H2 7950   7.142   3.214   7.849
 2570WAT      O 7951   1.129   1.474   4.199
 2570WAT     H1 7952   1.074   1.555   4.178
 2570WAT     H2 7953   1.073   1.407   4.248
 2571WAT      O 7954   4.494   9.080   3.326
 2571WAT     H1 7955   4.475   9.104   3.231
 2571WAT     H2 7956   4.416   9.105   3.383
 2572WAT      O 7957   6.251   8.882   4.328
 2572WAT     H1 7958   6.307   8.836   4.397
 2572WAT     H2 7959   6.275   8.980   4.326
 2573WAT      O 7960   2.430   8.633   1.033
 2573WAT     H1 7961   2.488   8.576   0.975
 2573WAT     H2 7962   2.412   8.720   0.987
 2574WAT      O 7963   7.889   2.723   9.540
 2574WAT     H1 7964   7.834   2.770   9.471
 2574WAT     H2 7965   7.920   2.635   9.503
 2575WAT      O 7966   0.109   3.635   0.019
 2575WAT     H1 7967   0.100   3.655  -0.078
 2575WAT     H2 7968   0.030   3.670   0.068
 2576WAT      O 7969   1.353   6.025   6.867
 2576WAT     H1 7970   1.379   6.122   6.867
 2576WAT     H2 7971   1.433   5.969   6.886
 2577WAT      O 7972   2.045   6.901   1.015
 2577WAT     H1 7973   1.955   6.899   1.059
 2577WAT     H2 7974   2.036   6.881   0.918
 2578WAT      O 7975   1.384   1.798   7.809
 2578WAT     H1 7976   1.372   1.699   7.823
 2578WAT     H2 7977   1.300   1.845   7.834
 2579WAT      O 7978   0.138   4.121   6.766
 2579WAT     H1 7979   0.157   4.032   6.726
 2579WAT     H2 7980   0.208   4.143   6.834
 2580WAT      O 7981   5.499   3.736   4.345
 2580WAT     H1 7982   5.517   3.813   4.406
 2580WAT     H2 7983   5.446   3.768   4.266
 2581WAT      O 7984   8.825   7.777   4.099
 2581WAT     H1 7985   8.892   7.811   4.166
 2581WAT     H2 7986   8.854   7.688   4.065
 2582WAT      O 7987   2.701   4.118   2.163
 2582WAT     H1 7988   2.631   4.188   2.176
 2582WAT     H2 7989   2.667   4.047   2.102
 2583WAT      O 7990   3.066   3.787   4.197
 2583WAT     H1 7991   3.028   3.880   4.200
 2583WAT     H2 7992   3.152   3.787   4.146
 2584WAT      O 7993   8.130   3.726   6.459
 2584WAT     H1 7994   8.089   3.676   6.535
 2584WAT     H2 7995   8.168   3.812   6.492
 2585WAT      O 7996   1.862   3.348   3.659
 2585WAT     H1 7997   1.911   3.400   3.589
 2585WAT     H2 7998   1.925   3.283   3.702
 2586WAT      O 7999   4.915   6.139   6.074
 2586WAT     H1 8000   4.892   6.221   6.128
 2586WAT     H2 8001   4.999   6.156   6.023
 2587WAT      O 8002   5.686   8.371   6.018
 2587WAT     H1 8003   5.632   8.446   6.055
 2587WAT     H2 8004   5.710   8.307   6.092
 2588WAT      O 8005   4.389   8.516   6.096
 2588WAT     H1 8006   4.473   8.568   6.075
 2588WAT     H2 8007   4.310   8.566   6.062
 2589WAT      O 8008   3.335   6.625   5.854
 2589WAT     H1 8009   3.303   6.694   5.788
 2589WAT     H2 8010   3.256   6.585   5.901
 2590WAT      O 8011   0.683   3.140   5.632
 2590WAT     H1 8012   0.608   3.205   5.644
 2590WAT     H2 8013   0.761   3.186   5.589
 2591WAT      O 8014   3.123   3.878   0.202
 2591WAT     H1 8015   3.041   3.874   0.146
 2591WAT     H2 8016   3.129   3.967   0.247
 2592WAT      O 8017   1.133   9.120   2.361
 2592WAT     H1 8018   1.196   9.152   2.431
 2592WAT     H2 8019   1.176   9.047   2.308
 2593WAT      O 8020   7.630   7.286   5.125
 2593WAT     H1 8021   7.641   7.275   5.224
 2593WAT     H2 8022   7.709   7.337   5.089
 2594WAT      O 8023   7.958   2.068   0.812
 2594WAT     H1 8024   7.882   2.122   0.849
 2594WAT     H2 8025   7.972   2.091   0.716
 2595WAT      O 8026   0.290   8.518   4.781
 2595WAT     H1 8027   0.326   8.600   4.826
 2595WAT     H2 8028   0.212   8.543   4.724
 2596WAT      O 8029   9.104   7.325   6.116
 2596WAT     H1 8030   9.068   7.283   6.199
 2596WAT     H2 8031   9.077   7.421   6.112
 2597WAT      O 8032   6.489   9.310   4.054
 2597WAT     H1 8033   6.515   9.230   4.107
 2597WAT     H2 8034   6.443   9.281   3.970
 2598WAT      O 8035   2.288   7.237   6.836
 2598WAT     H1 8036   2.328   7.170   6.773
 2598WAT     H2 8037   2.337   7.232   6.924
 2599WAT      O 8038   4.125   3.912   4.788
 2599WAT     H1 8039   4.137   4.009   4.806
 2599WAT     H2 8040   4.201   3.861   4.828
 2600WAT      O 8041   9.741   0.794   7.636
 2600WAT     H1 8042   9.802   0.873   7.635
 2600WAT     H2 8043   9.671   0.805   7.565
 2601WAT      O 8044   3.171   1.689   1.411
 2601WAT     H1 8045   3.192   1.618   1.479
 2601WAT     H2 8046   3.188   1.654   1.319
 2602WAT      O 8047   7.714   5.419   3.286
 2602WAT     H1 8048   7.760   5.503   3.257
 2602WAT     H2 8049   7.620   5.419   3.252
 2603WAT      O 8050   3.412   0.441   3.646
 2603WAT     H1 8051   3.456   0.483   3.567
 2603WAT     H2 8052   3.313   0.453   3.640
 2604WAT      O 8053   8.546   1.231   9.823
 2604WAT     H1 8054   8.617   1.161   9.820
 2604WAT     H2 8055   8.458   1.191   9.797
 2605WAT      O 8056   7.994   8.900   1.373
 2605WAT     H1 8057   8.036   8.810   1.386
 2605WAT     H2 8058   7.949   8.903   1.283
 2606WAT      O 8059   0.766   0.159   7.113
 2606WAT     H1 8060   0.703   0.081   7.114
 2606WAT     H2 8061   0.717   0.242   7.139
 2607WAT      O 8062   8.913   8.179   9.852
 2607WAT     H1 8063   8.874   8.217   9.935
 2607WAT     H2 8064   8.844   8.183   9.779
 2608WAT      O 8065   0.956   5.240   0.090
 2608WAT     H1 8066   0.902   5.304   0.035
 2608WAT     H2 8067   0.925   5.244   0.185
 2609WAT      O 8068   4.832   1.908   0.959
 2609WAT     H1 8069   4.822   1.875   0.865
 2609WAT     H2 8070   4.745   1.898   1.007
 2610WAT      O 8071   2.541   3.227   7.571
 2610WAT     H1 8072   2.473   3.155   7.588
 2610WAT     H2 8073   2.613   3.191   7.512
 2611WAT      O 8074   4.696   3.077   8.424
 2611WAT     H1 8075   4.696   2.994   8.368
 2611WAT     H2 8076   4.690   3.157   8.365
 2612WAT      O 8077   9.260   8.883   1.383
 2612WAT     H1 8078   9.294   8.937   1.459
 2612WAT     H2 8079   9.213   8.802   1.419
 2613WAT      O 8080   8.521   0.714   3.294
 2613WAT     H1 8081   8.548   0.636   3.238
 2613WAT     H2 8082   8.421   0.714   3.303
 2614WAT      O 8083   7.498   8.082   1.924
 2614WAT     H1 8084   7.576   8.044   1.874
 2614WAT     H2 8085   7.523   8.092   2.021
 2615WAT      O 8086   1.402   7.262   7.777
 2615WAT     H1 8087   1.476   7.208   7.816
 2615WAT     H2 8088   1.379   7.226   7.686
 2616WAT      O 8089   5.369   2.122   6.641
 2616WAT     H1 8090   5.350   2.043   6.699
 2616WAT     H2 8091   5.286   2.149   6.594
 2617WAT      O 8092   0.813   9.784   2.235
 2617WAT     H1 8093   0.765   9.850   2.293
 2617WAT     H2 8094   0.755   9.704   2.222
 2618WAT      O 8095   2.784   7.417   1.998
 2618WAT     H1 8096   2.839   7.454   1.923
 2618WAT     H2 8097   2.688   7.413   1.970
 2619WAT      O 8098   1.684   2.255   3.564
 2619WAT     H1 8099   1.681   2.352   3.541
 2619WAT     H2 8100   1.731   2.205   3.491
 2620WAT      O 8101   5.529   6.791   2.016
 2620WAT     H1 8102   5.612   6.742   2.043
 2620WAT     H2 8103   5.516   6.783   1.918
 2621WAT      O 8104   6.116   7.580   2.909
 2621WAT     H1 8105   6.172   7.511   2.955
 2621WAT     H2 8106   6.036   7.536   2.868
 2622WAT      O 8107   2.233   0.830   7.087
 2622WAT     H1 8108   2.169   0.810   7.161
 2622WAT     H2 8109   2.183   0.836   7.001
 2623WAT      O 8110   6.474   1.535   4.521
 2623WAT     H1 8111   6.423   1.558   4.604
 2623WAT     H2 8112   6.411   1.526   4.445
 2624WAT      O 8113   6.405   4.605   8.155
 2624WAT     H1 8114   6.398   4.564   8.246
 2624WAT     H2 8115   6.313   4.612   8.116
 2625WAT      O 8116   2.054   1.641   1.176
 2625WAT     H1 8117   2.069   1.740   1.178
 2625WAT     H2 8118   2.045   1.611   1.081
 2626WAT      O 8119   9.146   1.394   5.730
 2626WAT     H1 8120   9.225   1.380   5.789
 2626WAT     H2 8121   9.158   1.341   5.646
 2627WAT      O 8122   8.626   0.564   7.407
 2627WAT     H1 8123   8.673   0.633   7.461
 2627WAT     H2 8124   8.609   0.600   7.315
 2628WAT      O 8125   4.319   6.551   4.948
 2628WAT     H1 8126   4.375   6.508   5.019
 2628WAT     H2 8127   4.273   6.479   4.895
 2629WAT      O 8128   9.606   9.321   0.531
 2629WAT     H1 8129   9.673   9.265   0.580
 2629WAT     H2 8130   9.583   9.401   0.586
 2630WAT      O 8131   9.772   9.523   2.606
 2630WAT     H1 8132   9.832   9.576   2.664
 2630WAT     H2 8133   9.678   9.531   2.639
 2631WAT      O 8134   7.766   6.208   2.102
 2631WAT     H1 8135   7.800   6.178   2.191
 2631WAT     H2 8136   7.679   6.162   2.082
 2632WAT      O 8137   4.908   2.014   3.567
 2632WAT     H1 8138   4.973   2.008   3.643
 2632WAT     H2 8139   4.883   2.110   3.553
 2633WAT      O 8140   9.130   1.969   0.105
 2633WAT     H1 8141   9.193   2.044   0.084
 2633WAT     H2 8142   9.059   2.002   0.167
 2634WAT      O 8143   0.063   3.145   2.900
 2634WAT     H1 8144   0.005   3.226   2.891
 2634WAT     H2 8145   0.005   3.063   2.906
 2635WAT      O 8146   0.824   5.294   2.277
 2635WAT     H1 8147   0.798   5.268   2.370
 2635WAT     H2 8148   0.818   5.393   2.267
 2636WAT      O 8149   0.504   3.578   5.682
 2636WAT     H1 8150   0.454   3.575   5.595
 2636WAT     H2 8151   0.601   3.594   5.664
 2637WAT      O 8152   0.859   9.591   3.717
 2637WAT     H1 8153   0.845   9.500   3.754
 2637WAT     H2 8154   0.940   9.591   3.658
 2638WAT      O 8155   0.112   2.617   5.468
 2638WAT     H1 8156   0.170   2.642   5.390
 2638WAT     H2 8157   0.131   2.523   5.495
 2639WAT      O 8158   6.536   2.345   0.205
 2639WAT     H1 8159   6.592   2.374   0.127
 2639WAT     H2 8160   6.583   2.368   0.290
 2640WAT      O 8161   9.818   1.069   7.409
 2640WAT     H1 8162   9.843   0.999   7.342
 2640WAT     H2 8163   9.858   1.156   7.382
 2641WAT      O 8164   5.251   4.391   4.275
 2641WAT     H1 8165   5.312   4.416   4.200
 2641WAT     H2 8166   5.159   4.374   4.240
 2642WAT      O 8167   1.601   9.300   8.020
 2642WAT     H1 8168   1.588   9.393   7.988
 2642WAT     H2 8169   1.578   9.294   8.117
 2643WAT      O 8170   5.697   4.193   7.036
 2643WAT     H1 8171   5.783   4.149   7.062
 2643WAT     H2 8172   5.691   4.283   7.079
 2644WAT      O 8173   2.398   7.019   8.230
 2644WAT     H1 8174   2.466   6.967   8.178
 2644WAT     H2 8175   2.402   6.991   8.326
 2645WAT      O 8176   2.113   6.537   8.856
 2645WAT     H1 8177   2.152   6.495   8.938
 2645WAT     H2 8178   2.115   6.637   8.866
 2646WAT      O 8179   3.176   7.297   9.729
 2646WAT     H1 8180   3.274   7.310   9.717
 2646WAT     H2 8181   3.159   7.230   9.801
 2647WAT      O 8182   5.668   4.651   7.043
 2647WAT     H1 8183   5.712   4.575   7.091
 2647WAT     H2 8184   5.681   4.642   6.945
 2648WAT      O 8185   6.143   7.617   3.990
 2648WAT     H1 8186   6.195   7.697   4.019
 2648WAT     H2 8187   6.045   7.639   3.987
 2649WAT      O 8188   3.669   6.360   2.345
 2649WAT     H1 8189   3.601   6.290   2.324
 2649WAT     H2 8190   3.760   6.318   2.351
 2650WAT      O 8191   0.802   0.622   9.161
 2650WAT     H1 8192   0.853   0.551   9.113
 2650WAT     H2 8193   0.801   0.705   9.106
 2651WAT      O 8194   7.847   5.858   0.885
 2651WAT     H1 8195   7.886   5.918   0.815
 2651WAT     H2 8196   7.796   5.913   0.952
 2652WAT      O 8197   9.614   0.364   4.837
 2652WAT     H1 8198   9.697   0.418   4.851
 2652WAT     H2 8199   9.550   0.380   4.912
 2653WAT      O 8200   0.764   3.754   8.073
 2653WAT     H1 8201   0.780   3.669   8.122
 2653WAT     H2 8202   0.829   3.761   7.996
 2654WAT      O 8203   5.883   1.641   0.759
 2654WAT     H1 8204   5.885   1.707   0.684
 2654WAT     H2 8205   5.821   1.566   0.735
 2655WAT      O 8206   9.643   8.750   3.823
 2655WAT     H1 8207   9.737   8.763   3.790
 2655WAT     H2 8208   9.581   8.745   3.744
 2656WAT      O 8209   9.873   2.017   9.151
 2656WAT     H1 8210   9.878   1.966   9.065
 2656WAT     H2 8211   9.804   2.089   9.143
 2657WAT      O 8212   7.472   5.629   4.863
 2657WAT     H1 8213   7.401   5.560   4.878
 2657WAT     H2 8214   7.447   5.685   4.784
 2658WAT      O 8215   8.402   4.333   1.554
 2658WAT     H1 8216   8.470   4.404   1.535
 2658WAT     H2 8217   8.443   4.243   1.533
 2659WAT      O 8218   7.486   6.954   4.613
 2659WAT     H1 8219   7.584   6.947   4.593
 2659WAT     H2 8220   7.471   7.025   4.681
 2660WAT      O 8221   4.990   3.260   5.818
 2660WAT     H1 8222   4.915   3.251   5.885
 2660WAT     H2 8223   4.975   3.196   5.743
 2661WAT      O 8224   9.445   2.237   4.367
 2661WAT     H1 8225   9.419   2.334   4.370
 2661WAT     H2 8226   9.365   2.182   4.344
 2662WAT      O 8227   6.128   2.172   1.431
 2662WAT     H1 8228   6.090   2.162   1.523
 2662WAT     H2 8229   6.096   2.257   1.390
 2663WAT      O 8230   5.273   1.795   2.070
 2663WAT     H1 8231   5.198   1.812   2.134
 2663WAT     H2 8232   5.246   1.828   1.979
 2664WAT      O 8233   1.072   7.512   8.932
 2664WAT     H1 8234   0.997   7.577   8.920
 2664WAT     H2 8235   1.080   7.455   8.850
 2665WAT      O 8236   3.300   7.633   8.427
 2665WAT     H1 8237   3.317   7.607   8.522
 2665WAT     H2 8238   3.362   7.584   8.366
 2666WAT      O 8239   2.447   7.402   5.411
 2666WAT     H1 8240   2.453   7.346   5.329
 2666WAT     H2 8241   2.538   7.414   5.451
 2667WAT      O 8242   4.288   3.204   8.309
 2667WAT     H1 8243   4.312   3.245   8.222
 2667WAT     H2 8244   4.336   3.116   8.319
 2668WAT      O 8245   4.024   0.328   1.939
 2668WAT     H1 8246   3.987   0.367   1.855
 2668WAT     H2 8247   4.018   0.396   2.013
 2669WAT      O 8248   9.628   5.158   5.833
 2669WAT     H1 8249   9.599   5.142   5.738
 2669WAT     H2 8250   9.566   5.111   5.895
 2670WAT      O 8251   2.579   1.623   7.636
 2670WAT     H1 8252   2.657   1.600   7.579
 2670WAT     H2 8253   2.494   1.603   7.587
 2671WAT      O 8254   6.874   7.731   3.460
 2671WAT     H1 8255   6.933   7.707   3.384
 2671WAT     H2 8256   6.912   7.810   3.508
 2672WAT      O 8257   8.720   7.133   6.194
 2672WAT     H1 8258   8.655   7.185   6.250
 2672WAT     H2 8259   8.699   7.036   6.200
 2673WAT      O 8260   7.787   7.130   4.429
 2673WAT     H1 8261   7.778   7.074   4.347
 2673WAT     H2 8262   7.707   7.189   4.439
 2674WAT      O 8263   0.578   5.875   0.758
 2674WAT     H1 8264   0.667   5.885   0.802
 2674WAT     H2 8265   0.511   5.932   0.805
 2675WAT      O 8266   5.227   1.338   0.746
 2675WAT     H1 8267   5.255   1.400   0.820
 2675WAT     H2 8268   5.190   1.392   0.670
 2676WAT      O 8269   3.033   2.306   6.491
 2676WAT     H1 8270   3.068   2.353   6.409
 2676WAT     H2 8271   2.941   2.272   6.474
 2677WAT      O 8272   4.050   2.987   8.692
 2677WAT     H1 8273   3.989   2.983   8.771
 2677WAT     H2 8274   4.057   3.082   8.661
 2678WAT      O 8275   5.561   5.271   1.700
 2678WAT     H1 8276   5.466   5.240   1.699
 2678WAT     H2 8277   5.567   5.356   1.752
 2679WAT      O 8278   9.861   4.801   1.476
 2679WAT     H1 8279   9.927   4.791   1.403
 2679WAT     H2 8280   9.865   4.720   1.536
 2680WAT      O 8281   1.204   5.586   2.241
 2680WAT     H1 8282   1.272   5.516   2.219
 2680WAT     H2 8283   1.122   5.573   2.185
 2681WAT      O 8284   6.378   8.140   1.872
 2681WAT     H1 8285   6.362   8.165   1.777
 2681WAT     H2 8286   6.476   8.137   1.891
 2682WAT      O 8287   3.277   7.264   2.799
 2682WAT     H1 8288   3.277   7.206   2.718
 2682WAT     H2 8289   3.184   7.272   2.834
 2683WAT      O 8290   7.865   1.094   7.517
 2683WAT     H1 8291   7.869   1.100   7.617
 2683WAT     H2 8292   7.919   1.167   7.477
 2684WAT      O 8293   8.525   6.976   0.729
 2684WAT     H1 8294   8.573   7.011   0.648
 2684WAT     H2 8295   8.427   6.980   0.713
 2685WAT      O 8296   6.193   3.501   3.230
 2685WAT     H1 8297   6.190   3.575   3.162
 2685WAT     H2 8298   6.285   3.494   3.268
 2686WAT      O 8299   9.783   3.573   5.930
 2686WAT     H1 8300   9.770   3.474   5.941
 2686WAT     H2 8301   9.815   3.593   5.838
 2687WAT      O 8302   3.522   5.361   3.626
 2687WAT     H1 8303   3.448   5.367   3.559
 2687WAT     H2 8304   3.579   5.443   3.620
 2688WAT      O 8305   4.473   3.967   4.649
 2688WAT     H1 8306   4.531   4.036   4.691
 2688WAT     H2 8307   4.404   4.011   4.592
 2689WAT      O 8308   1.950   2.681   9.229
 2689WAT     H1 8309   2.009   2.603   9.209
 2689WAT     H2 8310   1.988   2.764   9.188
 2690WAT      O 8311   0.121   0.266   2.357
 2690WAT     H1 8312   0.145   0.243   2.263
 2690WAT     H2 8313   0.058   0.344   2.358
 2691WAT      O 8314   2.442   1.714   8.249
 2691WAT     H1 8315   2.540   1.706   8.228
 2691WAT     H2 8316   2.391   1.729   8.165
 2692WAT      O 8317   7.128   6.136   0.845
 2692WAT     H1 8318   7.209   6.184   0.813
 2692WAT     H2 8319   7.062   6.129   0.770
 2693WAT      O 8320   6.517   5.495   5.893
 2693WAT     H1 8321   6.599   5.550   5.877
 2693WAT     H2 8322   6.539   5.399   5.882
 2694WAT      O 8323   8.608   4.019   6.280
 2694WAT     H1 8324   8.584   3.928   6.313
 2694WAT     H2 8325   8.550   4.043   6.202
 2695WAT      O 8326   1.203   5.716   2.488
 2695WAT     H1 8327   1.117   5.767   2.481
 2695WAT     H2 8328   1.223   5.674   2.399
 2696WAT      O 8329   5.277   6.470   6.719
 2696WAT     H1 8330   5.209   6.461   6.792
 2696WAT     H2 8331   5.334   6.550   6.737
 2697WAT      O 8332   4.416   2.615   4.141
 2697WAT     H1 8333   4.443   2.543   4.205
 2697WAT     H2 8334   4.372   2.573   4.061
 2698WAT      O 8335   9.466   2.658   5.898
 2698WAT     H1 8336   9.412   2.734   5.934
 2698WAT     H2 8337   9.563   2.673   5.921
 2699WAT      O 8338   7.879   7.052   4.874
 2699WAT     H1 8339   7.857   7.139   4.832
 2699WAT     H2 8340   7.893   7.065   4.972
 2700WAT      O 8341   2.364   9.252   0.725
 2700WAT     H1 8342   2.282   9.269   0.670
 2700WAT     H2 8343   2.346   9.276   0.821
 2701WAT      O 8344   0.898   1.354   0.917
 2701WAT     H1 8345   0.840   1.272   0.919
 2701WAT     H2 8346   0.841   1.435   0.913
 2702WAT      O 8347   4.607   7.639   6.750
 2702WAT     H1 8348   4.566   7.565   6.697
 2702WAT     H2 8349   4.693   7.667   6.708
 2703WAT      O 8350   1.098   0.785   0.567
 2703WAT     H1 8351   1.173   0.720   0.556
 2703WAT     H2 8352   1.050   0.766   0.652
 2704WAT      O 8353   2.923   3.588   4.310
 2704WAT     H1 8354   2.965   3.582   4.401
 2704WAT     H2 8355   2.973   3.653   4.255
 2705WAT      O 8356   3.850   1.017   8.000
 2705WAT     H1 8357   3.834   0.988   8.094
 2705WAT     H2 8358   3.765   1.010   7.948
 2706WAT      O 8359   6.307   3.469   4.592
 2706WAT     H1 8360   6.250   3.548   4.614
 2706WAT     H2 8361   6.252   3.401   4.543
 2707WAT      O 8362   4.679   3.766   6.760
 2707WAT     H1 8363   4.717   3.752   6.669
 2707WAT     H2 8364   4.727   3.840   6.805
 2708WAT      O 8365   0.256   7.194   2.321
 2708WAT     H1 8366   0.180   7.172   2.383
 2708WAT     H2 8367   0.219   7.220   2.232
 2709WAT      O 8368   5.835   0.613   0.254
 2709WAT     H1 8369   5.859   0.553   0.178
 2709WAT     H2 8370   5.759   0.673   0.227
 2710WAT      O 8371   3.152   7.366   7.706
 2710WAT     H1 8372   3.242   7.403   7.731
 2710WAT     H2 8373   3.165   7.283   7.652
 2711WAT      O 8374   4.602   4.802   0.059
 2711WAT     H1 8375   4.667   4.877   0.050
 2711WAT     H2 8376   4.636   4.722   0.009
 2712WAT      O 8377   6.267   8.681   2.174
 2712WAT     H1 8378   6.167   8.679   2.177
 2712WAT     H2 8379   6.301   8.754   2.233
 2713WAT      O 8380   8.223   6.767   5.734
 2713WAT     H1 8381   8.272   6.775   5.821
 2713WAT     H2 8382   8.288   6.744   5.662
 2714WAT      O 8383   8.323   0.211   8.928
 2714WAT     H1 8384   8.352   0.141   8.993
 2714WAT     H2 8385   8.257   0.173   8.864
 2715WAT      O 8386   2.853   6.721   1.235
 2715WAT     H1 8387   2.805   6.647   1.281
 2715WAT     H2 8388   2.812   6.737   1.145
 2716WAT      O 8389   1.210   7.513   7.807
 2716WAT     H1 8390   1.237   7.590   7.865
 2716WAT     H2 8391   1.276   7.438   7.817
 2717WAT      O 8392   0.422   7.103   8.256
 2717WAT     H1 8393   0.470   7.036   8.312
 2717WAT     H2 8394   0.345   7.059   8.210
 2718WAT      O 8395   3.942   2.860   7.132
 2718WAT     H1 8396   3.906   2.868   7.225
 2718WAT     H2 8397   3.989   2.773   7.122
 2719WAT      O 8398   1.770   7.906   5.667
 2719WAT     H1 8399   1.727   7.916   5.756
 2719WAT     H2 8400   1.755   7.989   5.613
 2720WAT      O 8401   5.948   0.820   3.785
 2720WAT     H1 8402   5.882   0.880   3.740
 2720WAT     H2 8403   5.913   0.793   3.875
 2721WAT      O 8404   7.106   5.345   3.024
 2721WAT     H1 8405   7.128   5.275   2.956
 2721WAT     H2 8406   7.029   5.314   3.080
 2722WAT      O 8407   9.231   5.572   7.643
 2722WAT     H1 8408   9.143   5.549   7.684
 2722WAT     H2 8409   9.225   5.564   7.544
 2723WAT      O 8410   1.875   6.471   0.288
 2723WAT     H1 8411   1.849   6.377   0.267
 2723WAT     H2 8412   1.847   6.531   0.213
 2724WAT      O 8413   9.110   6.874   2.458
 2724WAT     H1 8414   9.153   6.806   2.398
 2724WAT     H2 8415   9.072   6.948   2.402
 2725WAT      O 8416   5.294   3.929   7.456
 2725WAT     H1 8417   5.266   3.888   7.542
 2725WAT     H2 8418   5.214   3.968   7.410
 2726WAT      O 8419   7.082   3.583   2.130
 2726WAT     H1 8420   6.987   3.611   2.117
 2726WAT     H2 8421   7.114   3.534   2.048
 2727WAT      O 8422   9.378   2.256   8.112
 2727WAT     H1 8423   9.473   2.254   8.082
 2727WAT     H2 8424   9.324   2.312   8.050
 2728WAT      O 8425   8.451   9.239   7.098
 2728WAT     H1 8426   8.355   9.224   7.123
 2728WAT     H2 8427   8.463   9.222   7.001
 2729WAT      O 8428   0.487   6.763   0.903
 2729WAT     H1 8429   0.489   6.708   0.987
 2729WAT     H2 8430   0.570   6.818   0.898
 2730WAT      O 8431   5.170   8.094   7.864
 2730WAT     H1 8432   5.113   8.099   7.781
 2730WAT     H2 8433   5.233   8.017   7.856
 2731WAT      O 8434   6.464   2.932   0.944
 2731WAT     H1 8435   6.435   2.958   0.852
 2731WAT     H2 8436   6.419   2.991   1.011
 2732WAT      O 8437   8.779   0.303   9.647
 2732WAT     H1 8438   8.864   0.282   9.598
 2732WAT     H2 8439   8.706   0.320   9.582
 2733WAT      O 8440   1.168   2.557   5.470
 2733WAT     H1 8441   1.267   2.565   5.480
 2733WAT     H2 8442   1.148   2.512   5.383
 2734WAT      O 8443   2.474   3.438   0.551
 2734WAT     H1 8444   2.516   3.436   0.460
 2734WAT     H2 8445   2.543   3.418   0.620
 2735WAT      O 8446   1.534   7.763   3.116
 2735WAT     H1 8447   1.534   7.689   3.183
 2735WAT     H2 8448   1.611   7.752   3.054
 2736WAT      O 8449   2.638   3.820   9.616
 2736WAT     H1 8450   2.738   3.829   9.616
 2736WAT     H2 8451   2.612   3.738   9.665
 2737WAT      O 8452   4.661   1.710   5.550
 2737WAT     H1 8453   4.594   1.699   5.624
 2737WAT     H2 8454   4.719   1.628   5.546
 2738WAT      O 8455   1.985   9.052   4.386
 2738WAT     H1 8456   1.942   9.120   4.326
 2738WAT     H2 8457   2.030   8.982   4.331
 2739WAT      O 8458   5.765   8.628   4.055
 2739WAT     H1 8459   5.666   8.636   4.046
 2739WAT     H2 8460   5.806   8.719   4.063
 2740WAT      O 8461   6.680   5.330   2.140
 2740WAT     H1 8462   6.662   5.304   2.235
 2740WAT     H2 8463   6.722   5.421   2.138
 2741WAT      O 8464   2.469   5.870   5.567
 2741WAT     H1 8465   2.543   5.805   5.552
 2741WAT     H2 8466   2.480   5.914   5.656
 2742WAT      O 8467   3.443   0.377   4.274
 2742WAT     H1 8468   3.459   0.278   4.276
 2742WAT     H2 8469   3.396   0.401   4.189
 2743WAT      O 8470   6.274   6.598   6.696
 2743WAT     H1 8471   6.276   6.697   6.689
 2743WAT     H2 8472   6.216   6.571   6.773
 2744WAT      O 8473   1.352   9.491   0.988
 2744WAT     H1 8474   1.438   9.510   1.033
 2744WAT     H2 8475   1.299   9.575   0.978
 2745WAT      O 8476   8.581   2.773   6.115
 2745WAT     H1 8477   8.483   2.763   6.099
 2745WAT     H2 8478   8.617   2.692   6.161
 2746WAT      O 8479   7.653   0.106   6.065
 2746WAT     H1 8480   7.651   0.024   6.007
 2746WAT     H2 8481   7.726   0.097   6.133
 2747WAT      O 8482   4.672   2.061   0.078
 2747WAT     H1 8483   4.635   2.100  -0.007
 2747WAT     H2 8484   4.644   1.965   0.085
 2748WAT      O 8485   1.782   1.442   0.097
 2748WAT     H1 8486   1.822   1.352   0.118
 2748WAT     H2 8487   1.768   1.493   0.182
 2749WAT      O 8488   2.826   7.565   3.653
 2749WAT     H1 8489   2.739   7.570   3.604
 2749WAT     H2 8490   2.891   7.510   3.601
 2750WAT      O 8491   9.315   2.068   9.357
 2750WAT     H1 8492   9.394   2.106   9.404
 2750WAT     H2 8493   9.276   1.993   9.410
 2751WAT      O 8494   0.121   4.173   1.220
 2751WAT     H1 8495   0.026   4.204   1.216
 2751WAT     H2 8496   0.152   4.170   1.315
 2752WAT      O 8497   3.762   0.096   1.331
 2752WAT     H1 8498   3.733   0.191   1.346
 2752WAT     H2 8499   3.716   0.059   1.251
 2753WAT      O 8500   2.121   5.790   0.791
 2753WAT     H1 8501   2.051   5.861   0.789
 2753WAT     H2 8502   2.134   5.760   0.886
 2754WAT      O 8503   1.070   2.893   3.585
 2754WAT     H1 8504   1.065   2.862   3.680
 2754WAT     H2 8505   1.012   2.974   3.573
 2755WAT      O 8506   5.113   8.226   2.057
 2755WAT     H1 8507   5.039   8.284   2.091
 2755WAT     H2 8508   5.199   8.277   2.060
 2756WAT      O 8509   9.715   4.476   9.085
 2756WAT     H1 8510   9.706   4.560   9.033
 2756WAT     H2 8511   9.749   4.497   9.177
 2757WAT      O 8512   6.927   6.299   4.796
 2757WAT     H1 8513   6.898   6.203   4.795
 2757WAT     H2 8514   6.896   6.342   4.880
 2758WAT      O 8515   8.475   0.214   4.706
 2758WAT     H1 8516   8.409   0.282   4.739
 2758WAT     H2 8517   8.531   0.255   4.634
 2759WAT      O 8518   4.463   0.133   9.535
 2759WAT     H1 8519   4.530   0.096   9.470
 2759WAT     H2 8520   4.391   0.182   9.485
 2760WAT      O 8521   9.504   3.573   8.131
 2760WAT     H1 8522   9.444   3.516   8.187
 2760WAT     H2 8523   9.502   3.667   8.165
 2761WAT      O 8524   2.186   5.969   5.897
 2761WAT     H1 8525   2.141   5.970   5.986
 2761WAT     H2 8526   2.165   6.054   5.848
 2762WAT      O 8527   3.134   7.099   5.299
 2762WAT     H1 8528   3.101   7.134   5.386
 2762WAT     H2 8529   3.104   7.159   5.225
 2763WAT      O 8530   5.358   0.494   2.583
 2763WAT     H1 8531   5.336   0.533   2.672
 2763WAT     H2 8532   5.289   0.425   2.560
 2764WAT      O 8533   9.473   9.061   8.313
 2764WAT     H1 8534   9.428   9.130   8.369
 2764WAT     H2 8535   9.555   9.100   8.271
 2765WAT      O 8536   3.984   4.266   3.491
 2765WAT     H1 8537   3.971   4.240   3.395
 2765WAT     H2 8538   4.069   4.228   3.525
 2766WAT      O 8539   3.005   0.648   2.235
 2766WAT     H1 8540   2.949   0.653   2.317
 2766WAT     H2 8541   2.968   0.580   2.173
 2767WAT      O 8542   6.908   4.819   4.226
 2767WAT     H1 8543   6.919   4.728   4.266
 2767WAT     H2 8544   6.997   4.853   4.195
 2768WAT      O 8545   8.963   1.226   4.914
 2768WAT     H1 8546   9.023   1.154   4.878
 2768WAT     H2 8547   8.987   1.314   4.873
 2769WAT      O 8548   0.155   7.829   3.387
 2769WAT     H1 8549   0.169   7.733   3.411
 2769WAT     H2 8550   0.172   7.842   3.289
 2770WAT      O 8551   8.196   9.688   3.532
 2770WAT     H1 8552   8.200   9.785   3.556
 2770WAT     H2 8553   8.263   9.669   3.461
 2771WAT      O 8554   5.083   4.061   7.313
 2771WAT     H1 8555   5.069   4.125   7.238
 2771WAT     H2 8556   4.995   4.023   7.342
 2772WAT      O 8557   9.887   7.036   9.186
 2772WAT     H1 8558   9.871   7.053   9.089
 2772WAT     H2 8559   9.819   7.083   9.241
 2773WAT      O 8560   6.992   3.981   5.795
 2773WAT     H1 8561   7.006   3.969   5.893
 2773WAT     H2 8562   7.035   3.905   5.745
 2774WAT      O 8563   2.474   4.266   4.942
 2774WAT     H1 8564   2.551   4.207   4.920
 2774WAT     H2 8565   2.505   4.340   5.003
 2775WAT      O 8566   5.759   0.732   5.997
 2775WAT     H1 8567   5.701   0.812   6.009
 2775WAT     H2 8568   5.848   0.748   6.039
 2776WAT      O 8569   2.034   0.889   3.164
 2776WAT     H1 8570   2.058   0.929   3.076
 2776WAT     H2 8571   2.008   0.962   3.228
 2777WAT      O 8572   6.104   4.500   8.911
 2777WAT     H1 8573   6.172   4.428   8.920
 2777WAT     H2 8574   6.018   4.470   8.951
 2778WAT      O 8575   8.798   4.884   2.598
 2778WAT     H1 8576   8.700   4.885   2.618
 2778WAT     H2 8577   8.812   4.854   2.503
 2779WAT      O 8578   2.338   0.737   2.646
 2779WAT     H1 8579   2.427   0.761   2.608
 2779WAT     H2 8580   2.268   0.796   2.606
 2780WAT      O 8581   3.281   9.816   4.261
 2780WAT     H1 8582   3.375   9.852   4.257
 2780WAT     H2 8583   3.219   9.882   4.219
 2781WAT      O 8584   1.290   9.511   8.600
 2781WAT     H1 8585   1.266   9.482   8.693
 2781WAT     H2 8586   1.239   9.458   8.533
 2782WAT      O 8587   2.772   6.247   5.497
 2782WAT     H1 8588   2.687   6.288   5.463
 2782WAT     H2 8589   2.788   6.278   5.591
 2783WAT      O 8590   3.932   1.672   4.127
 2783WAT     H1 8591   3.857   1.719   4.082
 2783WAT     H2 8592   4.019   1.707   4.092
 2784WAT      O 8593   6.121   8.337   6.247
 2784WAT     H1 8594   6.117   8.267   6.175
 2784WAT     H2 8595   6.029   8.361   6.275
 2785WAT      O 8596   6.285   7.257   7.040
 2785WAT     H1 8597   6.342   7.265   6.958
 2785WAT     H2 8598   6.198   7.303   7.025
 2786WAT      O 8599   7.836   1.969   4.258
 2786WAT     H1 8600   7.788   2.017   4.185
 2786WAT     H2 8601   7.925   2.011   4.273
 2787WAT      O 8602   0.700   2.741   1.585
 2787WAT     H1 8603   0.711   2.681   1.664
 2787WAT     H2 8604   0.668   2.831   1.616
 2788WAT      O 8605   2.070   6.011   0.469
 2788WAT     H1 8606   2.044   6.006   0.566
 2788WAT     H2 8607   2.121   5.929   0.444
 2789WAT      O 8608   1.770   0.938   2.328
 2789WAT     H1 8609   1.785   0.919   2.231
 2789WAT     H2 8610   1.682   0.986   2.339
 2790WAT      O 8611   2.336   3.224   8.318
 2790WAT     H1 8612   2.277   3.304   8.330
 2790WAT     H2 8613   2.372   3.223   8.225
 2791WAT      O 8614   2.664   0.518   0.644
 2791WAT     H1 8615   2.597   0.563   0.703
 2791WAT     H2 8616   2.747   0.574   0.640
 2792WAT      O 8617   8.312   5.528   7.023
 2792WAT     H1 8618   8.247   5.572   7.084
 2792WAT     H2 8619   8.401   5.573   7.030
 2793WAT      O 8620   8.534   2.601   3.487
 2793WAT     H1 8621   8.456   2.541   3.502
 2793WAT     H2 8622   8.586   2.569   3.407
 2794WAT      O 8623   7.998   8.407   1.185
 2794WAT     H1 8624   8.052   8.372   1.262
 2794WAT     H2 8625   7.903   8.379   1.196
 2795WAT      O 8626   7.204   3.768   6.104
 2795WAT     H1 8627   7.161   3.682   6.131
 2795WAT     H2 8628   7.134   3.838   6.091
 2796WAT      O 8629   4.603   1.821   0.155
 2796WAT     H1 8630   4.654   1.766   0.089
 2796WAT     H2 8631   4.509   1.789   0.160
 2797WAT      O 8632   9.200   2.694   2.737
 2797WAT     H1 8633   9.190   2.662   2.643
 2797WAT     H2 8634   9.294   2.724   2.753
 2798WAT      O 8635   4.541   0.904   8.847
 2798WAT     H1 8636   4.502   0.995   8.832
 2798WAT     H2 8637   4.468   0.840   8.872
 2799WAT      O 8638   4.451   6.231   1.893
 2799WAT     H1 8639   4.398   6.180   1.825
 2799WAT     H2 8640   4.426   6.202   1.985
 2800WAT      O 8641   5.165   0.220   0.254
 2800WAT     H1 8642   5.090   0.284   0.239
 2800WAT     H2 8643   5.198   0.185   0.167
 2801WAT      O 8644   7.073   1.149   7.314
 2801WAT     H1 8645   7.080   1.212   7.392
 2801WAT     H2 8646   7.093   1.056   7.345
 2802WAT      O 8647   9.514   0.203   5.201
 2802WAT     H1 8648   9.461   0.235   5.280
 2802WAT     H2 8649   9.607   0.181   5.230
 2803WAT      O 8650   7.270   3.038   8.657
 2803WAT     H1 8651   7.174   3.065   8.657
 2803WAT     H2 8652   7.278   2.939   8.646
 2804WAT      O 8653   5.297   5.307   9.033
 2804WAT     H1 8654   5.393   5.329   9.052
 2804WAT     H2 8655   5.289   5.274   8.939
 2805WAT      O 8656   8.712   9.731   7.857
 2805WAT     H1 8657   8.752   9.812   7.815
 2805WAT     H2 8658   8.640   9.759   7.921
 2806WAT      O 8659   3.383   1.872   4.092
 2806WAT     H1 8660   3.405   1.812   4.016
 2806WAT     H2 8661   3.383   1.819   4.177
 2807WAT      O 8662   5.735   3.004   2.791
 2807WAT     H1 8663   5.721   2.907   2.774
 2807WAT     H2 8664   5.649   3.045   2.823
 2808WAT      O 8665   7.551   1.322   7.615
 2808WAT     H1 8666   7.604   1.372   7.547
 2808WAT     H2 8667   7.609   1.300   7.693
 2809WAT      O 8668   1.420   6.722   5.290
 2809WAT     H1 8669   1.502   6.665   5.304
 2809WAT     H2 8670   1.370   6.688   5.211
 2810WAT      O 8671   3.950   6.997   0.279
 2810WAT     H1 8672   4.027   7.060   0.288
 2810WAT     H2 8673   3.938   6.972   0.183
 2811WAT      O 8674   5.326   4.569   4.680
 2811WAT     H1 8675   5.244   4.573   4.737
 2811WAT     H2 8676   5.402   4.611   4.730
 2812WAT      O 8677   2.462   9.420   7.457
 2812WAT     H1 8678   2.482   9.479   7.535
 2812WAT     H2 8679   2.364   9.400   7.453
 2813WAT      O 8680   1.205   5.966   6.047
 2813WAT     H1 8681   1.129   5.908   6.016
 2813WAT     H2 8682   1.262   5.915   6.111
 2814WAT      O 8683   8.574   4.535   8.372
 2814WAT     H1 8684   8.482   4.575   8.371
 2814WAT     H2 8685   8.642   4.608   8.371
 2815WAT      O 8686   0.958   1.914   1.937
 2815WAT     H1 8687   0.901   1.841   1.899
 2815WAT     H2 8688   0.948   1.917   2.036
 2816WAT      O 8689   4.399   4.762   3.266
 2816WAT     H1 8690   4.485   4.758   3.214
 2816WAT     H2 8691   4.323   4.739   3.206
 2817WAT      O 8692   3.703   8.995   6.925
 2817WAT     H1 8693   3.711   9.088   6.890
 2817WAT     H2 8694   3.735   8.930   6.856
 2818WAT      O 8695   8.670   7.192   4.026
 2818WAT     H1 8696   8.737   7.119   4.038
 2818WAT     H2 8697   8.653   7.206   3.928
 2819WAT      O 8698   7.938   4.250   3.959
 2819WAT     H1 8699   8.006   4.323   3.962
 2819WAT     H2 8700   7.944   4.195   4.042
 2820WAT      O 8701   8.885   2.517   6.659
 2820WAT     H1 8702   8.941   2.494   6.738
 2820WAT     H2 8703   8.927   2.482   6.575
 2821WAT      O 8704   9.744   8.256   9.813
 2821WAT     H1 8705   9.692   8.206   9.744
 2821WAT     H2 8706   9.682   8.293   9.882
 2822WAT      O 8707   3.798   3.552   5.103
 2822WAT     H1 8708   3.706   3.517   5.088
 2822WAT     H2 8709   3.797   3.652   5.097
 2823WAT      O 8710   7.422   6.071   4.351
 2823WAT     H1 8711   7.374   5.983   4.358
 2823WAT     H2 8712   7.416   6.120   4.438
 2824WAT      O 8713   0.057   6.301   3.459
 2824WAT     H1 8714   0.147   6.328   3.495
 2824WAT     H2 8715   0.021   6.374   3.401
 2825WAT      O 8716   8.836   6.261   6.395
 2825WAT     H1 8717   8.889   6.322   6.454
 2825WAT     H2 8718   8.871   6.266   6.302
 2826WAT      O 8719   6.415   6.137   2.656
 2826WAT     H1 8720   6.362   6.128   2.741
 2826WAT     H2 8721   6.386   6.219   2.607
 2827WAT      O 8722   6.296   8.682   3.611
 2827WAT     H1 8723   6.289   8.583   3.620
 2827WAT     H2 8724   6.392   8.709   3.615
 2828WAT      O 8725   8.027   5.435   0.287
 2828WAT     H1 8726   8.014   5.406   0.192
 2828WAT     H2 8727   8.105   5.386   0.327
 2829WAT      O 8728   9.492   0.213   5.741
 2829WAT     H1 8729   9.453   0.296   5.701
 2829WAT     H2 8730   9.434   0.134   5.717
 2830WAT      O 8731   0.828   9.367   6.736
 2830WAT     H1 8732   0.918   9.346   6.698
 2830WAT     H2 8733   0.758   9.323   6.681
 2831WAT      O 8734   3.629   1.227   0.554
 2831WAT     H1 8735   3.600   1.320   0.531
 2831WAT     H2 8736   3.691   1.193   0.483
 2832WAT      O 8737   0.933   5.799   6.574
 2832WAT     H1 8738   0.995   5.862   6.527
 2832WAT     H2 8739   0.970   5.706   6.568
 2833WAT      O 8740   9.424   0.551   3.461
 2833WAT     H1 8741   9.475   0.632   3.431
 2833WAT     H2 8742   9.428   0.481   3.390
 2834WAT      O 8743   1.412   0.519   2.576
 2834WAT     H1 8744   1.506   0.555   2.579
 2834WAT     H2 8745   1.368   0.549   2.492
 2835WAT      O 8746   5.490   3.132   5.400
 2835WAT     H1 8747   5.440   3.083   5.328
 2835WAT     H2 8748   5.435   3.210   5.431
 2836WAT      O 8749   6.975   9.784   5.353
 2836WAT     H1 8750   6.943   9.690   5.347
 2836WAT     H2 8751   7.051   9.798   5.290
 2837WAT      O 8752   6.672   8.340   7.158
 2837WAT     H1 8753   6.619   8.390   7.090
 2837WAT     H2 8754   6.646   8.243   7.156
 2838WAT      O 8755   3.056   2.736   1.960
 2838WAT     H1 8756   3.027   2.648   1.925
 2838WAT     H2 8757   3.140   2.765   1.914
 2839WAT      O 8758   0.710   4.427   7.610
 2839WAT     H1 8759   0.790   4.377   7.644
 2839WAT     H2 8760   0.728   4.525   7.613
 2840WAT      O 8761   0.612   6.938   2.368
 2840WAT     H1 8762   0.526   6.936   2.317
 2840WAT     H2 8763   0.628   6.849   2.411
 2841WAT      O 8764   1.257   2.323   0.990
 2841WAT     H1 8765   1.178   2.337   1.049
 2841WAT     H2 8766   1.230   2.332   0.895
 2842WAT      O 8767   3.786   8.700   5.363
 2842WAT     H1 8768   3.744   8.678   5.451
 2842WAT     H2 8769   3.867   8.644   5.350
 2843WAT      O 8770   9.705   1.414   0.856
 2843WAT     H1 8771   9.664   1.405   0.946
 2843WAT     H2 8772   9.729   1.324   0.820
 2844WAT      O 8773   4.827   3.093   1.543
 2844WAT     H1 8774   4.787   3.077   1.452
 2844WAT     H2 8775   4.899   3.162   1.536
 2845WAT      O 8776   0.604   5.876   0.505
 2845WAT     H1 8777   0.595   5.885   0.605
 2845WAT     H2 8778   0.558   5.953   0.461
 2846WAT      O 8779   4.762   7.766   5.383
 2846WAT     H1 8780   4.798   7.746   5.292
 2846WAT     H2 8781   4.671   7.726   5.391
 2847WAT      O 8782   9.355   4.803   6.697
 2847WAT     H1 8783   9.323   4.712   6.722
 2847WAT     H2 8784   9.443   4.822   6.742
 2848WAT      O 8785   8.152   4.987   4.636
 2848WAT     H1 8786   8.124   4.895   4.663
 2848WAT     H2 8787   8.244   5.006   4.670
 2849WAT      O 8788   7.380   4.442   2.481
 2849WAT     H1 8789   7.426   4.390   2.409
 2849WAT     H2 8790   7.289   4.469   2.449
 2850WAT      O 8791   1.466   6.883   4.460
 2850WAT     H1 8792   1.409   6.914   4.384
 2850WAT     H2 8793   1.409   6.844   4.532
 2851WAT      O 8794   4.205   1.759   5.656
 2851WAT     H1 8795   4.127   1.811   5.621
 2851WAT     H2 8796   4.171   1.686   5.716
 2852WAT      O 8797   9.477   6.365   0.416
 2852WAT     H1 8798   9.532   6.383   0.334
 2852WAT     H2 8799   9.535   6.324   0.486
 2853WAT      O 8800   3.725   0.978   1.295
 2853WAT     H1 8801   3.773   0.967   1.382
 2853WAT     H2 8802   3.739   0.896   1.239
 2854WAT      O 8803   5.364   8.506   3.224
 2854WAT     H1 8804   5.379   8.595   3.267
 2854WAT     H2 8805   5.342   8.438   3.294
 2855WAT      O 8806   2.178   5.800   1.053
 2855WAT     H1 8807   2.220   5.891   1.051
 2855WAT     H2 8808   2.121   5.792   1.135
 2856WAT      O 8809   2.223   6.013   3.421
 2856WAT     H1 8810   2.215   6.045   3.516
 2856WAT     H2 8811   2.283   5.933   3.419
 2857WAT      O 8812   6.338   9.434   9.138
 2857WAT     H1 8813   6.385   9.439   9.226
 2857WAT     H2 8814   6.389   9.487   9.070
 2858WAT      O 8815   6.467   3.439   1.211
 2858WAT     H1 8816   6.520   3.524   1.209
 2858WAT     H2 8817   6.385   3.453   1.268
 2859WAT      O 8818   1.452   4.850   3.984
 2859WAT     H1 8819   1.458   4.796   3.900
 2859WAT     H2 8820   1.495   4.939   3.968
 2860WAT      O 8821   0.048   8.603   1.367
 2860WAT     H1 8822   0.119   8.541   1.400
 2860WAT     H2 8823   0.090   8.681   1.320
 2861WAT      O 8824   9.797   0.626   1.006
 2861WAT     H1 8825   9.860   0.659   0.935
 2861WAT     H2 8826   9.761   0.704   1.057
 2862WAT      O 8827   4.878   1.977   8.058
 2862WAT     H1 8828   4.786   1.957   8.092
 2862WAT     H2 8829   4.945   1.937   8.120
 2863WAT      O 8830   3.251   9.054   8.345
 2863WAT     H1 8831   3.184   9.012   8.284
 2863WAT     H2 8832   3.316   9.109   8.292
 2864WAT      O 8833   1.539   0.493   9.152
 2864WAT     H1 8834   1.520   0.421   9.217
 2864WAT     H2 8835   1.627   0.476   9.108
 2865WAT      O 8836   1.324   5.607   0.477
 2865WAT     H1 8837   1.259   5.543   0.518
 2865WAT     H2 8838   1.366   5.564   0.397
 2866WAT      O 8839   3.157   8.013   5.358
 2866WAT     H1 8840   3.219   7.936   5.370
 2866WAT     H2 8841   3.066   7.989   5.391
 2867WAT      O 8842   8.657   5.333   9.280
 2867WAT     H1 8843   8.598   5.413   9.270
 2867WAT     H2 8844   8.659   5.282   9.194
 2868WAT      O 8845   6.844   0.844   0.902
 2868WAT     H1 8846   6.882   0.837   0.810
 2868WAT     H2 8847   6.841   0.753   0.944
 2869WAT      O 8848   7.814   7.538   2.020
 2869WAT     H1 8849   7.753   7.576   2.090
 2869WAT     H2 8850   7.772   7.548   1.930
 2870WAT      O 8851   7.553   5.309   1.129
 2870WAT     H1 8852   7.580   5.381   1.066
 2870WAT     H2 8853   7.514   5.349   1.211
 2871WAT      O 8854   4.921   0.224   2.473
 2871WAT     H1 8855   4.964   0.247   2.560
 2871WAT     H2 8856   4.945   0.294   2.405
 2872WAT      O 8857   8.949   6.809   0.861
 2872WAT     H1 8858   9.046   6.820   0.840
 2872WAT     H2 8859   8.939   6.757   0.946
 2873WAT      O 8860   6.810   6.567   1.045
 2873WAT     H1 8861   6.828   6.492   1.109
 2873WAT     H2 8862   6.879   6.566   0.972
 2874WAT      O 8863   6.086   6.682   8.324
 2874WAT     H1 8864   6.124   6.634   8.246
 2874WAT     H2 8865   6.041   6.766   8.294
 2875WAT      O 8866   0.141   6.385   4.952
 2875WAT     H1 8867   0.180   6.319   4.888
 2875WAT     H2 8868   0.191   6.381   5.039
 2876WAT      O 8869   8.762   7.976   3.416
 2876WAT     H1 8870   8.859   7.988   3.439
 2876WAT     H2 8871   8.709   7.964   3.501
 2877WAT      O 8872   0.342   5.755   6.790
 2877WAT     H1 8873   0.346   5.827   6.720
 2877WAT     H2 8874   0.322   5.667   6.746
 2878WAT      O 8875   7.217   4.749   1.140
 2878WAT     H1 8876   7.288   4.679   1.126
 2878WAT     H2 8877   7.152   4.745   1.065
 2879WAT      O 8878   9.540   5.528   1.349
 2879WAT     H1 8879   9.590   5.506   1.265
 2879WAT     H2 8880   9.586   5.486   1.427
 2880WAT      O 8881   0.392   2.390   4.839
 2880WAT     H1 8882   0.453   2.457   4.797
 2880WAT     H2 8883   0.319   2.366   4.774
 2881WAT      O 8884   0.968   4.500   3.644
 2881WAT     H1 8885   0.898   4.555   3.598
 2881WAT     H2 8886   0.924   4.424   3.691
 2882WAT      O 8887   8.068   3.450   9.325
 2882WAT     H1 8888   8.118   3.397   9.256
 2882WAT     H2 8889   8.035   3.388   9.396
 2883WAT      O 8890   8.512   1.080   3.581
 2883WAT     H1 8891   8.563   1.122   3.656
 2883WAT     H2 8892   8.529   0.982   3.579
 2884WAT      O 8893   3.696   0.153   8.518
 2884WAT     H1 8894   3.759   0.161   8.441
 2884WAT     H2 8895   3.621   0.219   8.506
 2885WAT      O 8896   1.941   6.698   2.513
 2885WAT     H1 8897   1.902   6.736   2.429
 2885WAT     H2 8898   2.038   6.678   2.498
 2886WAT      O 8899   7.654   9.129   1.416
 2886WAT     H1 8900   7.719   9.164   1.349
 2886WAT     H2 8901   7.563   9.122   1.375
 2887WAT      O 8902   4.147   5.425   3.651
 2887WAT     H1 8903   4.087   5.355   3.689
 2887WAT     H2 8904   4.199   5.387   3.575
 2888WAT      O 8905   5.192   5.174   1.154
 2888WAT     H1 8906   5.171   5.262   1.112
 2888WAT     H2 8907   5.176   5.101   1.088
 2889WAT      O 8908   1.187   7.081   4.454
 2889WAT     H1 8909   1.148   7.173   4.450
 2889WAT     H2 8910   1.258   7.072   4.385
 2890WAT      O 8911   5.362   9.405   5.747
 2890WAT     H1 8912   5.408   9.395   5.836
 2890WAT     H2 8913   5.404   9.480   5.696
 2891WAT      O 8914   8.970   8.400   1.013
 2891WAT     H1 8915   8.871   8.415   1.022
 2891WAT     H2 8916   9.018   8.459   1.077
 2892WAT      O 8917   0.577   1.597   5.347
 2892WAT     H1 8918   0.572   1.530   5.422
 2892WAT     H2 8919   0.499   1.585   5.286
 2893WAT      O 8920   2.132   7.086   3.389
 2893WAT     H1 8921   2.109   7.014   3.324
 2893WAT     H2 8922   2.089   7.065   3.477
 2894WAT      O 8923   6.818   1.374   6.382
 2894WAT     H1 8924   6.870   1.442   6.434
 2894WAT     H2 8925   6.832   1.284   6.422
 2895WAT      O 8926   7.219   6.316   8.752
 2895WAT     H1 8927   7.176   6.237   8.796
 2895WAT     H2 8928   7.150   6.372   8.707
 2896WAT      O 8929   3.838   2.549   1.353
 2896WAT     H1 8930   3.928   2.592   1.347
 2896WAT     H2 8931   3.843   2.456   1.315
 2897WAT      O 8932   0.301   5.932   5.298
 2897WAT     H1 8933   0.226   5.994   5.275
 2897WAT     H2 8934   0.298   5.852   5.238
 2898WAT      O 8935   3.710   1.068   5.457
 2898WAT     H1 8936   3.810   1.065   5.456
 2898WAT     H2 8937   3.674   1.012   5.382
 2899WAT      O 8938   5.073   3.123   7.592
 2899WAT     H1 8939   5.059   3.104   7.689
 2899WAT     H2 8940   4.986   3.147   7.549
 2900WAT      O 8941   8.532   5.596   3.542
 2900WAT     H1 8942   8.567   5.657   3.613
 2900WAT     H2 8943   8.453   5.638   3.498
 2901WAT      O 8944   0.877   2.484   3.492
 2901WAT     H1 8945   0.893   2.447   3.584
 2901WAT     H2 8946   0.962   2.477   3.439
 2902WAT      O 8947   1.805   6.801   2.307
 2902WAT     H1 8948   1.776   6.716   2.262
 2902WAT     H2 8949   1.859   6.855   2.242
 2903WAT      O 8950   4.181   2.350   6.211
 2903WAT     H1 8951   4.280   2.335   6.211
 2903WAT     H2 8952   4.143   2.314   6.125
 2904WAT      O 8953   3.968   4.646   0.363
 2904WAT     H1 8954   4.037   4.575   0.375
 2904WAT     H2 8955   3.886   4.621   0.413
 2905WAT      O 8956   4.303   3.077   3.513
 2905WAT     H1 8957   4.317   2.982   3.544
 2905WAT     H2 8958   4.205   3.096   3.511
 2906WAT      O 8959   9.768   0.482   9.045
 2906WAT     H1 8960   9.813   0.562   9.086
 2906WAT     H2 8961   9.762   0.409   9.113
 2907WAT      O 8962   5.847   9.172   3.833
 2907WAT     H1 8963   5.752   9.140   3.834
 2907WAT     H2 8964   5.852   9.258   3.783
 2908WAT      O 8965   9.795   5.110   0.054
 2908WAT     H1 8966   9.731   5.047   0.098
 2908WAT     H2 8967   9.844   5.061  -0.018
 2909WAT      O 8968   0.507   4.370   8.070
 2909WAT     H1 8969   0.504   4.420   8.156
 2909WAT     H2 8970   0.419   4.378   8.024
 2910WAT      O 8971   7.820   1.692   2.962
 2910WAT     H1 8972   7.730   1.654   2.938
 2910WAT     H2 8973   7.887   1.618   2.967
 2911WAT      O 8974   2.134   3.284   7.664
 2911WAT     H1 8975   2.189   3.352   7.616
 2911WAT     H2 8976   2.177   3.261   7.751
 2912WAT      O 8977   5.231   9.112   6.565
 2912WAT     H1 8978   5.189   9.135   6.653
 2912WAT     H2 8979   5.282   9.191   6.531
 2913WAT      O 8980   3.414   5.612   0.631
 2913WAT     H1 8981   3.400   5.518   0.600
 2913WAT     H2 8982   3.329   5.648   0.669
 2914WAT      O 8983   7.620   8.652   8.798
 2914WAT     H1 8984   7.669   8.724   8.847
 2914WAT     H2 8985   7.602   8.576   8.860
 2915WAT      O 8986   4.516   0.317   2.815
 2915WAT     H1 8987   4.530   0.399   2.870
 2915WAT     H2 8988   4.575   0.321   2.734
 2916WAT      O 8989   6.674   0.832   2.192
 2916WAT     H1 8990   6.607   0.817   2.119
 2916WAT     H2 8991   6.731   0.911   2.170
 2917WAT      O 8992   4.046   6.677   3.770
 2917WAT     H1 8993   4.143   6.678   3.747
 2917WAT     H2 8994   4.027   6.743   3.842
 2918WAT      O 8995   2.826   9.243   3.131
 2918WAT     H1 8996   2.786   9.198   3.211
 2918WAT     H2 8997   2.853   9.336   3.155
 2919WAT      O 8998   0.245   2.193   1.381
 2919WAT     H1 8999   0.162   2.142   1.360
 2919WAT     H2 9000   0.305   2.138   1.438
 2920WAT      O 9001   7.930   5.185   6.857
 2920WAT     H1 9002   7.835   5.156   6.864
 2920WAT     H2 9003   7.987   5.128   6.916
 2921WAT      O 9004   2.304   0.351   4.388
 2921WAT     H1 9005   2.272   0.369   4.295
 2921WAT     H2 9006   2.310   0.252   4.403
 2922WAT      O 9007   8.257   3.133   6.149
 2922WAT     H1 9008   8.330   3.111   6.214
 2922WAT     H2 9009   8.299   3.162   6.063
 2923WAT      O 9010   8.995   5.250   1.190
 2923WAT     H1 9011   9.022   5.165   1.145
 2923WAT     H2 9012   8.994   5.237   1.289
 2924WAT      O 9013   2.861   4.347   2.127
 2924WAT     H1 9014   2.787   4.280   2.134
 2924WAT     H2 9015   2.947   4.300   2.112
 2925WAT      O 9016   2.536   9.079   8.377
 2925WAT     H1 9017   2.539   9.102   8.474
 2925WAT     H2 9018   2.583   9.150   8.324
 2926WAT      O 9019   1.316   0.796   5.139
 2926WAT     H1 9020   1.243   0.730   5.122
 2926WAT     H2 9021   1.279   0.874   5.191
 2927WAT      O 9022   1.626   3.954   6.608
 2927WAT     H1 9023   1.548   3.978   6.551
 2927WAT     H2 9024   1.599   3.957   6.704
 2928WAT      O 9025   0.118   0.333   7.660
 2928WAT     H1 9026   0.099   0.378   7.573
 2928WAT     H2 9027   0.127   0.234   7.645
 2929WAT      O 9028   4.895   7.275   1.537
 2929WAT     H1 9029   4.903   7.246   1.633
 2929WAT     H2 9030   4.977   7.328   1.512
 2930WAT      O 9031   1.616   0.626   7.301
 2930WAT     H1 9032   1.684   0.659   7.366
 2930WAT     H2 9033   1.639   0.533   7.272
 2931WAT      O 9034   1.706   4.532   2.796
 2931WAT     H1 9035   1.612   4.515   2.826
 2931WAT     H2 9036   1.738   4.454   2.742
 2932WAT      O 9037   9.403   4.247   0.137
 2932WAT     H1 9038   9.332   4.228   0.069
 2932WAT     H2 9039   9.366   4.306   0.209
 2933WAT      O 9040   2.713   3.094   1.350
 2933WAT     H1 9041   2.788   3.106   1.284
 2933WAT     H2 9042   2.718   3.003   1.390
 2934WAT      O 9043   0.778   1.466   3.044
 2934WAT     H1 9044   0.763   1.406   2.966
 2934WAT     H2 9045   0.702   1.457   3.108
 2935WAT      O 9046   4.599   7.633   4.238
 2935WAT     H1 9047   4.637   7.725   4.244
 2935WAT     H2 9048   4.674   7.566   4.241
 2936WAT      O 9049   7.036   1.476   8.602
 2936WAT     H1 9050   6.940   1.455   8.621
 2936WAT     H2 9051   7.053   1.469   8.504
 2937WAT      O 9052   1.363   2.852   3.802
 2937WAT     H1 9053   1.411   2.769   3.774
 2937WAT     H2 9054   1.303   2.832   3.879
 2938WAT      O 9055   0.958   4.034   2.868
 2938WAT     H1 9056   0.967   4.026   2.968
 2938WAT     H2 9057   0.896   3.963   2.834
 2939WAT      O 9058   5.710   3.420   7.862
 2939WAT     H1 9059   5.774   3.487   7.827
 2939WAT     H2 9060   5.617   3.446   7.838
 2940WAT      O 9061   0.988   8.705   1.178
 2940WAT     H1 9062   0.996   8.651   1.093
 2940WAT     H2 9063   1.051   8.782   1.174
 2941WAT      O 9064   7.465   3.820   1.790
 2941WAT     H1 9065   7.468   3.824   1.890
 2941WAT     H2 9066   7.405   3.893   1.756
 2942WAT      O 9067   8.141   0.457   2.441
 2942WAT     H1 9068   8.211   0.392   2.413
 2942WAT     H2 9069   8.051   0.413   2.438
 2943WAT      O 9070   8.087   9.710   9.777
 2943WAT     H1 9071   8.094   9.671   9.869
 2943WAT     H2 9072   8.112   9.807   9.780
 2944WAT      O 9073   2.921   0.593   5.012
 2944WAT     H1 9074   2.856   0.518   5.002
 2944WAT     H2 9075   3.008   0.559   5.048
 2945WAT      O 9076   4.627   6.632   6.168
 2945WAT     H1 9077   4.683   6.557   6.132
 2945WAT     H2 9078   4.647   6.716   6.118
 2946WAT      O 9079   4.159   0.555   0.412
 2946WAT     H1 9080   4.255   0.536   0.392
 2946WAT     H2 9081   4.148   0.570   0.510
 2947WAT      O 9082   4.181   0.721   3.964
 2947WAT     H1 9083   4.159   0.818   3.955
 2947WAT     H2 9084   4.201   0.700   4.059
 2948WAT      O 9085   3.855   8.915   7.989
 2948WAT     H1 9086   3.821   8.822   7.991
 2948WAT     H2 9087   3.935   8.923   8.049
 2949WAT      O 9088   7.535   1.642   2.368
 2949WAT     H1 9089   7.588   1.675   2.291
 2949WAT     H2 9090   7.557   1.546   2.386
 2950WAT      O 9091   9.387   1.007   7.111
 2950WAT     H1 9092   9.469   1.037   7.063
 2950WAT     H2 9093   9.315   1.076   7.100
 2951WAT      O 9094   2.259   3.797   0.295
 2951WAT     H1 9095   2.205   3.763   0.218
 2951WAT     H2 9096   2.246   3.896   0.305
 2952WAT      O 9097   6.769   4.201   3.774
 2952WAT     H1 9098   6.675   4.235   3.761
 2952WAT     H2 9099   6.814   4.253   3.847
 2953WAT      O 9100   9.799   8.754   4.789
 2953WAT     H1 9101   9.770   8.850   4.783
 2953WAT     H2 9102   9.720   8.694   4.772
 2954WAT      O 9103   5.929   6.016   0.933
 2954WAT     H1 9104   5.955   6.058   0.846
 2954WAT     H2 9105   5.830   6.019   0.944
 2955WAT      O 9106   6.922   2.361   4.309
 2955WAT     H1 9107   7.015   2.331   4.287
 2955WAT     H2 9108   6.920   2.460   4.316
 2956WAT      O 9109   7.528   0.182   7.982
 2956WAT     H1 9110   7.623   0.177   7.950
 2956WAT     H2 9111   7.466   0.186   7.904
 2957WAT      O 9112   9.338   2.779   1.758
 2957WAT     H1 9113   9.355   2.877   1.768
 2957WAT     H2 9114   9.396   2.742   1.685
 2958WAT      O 9115   6.442   3.994   4.629
 2958WAT     H1 9116   6.472   3.995   4.725
 2958WAT     H2 9117   6.352   3.953   4.623
 2959WAT      O 9118   7.298   2.013   5.778
 2959WAT     H1 9119   7.342   1.946   5.837
 2959WAT     H2 9120   7.357   2.092   5.767
 2960WAT      O 9121   9.200   6.199   9.192
 2960WAT     H1 9122   9.186   6.104   9.218
 2960WAT     H2 9123   9.278   6.237   9.242
 2961WAT      O 9124   0.424   0.878   2.006
 2961WAT     H1 9125   0.514   0.920   2.005
 2961WAT     H2 9126   0.362   0.932   2.063
 2962WAT      O 9127   4.772   5.786   0.042
 2962WAT     H1 9128   4.817   5.709   0.088
 2962WAT     H2 9129   4.808   5.796  -0.051
 2963WAT      O 9130   4.616   1.657   4.136
 2963WAT     H1 9131   4.555   1.678   4.060
 2963WAT     H2 9132   4.562   1.652   4.221
 2964WAT      O 9133   4.468   0.676   6.300
 2964WAT     H1 9134   4.479   0.704   6.395
 2964WAT     H2 9135   4.431   0.583   6.297
 2965WAT      O 9136   5.136   3.514   5.136
 2965WAT     H1 9137   5.078   3.588   5.169
 2965WAT     H2 9138   5.162   3.455   5.212
 2966WAT      O 9139   5.265   8.115   3.946
 2966WAT     H1 9140   5.271   8.132   4.044
 2966WAT     H2 9141   5.195   8.046   3.927
 2967WAT      O 9142   0.350   5.778   7.763
 2967WAT     H1 9143   0.351   5.743   7.857
 2967WAT     H2 9144   0.286   5.725   7.708
 2968WAT      O 9145   8.255   7.466   5.364
 2968WAT     H1 9146   8.346   7.497   5.334
 2968WAT     H2 9147   8.246   7.480   5.463
 2969WAT      O 9148   0.117   7.912   1.828
 2969WAT     H1 9149   0.193   7.896   1.765
 2969WAT     H2 9150   0.126   7.852   1.907
 2970WAT      O 9151   3.365   7.276   4.588
 2970WAT     H1 9152   3.275   7.272   4.542
 2970WAT     H2 9153   3.402   7.368   4.580
 2971WAT      O 9154   4.219   5.206   6.251
 2971WAT     H1 9155   4.190   5.110   6.254
 2971WAT     H2 9156   4.170   5.258   6.321
 2972WAT      O 9157   8.811   3.048   7.590
 2972WAT     H1 9158   8.857   3.137   7.586
 2972WAT     H2 9159   8.813   3.006   7.499
 2973WAT      O 9160   7.671   7.803   5.988
 2973WAT     H1 9161   7.599   7.735   6.003
 2973WAT     H2 9162   7.634   7.880   5.936
 2974WAT      O 9163   2.299   8.938   8.666
 2974WAT     H1 9164   2.378   8.899   8.713
 2974WAT     H2 9165   2.291   9.035   8.688
 2975WAT      O 9166   7.365   5.093   1.114
 2975WAT     H1 9167   7.388   4.997   1.129
 2975WAT     H2 9168   7.446   5.150   1.130
 2976WAT      O 9169   8.161   1.839   8.453
 2976WAT     H1 9170   8.142   1.815   8.358
 2976WAT     H2 9171   8.241   1.900   8.455
 2977WAT      O 9172   4.752   2.492   7.696
 2977WAT     H1 9173   4.684   2.526   7.760
 2977WAT     H2 9174   4.773   2.396   7.717
 2978WAT      O 9175   0.898   1.735   6.408
 2978WAT     H1 9176   0.976   1.693   6.361
 2978WAT     H2 9177   0.923   1.826   6.441
 2979WAT      O 9178   9.056   2.158   8.484
 2979WAT     H1 9179   9.095   2.231   8.540
 2979WAT     H2 9180   8.996   2.101   8.541
 2980WAT      O 9181   7.713   0.444   0.584
 2980WAT     H1 9182   7.722   0.521   0.521
 2980WAT     H2 9183   7.618   0.437   0.615
 2981WAT      O 9184   1.851   7.738   0.539
 2981WAT     H1 9185   1.945   7.704   0.541
 2981WAT     H2 9186   1.795   7.678   0.483
 2982WAT      O 9187   3.204   3.301   4.526
 2982WAT     H1 9188   3.233   3.284   4.432
 2982WAT     H2 9189   3.159   3.390   4.531
 2983WAT      O 9190   3.003   0.398   1.771
 2983WAT     H1 9191   2.922   0.454   1.787
 2983WAT     H2 9192   3.036   0.412   1.678
 2984WAT      O 9193   0.421   7.795   1.129
 2984WAT     H1 9194   0.488   7.800   1.203
 2984WAT     H2 9195   0.441   7.716   1.071
 2985WAT      O 9196   7.574   8.193   8.872
 2985WAT     H1 9197   7.509   8.192   8.796
 2985WAT     H2 9198   7.649   8.129   8.853
 2986WAT      O 9199   5.910   7.607   7.849
 2986WAT     H1 9200   5.988   7.604   7.787
 2986WAT     H2 9201   5.887   7.514   7.879
 2987WAT      O 9202   6.269   0.969   5.861
 2987WAT     H1 9203   6.188   0.910   5.864
 2987WAT     H2 9204   6.254   1.041   5.794
 2988WAT      O 9205   2.212   0.873   6.080
 2988WAT     H1 9206   2.146   0.839   6.147
 2988WAT     H2 9207   2.271   0.799   6.050
 2989WAT      O 9208   5.027   7.534   9.718
 2989WAT     H1 9209   4.965   7.479   9.662
 2989WAT     H2 9210   4.984   7.621   9.739
 2990WAT      O 9211   8.814   4.205   9.374
 2990WAT     H1 9212   8.831   4.282   9.313
 2990WAT     H2 9213   8.847   4.228   9.466
 2991WAT      O 9214   2.443   7.709   2.928
 2991WAT     H1 9215   2.468   7.699   2.832
 2991WAT     H2 9216   2.344   7.693   2.938
 2992WAT      O 9217   0.345   3.211   4.926
 2992WAT     H1 9218   0.273   3.269   4.887
 2992WAT     H2 9219   0.342   3.121   4.882
 2993WAT      O 9220   3.881   6.841   6.486
 2993WAT     H1 9221   3.911   6.758   6.439
 2993WAT     H2 9222   3.781   6.846   6.482
 2994WAT      O 9223   3.942   2.294   3.573
 2994WAT     H1 9224   3.851   2.255   3.584
 2994WAT     H2 9225   3.950   2.336   3.482
 2995WAT      O 9226   7.193   5.516   6.391
 2995WAT     H1 9227   7.153   5.607   6.380
 2995WAT     H2 9228   7.130   5.458   6.441
 2996WAT      O 9229   4.670   1.448   8.037
 2996WAT     H1 9230   4.660   1.456   8.136
 2996WAT     H2 9231   4.679   1.539   7.997
 2997WAT      O 9232   7.832   0.652   7.036
 2997WAT     H1 9233   7.741   0.623   7.064
 2997WAT     H2 9234   7.849   0.746   7.067
 2998WAT      O 9235   9.461   6.206   0.077
 2998WAT     H1 9236   9.515   6.163   0.150
 2998WAT     H2 9237   9.454   6.143  -0.001
 2999WAT      O 9238   7.355   3.126   3.303
 2999WAT     H1 9239   7.291   3.074   3.359
 2999WAT     H2 9240   7.367   3.079   3.215
 3000WAT      O 9241   1.121   8.019   6.837
 3000WAT     H1 9242   1.178   7.966   6.775
 3000WAT     H2 9243   1.039   8.050   6.790
 3001WAT      O 9244   7.027   0.512   3.003
 3001WAT     H1 9245   7.019   0.530   2.905
 3001WAT     H2 9246   6.947   0.550   3.050
 3002WAT      O 9247   0.998   0.227   7.291
 3002WAT     H1 9248   0.901   0.223   7.265
 3002WAT     H2 9249   1.045   0.293   7.232
 3003WAT      O 9250   8.257   9.270   2.629
 3003WAT     H1 9251   8.312   9.227   2.558
 3003WAT     H2 9252   8.257   9.213   2.711
 3004WAT      O 9253   3.308   0.559   3.154
 3004WAT     H1 9254   3.320   0.571   3.055
 3004WAT     H2 9255   3.291   0.649   3.196
 3005WAT      O 9256   1.030   8.502   5.322
 3005WAT     H1 9257   1.092   8.427   5.345
 3005WAT     H2 9258   0.983   8.533   5.405
 3006WAT      O 9259   8.932   3.077   3.963
 3006WAT     H1 9260   9.031   3.091   3.956
 3006WAT     H2 9261   8.888   3.117   3.883
 3007WAT      O 9262   2.038   5.213   3.518
 3007WAT     H1 9263   2.060   5.267   3.437
 3007WAT     H2 9264   2.116   5.215   3.581
 3008WAT      O 9265   5.923   8.457   5.354
 3008WAT     H1 9266   5.923   8.430   5.450
 3008WAT     H2 9267   5.966   8.385   5.300
 3009WAT      O 9268   8.658   9.258   7.265
 3009WAT     H1 9269   8.587   9.244   7.195
 3009WAT     H2 9270   8.736   9.304   7.224
 3010WAT      O 9271   3.897   8.571   3.500
 3010WAT     H1 9272   3.983   8.622   3.497
 3010WAT     H2 9273   3.915   8.476   3.526
 3011WAT      O 9274   3.734   8.525   8.222
 3011WAT     H1 9275   3.752   8.567   8.133
 3011WAT     H2 9276   3.736   8.595   8.293
 3012WAT      O 9277   2.237   3.228   9.286
 3012WAT     H1 9278   2.227   3.302   9.353
 3012WAT     H2 9279   2.168   3.239   9.214
 3013WAT      O 9280   2.618   1.436   4.933
 3013WAT     H1 9281   2.659   1.527   4.931
 3013WAT     H2 9282   2.647   1.388   5.017
 3014WAT      O 9283   7.381   2.539   7.943
 3014WAT     H1 9284   7.402   2.469   7.875
 3014WAT     H2 9285   7.313   2.504   8.007
 3015WAT      O 9286   8.274   9.141   9.446
 3015WAT     H1 9287   8.176   9.121   9.445
 3015WAT     H2 9288   8.300   9.185   9.360
 3016WAT      O 9289   0.347   4.450   6.811
 3016WAT     H1 9290   0.282   4.441   6.736
 3016WAT     H2 9291   0.440   4.437   6.776
 3017WAT      O 9292   8.358   8.819   6.453
 3017WAT     H1 9293   8.417   8.818   6.533
 3017WAT     H2 9294   8.268   8.781   6.477
 3018WAT      O 9295   8.802   9.568   5.962
 3018WAT     H1 9296   8.882   9.589   5.906
 3018WAT     H2 9297   8.722   9.613   5.924
 3019WAT      O 9298   5.575   4.145   8.361
 3019WAT     H1 9299   5.663   4.185   8.386
 3019WAT     H2 9300   5.584   4.097   8.273
 3020WAT      O 9301   2.977   2.578   3.522
 3020WAT     H1 9302   2.999   2.672   3.546
 3020WAT     H2 9303   2.892   2.575   3.469
 3021WAT      O 9304   2.710   4.991   4.886
 3021WAT     H1 9305   2.675   5.038   4.967
 3021WAT     H2 9306   2.645   5.001   4.811
 3022WAT      O 9307   3.160   6.244   1.346
 3022WAT     H1 9308   3.126   6.328   1.305
 3022WAT     H2 9309   3.213   6.193   1.278
 3023WAT      O 9310   9.796   4.654   4.379
 3023WAT     H1 9311   9.728   4.590   4.341
 3023WAT     H2 9312   9.888   4.620   4.361
 3024WAT      O 9313   1.675   5.191   6.982
 3024WAT     H1 9314   1.700   5.225   7.072
 3024WAT     H2 9315   1.751   5.208   6.918
 3025WAT      O 9316   5.444   0.171   2.881
 3025WAT     H1 9317   5.516   0.233   2.850
 3025WAT     H2 9318   5.483   0.100   2.939
 3026WAT      O 9319   4.160   9.356   3.628
 3026WAT     H1 9320   4.148   9.455   3.619
 3026WAT     H2 9321   4.132   9.327   3.720
 3027WAT      O 9322   5.562   3.489   7.402
 3027WAT     H1 9323   5.470   3.451   7.392
 3027WAT     H2 9324   5.618   3.428   7.458
 3028WAT      O 9325   8.581   8.969   1.658
 3028WAT     H1 9326   8.598   9.029   1.737
 3028WAT     H2 9327   8.496   8.997   1.613
 3029WAT      O 9328   2.543   8.163   2.378
 3029WAT     H1 9329   2.561   8.243   2.435
 3029WAT     H2 9330   2.539   8.191   2.282
 3030WAT      O 9331   8.866   1.581   3.979
 3030WAT     H1 9332   8.858   1.661   4.038
 3030WAT     H2 9333   8.946   1.592   3.919
 3031WAT      O 9334   9.596   2.578   6.360
 3031WAT     H1 9335   9.530   2.574   6.434
 3031WAT     H2 9336   9.670   2.512   6.377
 3032WAT      O 9337   0.929   7.577   5.036
 3032WAT     H1 9338   0.936   7.581   5.135
 3032WAT     H2 9339   0.878   7.495   5.009
 3033WAT      O 9340   9.018   1.591   8.832
 3033WAT     H1 9341   8.936   1.637   8.867
 3033WAT     H2 9342   9.003   1.563   8.738
 3034WAT      O 9343   9.059   7.559   7.912
 3034WAT     H1 9344   8.969   7.596   7.933
 3034WAT     H2 9345   9.128   7.631   7.918
 3035WAT      O 9346   6.086   4.610   9.297
 3035WAT     H1 9347   5.997   4.655   9.283
 3035WAT     H2 9348   6.141   4.620   9.214
 3036WAT      O 9349   7.299   9.759   7.734
 3036WAT     H1 9350   7.385   9.749   7.683
 3036WAT     H2 9351   7.258   9.669   7.747
 3037WAT      O 9352   9.842   4.411   3.135
 3037WAT     H1 9353   9.801   4.390   3.224
 3037WAT     H2 9354   9.840   4.330   3.077
 3038WAT      O 9355   3.159   0.041   9.572
 3038WAT     H1 9356   3.228   0.070   9.507
 3038WAT     H2 9357   3.087   0.111   9.578
 3039WAT      O 9358   9.231   9.534   8.447
 3039WAT     H1 9359   9.249   9.457   8.386
 3039WAT     H2 9360   9.165   9.596   8.404
 3040WAT      O 9361   0.624   4.413   5.561
 3040WAT     H1 9362   0.689   4.485   5.585
 3040WAT     H2 9363   0.534   4.452   5.544
 3041WAT      O 9364   7.738   0.719   4.128
 3041WAT     H1 9365   7.786   0.783   4.069
 3041WAT     H2 9366   7.642   0.715   4.102
 3042WAT      O 9367   0.454   8.602   3.618
 3042WAT     H1 9368   0.402   8.583   3.535
 3042WAT     H2 9369   0.424   8.539   3.691
 3043WAT      O 9370   3.489   5.128   4.210
 3043WAT     H1 9371   3.585   5.140   4.186
 3043WAT     H2 9372   3.457   5.207   4.263
 3044WAT      O 9373   5.013   1.957   1.148
 3044WAT     H1 9374   4.959   1.941   1.065
 3044WAT     H2 9375   5.090   2.017   1.128
 3045WAT      O 9376   2.671   8.140   6.626
 3045WAT     H1 9377   2.720   8.053   6.639
 3045WAT     H2 9378   2.655   8.154   6.529
 3046WAT      O 9379   6.699   2.676   1.827
 3046WAT     H1 9380   6.646   2.748   1.782
 3046WAT     H2 9381   6.646   2.638   1.902
 3047WAT      O 9382   6.091   8.463   5.022
 3047WAT     H1 9383   6.126   8.551   4.990
 3047WAT     H2 9384   5.994   8.473   5.044
 3048WAT      O 9385   0.155   8.511   8.375
 3048WAT     H1 9386   0.124   8.600   8.344
 3048WAT     H2 9387   0.076   8.452   8.391
 3049WAT      O 9388   6.446   5.087   4.471
 3049WAT     H1 9389   6.388   5.087   4.389
 3049WAT     H2 9390   6.429   5.003   4.524
 3050WAT      O 9391   9.631   8.041   0.225
 3050WAT     H1 9392   9.605   7.983   0.147
 3050WAT     H2 9393   9.729   8.035   0.240
 3051WAT      O 9394   3.712   1.770   1.798
 3051WAT     H1 9395   3.617   1.750   1.775
 3051WAT     H2 9396   3.722   1.772   1.898
 3052WAT      O 9397   2.573   1.797   4.306
 3052WAT     H1 9398   2.634   1.776   4.229
 3052WAT     H2 9399   2.483   1.822   4.271
 3053WAT      O 9400   9.479   8.338   4.442
 3053WAT     H1 9401   9.439   8.319   4.532
 3053WAT     H2 9402   9.464   8.260   4.382
 3054WAT      O 9403   0.299   9.619   9.094
 3054WAT     H1 9404   0.209   9.657   9.072
 3054WAT     H2 9405   0.328   9.557   9.022
 3055WAT      O 9406   7.779   9.604   7.149
 3055WAT     H1 9407   7.796   9.532   7.217
 3055WAT     H2 9408   7.684   9.599   7.118
 3056WAT      O 9409   9.447   8.233   6.273
 3056WAT     H1 9410   9.390   8.185   6.338
 3056WAT     H2 9411   9.455   8.180   6.189
 3057WAT      O 9412   6.920   6.086   4.084
 3057WAT     H1 9413   6.994   6.153   4.089
 3057WAT     H2 9414   6.958   5.995   4.070
 3058WAT      O 9415   3.450   5.386   7.489
 3058WAT     H1 9416   3.499   5.299   7.483
 3058WAT     H2 9417   3.444   5.415   7.584
 3059WAT      O 9418   0.823   7.644   2.812
 3059WAT     H1 9419   0.841   7.549   2.786
 3059WAT     H2 9420   0.758   7.647   2.888
 3060WAT      O 9421   7.261   3.569   5.120
 3060WAT     H1 9422   7.189   3.619   5.168
 3060WAT     H2 9423   7.222   3.521   5.042
 3061WAT      O 9424   2.438   1.732   1.762
 3061WAT     H1 9425   2.503   1.792   1.717
 3061WAT     H2 9426   2.475   1.701   1.849
 3062WAT      O 9427   3.720   9.568   0.747
 3062WAT     H1 9428   3.665   9.647   0.718
 3062WAT     H2 9429   3.674   9.484   0.718
 3063WAT      O 9430   9.104   8.762   2.849
 3063WAT     H1 9431   9.012   8.800   2.842
 3063WAT     H2 9432   9.099   8.663   2.861
 3064WAT      O 9433   4.545   0.238   2.519
 3064WAT     H1 9434   4.617   0.172   2.543
 3064WAT     H2 9435   4.456   0.192   2.523
 3065WAT      O 9436   0.191   2.869   2.331
 3065WAT     H1 9437   0.185   2.790   2.271
 3065WAT     H2 9438   0.267   2.856   2.396
 3066WAT      O 9439   7.278   6.177   3.003
 3066WAT     H1 9440   7.250   6.136   2.916
 3066WAT     H2 9441   7.197   6.204   3.055
 3067WAT      O 9442   8.262   1.876   6.237
 3067WAT     H1 9443   8.268   1.879   6.336
 3067WAT     H2 9444   8.329   1.809   6.202
 3068WAT      O 9445   9.177   0.842   9.202
 3068WAT     H1 9446   9.115   0.821   9.278
 3068WAT     H2 9447   9.202   0.939   9.206
 3069WAT      O 9448   0.213   2.365   2.227
 3069WAT     H1 9449   0.227   2.357   2.326
 3069WAT     H2 9450   0.195   2.275   2.188
 3070WAT      O 9451   7.469   4.315   4.975
 3070WAT     H1 9452   7.420   4.261   5.043
 3070WAT     H2 9453   7.548   4.359   5.018
 3071WAT      O 9454   6.592   5.248   5.831
 3071WAT     H1 9455   6.614   5.264   5.734
 3071WAT     H2 9456   6.530   5.170   5.838
 3072WAT      O 9457   1.950   3.709   0.555
 3072WAT     H1 9458   1.932   3.736   0.461
 3072WAT     H2 9459   2.049   3.703   0.570
 3073WAT      O 9460   0.838   5.954   0.210
 3073WAT     H1 9461   0.841   6.026   0.141
 3073WAT     H2 9462   0.761   5.893   0.192
 3074WAT      O 9463   8.643   0.410   3.608
 3074WAT     H1 9464   8.613   0.335   3.548
 3074WAT     H2 9465   8.692   0.478   3.553
 3075WAT      O 9466   8.601   4.572   1.938
 3075WAT     H1 9467   8.589   4.639   2.012
 3075WAT     H2 9468   8.532   4.501   1.947
 3076WAT      O 9469   2.273   4.781   5.177
 3076WAT     H1 9470   2.320   4.754   5.261
 3076WAT     H2 9471   2.305   4.871   5.149
 3077WAT      O 9472   3.176   6.240   6.454
 3077WAT     H1 9473   3.215   6.150   6.475
 3077WAT     H2 9474   3.185   6.259   6.357
 3078WAT      O 9475   1.876   3.933   7.150
 3078WAT     H1 9476   1.863   3.931   7.249
 3078WAT     H2 9477   1.819   3.864   7.106
 3079WAT      O 9478   1.639   4.922   6.936
 3079WAT     H1 9479   1.734   4.905   6.962
 3079WAT     H2 9480   1.627   5.019   6.917
 3080WAT      O 9481   1.499   6.611   0.463
 3080WAT     H1 9482   1.485   6.675   0.539
 3080WAT     H2 9483   1.517   6.520   0.499
 3081WAT      O 9484   2.185   6.390   4.111
 3081WAT     H1 9485   2.155   6.455   4.042
 3081WAT     H2 9486   2.211   6.439   4.194
 3082WAT      O 9487   8.017   5.096   2.128
 3082WAT     H1 9488   7.967   5.128   2.209
 3082WAT     H2 9489   8.040   5.174   2.070
 3083WAT      O 9490   0.497   3.398   3.530
 3083WAT     H1 9491   0.480   3.308   3.570
 3083WAT     H2 9492   0.592   3.425   3.548
 3084WAT      O 9493   8.077   2.215   5.893
 3084WAT     H1 9494   8.007   2.284   5.876
 3084WAT     H2 9495   8.168   2.255   5.879
 3085WAT      O 9496   1.047   4.354   5.292
 3085WAT     H1 9497   1.073   4.327   5.384
 3085WAT     H2 9498   0.975   4.424   5.298
 3086WAT      O 9499   4.100   0.639   6.761
 3086WAT     H1 9500   4.062   0.689   6.683
 3086WAT     H2 9501   4.044   0.657   6.842
 3087WAT      O 9502   1.814   1.697   2.780
 3087WAT     H1 9503   1.827   1.792   2.808
 3087WAT     H2 9504   1.727   1.688   2.732
 3088WAT      O 9505   7.682   3.022   5.812
 3088WAT     H1 9506   7.701   3.120   5.816
 3088WAT     H2 9507   7.731   2.975   5.885
 3089WAT      O 9508   5.420   4.745   9.141
 3089WAT     H1 9509   5.446   4.659   9.096
 3089WAT     H2 9510   5.460   4.748   9.232
 3090WAT      O 9511   8.999   7.680   1.873
 3090WAT     H1 9512   9.012   7.593   1.920
 3090WAT     H2 9513   9.041   7.675   1.782
 3091WAT      O 9514   8.164   7.607   8.148
 3091WAT     H1 9515   8.090   7.649   8.096
 3091WAT     H2 9516   8.136   7.597   8.243
 3092WAT      O 9517   2.897   2.752   8.735
 3092WAT     H1 9518   2.896   2.656   8.764
 3092WAT     H2 9519   2.983   2.794   8.764
 3093WAT      O 9520   5.208   7.030   4.172
 3093WAT     H1 9521   5.244   6.941   4.199
 3093WAT     H2 9522   5.249   7.101   4.230
 3094WAT      O 9523   9.827   2.490   1.389
 3094WAT     H1 9524   9.904   2.528   1.338
 3094WAT     H2 9525   9.851   2.484   1.486
 3095WAT      O 9526   1.594   8.143   2.442
 3095WAT     H1 9527   1.680   8.140   2.493
 3095WAT     H2 9528   1.523   8.184   2.499
 3096WAT      O 9529   9.117   2.679   6.041
 3096WAT     H1 9530   9.125   2.594   6.093
 3096WAT     H2 9531   9.064   2.661   5.958
 3097WAT      O 9532   1.249   1.925   7.134
 3097WAT     H1 9533   1.330   1.873   7.162
 3097WAT     H2 9534   1.269   1.975   7.049
 3098WAT      O 9535   5.038   4.548   6.028
 3098WAT     H1 9536   5.049   4.563   5.930
 3098WAT     H2 9537   5.118   4.583   6.076
 3099WAT      O 9538   3.461   6.850   3.959
 3099WAT     H1 9539   3.452   6.824   4.055
 3099WAT     H2 9540   3.502   6.775   3.907
 3100WAT      O 9541   1.787   1.167   8.552
 3100WAT     H1 9542   1.710   1.103   8.556
 3100WAT     H2 9543   1.811   1.196   8.645
 3101WAT      O 9544   6.639   0.361   4.300
 3101WAT     H1 9545   6.699   0.288   4.333
 3101WAT     H2 9546   6.693   0.429   4.250
 3102WAT      O 9547   3.431   5.485   5.886
 3102WAT     H1 9548   3.478   5.555   5.941
 3102WAT     H2 9549   3.421   5.402   5.940
 3103WAT      O 9550   6.817   4.617   7.853
 3103WAT     H1 9551   6.752   4.684   7.816
 3103WAT     H2 9552   6.905   4.627   7.807
 3104WAT      O 9553   7.498   7.441   8.206
 3104WAT     H1 9554   7.544   7.466   8.120
 3104WAT     H2 9555   7.521   7.347   8.229
 3105WAT      O 9556   2.191   1.756   1.651
 3105WAT     H1 9557   2.200   1.722   1.557
 3105WAT     H2 9558   2.273   1.734   1.703
 3106WAT      O 9559   8.724   4.035   9.628
 3106WAT     H1 9560   8.815   4.028   9.668
 3106WAT     H2 9561   8.677   4.114   9.667
 3107WAT      O 9562   2.533   1.116   4.269
 3107WAT     H1 9563   2.509   1.075   4.181
 3107WAT     H2 9564   2.583   1.049   4.324
 3108WAT      O 9565   1.350   6.017   1.032
 3108WAT     H1 9566   1.261   6.052   1.061
 3108WAT     H2 9567   1.370   6.050   0.939
 3109WAT      O 9568   3.347   5.033   5.177
 3109WAT     H1 9569   3.353   5.048   5.276
 3109WAT     H2 9570   3.432   4.990   5.145
 3110WAT      O 9571   1.798   1.234   7.423
 3110WAT     H1 9572   1.790   1.304   7.495
 3110WAT     H2 9573   1.876   1.256   7.364
 3111WAT      O 9574   8.769   4.656   3.041
 3111WAT     H1 9575   8.822   4.620   3.117
 3111WAT     H2 9576   8.698   4.718   3.076
 3112WAT      O 9577   3.858   6.816   5.491
 3112WAT     H1 9578   3.935   6.775   5.540
 3112WAT     H2 9579   3.887   6.902   5.449
 3113WAT      O 9580   9.076   2.790   3.959
 3113WAT     H1 9581   9.176   2.795   3.961
 3113WAT     H2 9582   9.039   2.820   4.047
 3114WAT      O 9583   0.927   1.651   2.489
 3114WAT     H1 9584   0.971   1.741   2.495
 3114WAT     H2 9585   0.960   1.594   2.563
 3115WAT      O 9586   0.101   5.587   6.510
 3115WAT     H1 9587   0.095   5.622   6.416
 3115WAT     H2 9588   0.070   5.657   6.574
 3116WAT      O 9589   7.745   1.643   8.897
 3116WAT     H1 9590   7.749   1.594   8.810
 3116WAT     H2 9591   7.825   1.618   8.953
 3117WAT      O 9592   5.196   1.791   8.585
 3117WAT     H1 9593   5.218   1.699   8.617
 3117WAT     H2 9594   5.278   1.833   8.546
 3118WAT      O 9595   6.222   9.555   2.251
 3118WAT     H1 9596   6.199   9.650   2.233
 3118WAT     H2 9597   6.189   9.529   2.342
 3119WAT      O 9598   6.584   5.331   8.463
 3119WAT     H1 9599   6.576   5.300   8.369
 3119WAT     H2 9600   6.500   5.312   8.513
 3120WAT      O 9601   8.939   6.451   9.475
 3120WAT     H1 9602   8.996   6.394   9.536
 3120WAT     H2 9603   8.955   6.424   9.380
 3121WAT      O 9604   1.716   3.524   8.192
 3121WAT     H1 9605   1.617   3.513   8.184
 3121WAT     H2 9606   1.742   3.615   8.157
 3122WAT      O 9607   9.235   4.925   7.558
 3122WAT     H1 9608   9.190   4.855   7.614
 3122WAT     H2 9609   9.194   5.014   7.577
 3123WAT      O 9610   2.397   2.978   3.958
 3123WAT     H1 9611   2.460   2.905   3.984
 3123WAT     H2 9612   2.356   2.957   3.870
 3124WAT      O 9613   3.414   1.153   7.285
 3124WAT     H1 9614   3.512   1.154   7.264
 3124WAT     H2 9615   3.362   1.159   7.200
 3125WAT      O 9616   4.871   9.107   2.987
 3125WAT     H1 9617   4.931   9.028   2.998
 3125WAT     H2 9618   4.839   9.137   3.077
 3126WAT      O 9619   8.557   6.671   0.306
 3126WAT     H1 9620   8.529   6.754   0.259
 3126WAT     H2 9621   8.616   6.617   0.245
 3127WAT      O 9622   1.507   6.876   1.963
 3127WAT     H1 9623   1.589   6.896   1.908
 3127WAT     H2 9624   1.450   6.957   1.969
 3128WAT      O 9625   3.283   5.005   4.629
 3128WAT     H1 9626   3.281   5.048   4.720
 3128WAT     H2 9627   3.370   5.025   4.585
 3129WAT      O 9628   6.967   7.255   9.612
 3129WAT     H1 9629   7.024   7.322   9.565
 3129WAT     H2 9630   6.874   7.291   9.620
 3130WAT      O 9631   4.232   2.956   4.488
 3130WAT     H1 9632   4.240   2.967   4.389
 3130WAT     H2 9633   4.135   2.961   4.514
 3131WAT      O 9634   1.580   3.567   0.756
 3131WAT     H1 9635   1.585   3.570   0.855
 3131WAT     H2 9636   1.656   3.514   0.719
 3132WAT      O 9637   3.021   8.687   3.773
 3132WAT     H1 9638   2.935   8.687   3.722
 3132WAT     H2 9639   3.020   8.761   3.840
 3133WAT      O 9640   7.967   2.564   6.832
 3133WAT     H1 9641   7.943   2.577   6.928
 3133WAT     H2 9642   7.918   2.630   6.776
 3134WAT      O 9643   4.101   7.441   7.392
 3134WAT     H1 9644   4.190   7.440   7.346
 3134WAT     H2 9645   4.103   7.379   7.470
 3135WAT      O 9646   7.372   3.148   8.423
 3135WAT     H1 9647   7.300   3.093   8.381
 3135WAT     H2 9648   7.353   3.159   8.520
 3136WAT      O 9649   2.108   2.503   7.767
 3136WAT     H1 9650   2.096   2.538   7.674
 3136WAT     H2 9651   2.139   2.576   7.827
 3137WAT      O 9652   8.846   3.988   5.856
 3137WAT     H1 9653   8.759   4.036   5.840
 3137WAT     H2 9654   8.922   4.050   5.837
 3138WAT      O 9655   5.222   8.085   5.888
 3138WAT     H1 9656   5.294   8.144   5.926
 3138WAT     H2 9657   5.152   8.069   5.957
 3139WAT      O 9658   7.031   4.135   7.535
 3139WAT     H1 9659   6.934   4.110   7.539
 3139WAT     H2 9660   7.063   4.128   7.440
 3140WAT      O 9661   1.034   3.112   0.019
 3140WAT     H1 9662   1.032   3.087  -0.078
 3140WAT     H2 9663   1.051   3.030   0.074
 3141WAT      O 9664   9.455   0.733   2.096
 3141WAT     H1 9665   9.428   0.704   2.188
 3141WAT     H2 9666   9.373   0.752   2.041
 3142WAT      O 9667   0.222   3.557   2.891
 3142WAT     H1 9668   0.195   3.585   2.983
 3142WAT     H2 9669   0.143   3.517   2.844
 3143WAT      O 9670   0.228   4.678   4.995
 3143WAT     H1 9671   0.175   4.762   5.007
 3143WAT     H2 9672   0.318   4.701   4.957
 3144WAT      O 9673   0.747   8.343   5.620
 3144WAT     H1 9674   0.751   8.253   5.664
 3144WAT     H2 9675   0.653   8.363   5.594
 3145WAT      O 9676   2.806   0.970   9.082
 3145WAT     H1 9677   2.893   0.951   9.129
 3145WAT     H2 9678   2.787   0.896   9.017
 3146WAT      O 9679   6.960   4.369   3.203
 3146WAT     H1 9680   7.033   4.407   3.260
 3146WAT     H2 9681   6.998   4.339   3.116
 3147WAT      O 9682   0.788   8.391   6.310
 3147WAT     H1 9683   0.805   8.338   6.226
 3147WAT     H2 9684   0.872   8.399   6.362
 3148WAT      O 9685   0.774   3.690   0.272
 3148WAT     H1 9686   0.751   3.735   0.359
 3148WAT     H2 9687   0.865   3.718   0.243
 3149WAT      O 9688   8.266   5.556   8.076
 3149WAT     H1 9689   8.354   5.509   8.089
 3149WAT     H2 9690   8.196   5.510   8.130
 3150WAT      O 9691   3.642   0.509   0.852
 3150WAT     H1 9692   3.650   0.493   0.950
 3150WAT     H2 9693   3.610   0.426   0.807
 3151WAT      O 9694   0.780   0.238   0.580
 3151WAT     H1 9695   0.738   0.286   0.503
 3151WAT     H2 9696   0.766   0.290   0.664
 3152WAT      O 9697   6.897   2.539   3.944
 3152WAT     H1 9698   6.979   2.577   3.988
 3152WAT     H2 9699   6.835   2.613   3.920
 3153WAT      O 9700   2.215   9.774   9.638
 3153WAT     H1 9701   2.284   9.739   9.701
 3153WAT     H2 9702   2.255   9.847   9.582
 3154WAT      O 9703   9.153   5.671   0.556
 3154WAT     H1 9704   9.142   5.727   0.638
 3154WAT     H2 9705   9.095   5.707   0.483
 3155WAT      O 9706   6.035   1.306   8.904
 3155WAT     H1 9707   5.941   1.317   8.937
 3155WAT     H2 9708   6.053   1.210   8.885
 3156WAT      O 9709   1.204   4.167   1.115
 3156WAT     H1 9710   1.272   4.217   1.169
 3156WAT     H2 9711   1.112   4.198   1.139
 3157WAT      O 9712   6.422   5.811   7.172
 3157WAT     H1 9713   6.356   5.837   7.243
 3157WAT     H2 9714   6.428   5.884   7.104
 3158WAT      O 9715   8.658   4.901   9.093
 3158WAT     H1 9716   8.670   5.000   9.083
 3158WAT     H2 9717   8.576   4.883   9.147
 3159WAT      O 9718   6.550   1.710   3.271
 3159WAT     H1 9719   6.555   1.620   3.315
 3159WAT     H2 9720   6.639   1.754   3.275
 3160WAT      O 9721   1.656   1.881   3.732
 3160WAT     H1 9722   1.625   1.809   3.794
 3160WAT     H2 9723   1.632   1.970   3.769
 3161WAT      O 9724   4.789   9.841   3.697
 3161WAT     H1 9725   4.819   9.751   3.666
 3161WAT     H2 9726   4.699   9.862   3.658
 3162WAT      O 9727   1.277   1.281   9.385
 3162WAT     H1 9728   1.318   1.241   9.304
 3162WAT     H2 9729   1.212   1.216   9.425
 3163WAT      O 9730   7.518   2.873   3.697
 3163WAT     H1 9731   7.539   2.937   3.623
 3163WAT     H2 9732   7.587   2.801   3.698
 3164WAT      O 9733   9.391   8.347   2.958
 3164WAT     H1 9734   9.372   8.249   2.965
 3164WAT     H2 9735   9.460   8.373   3.025
 3165WAT      O 9736   5.188   1.417   5.329
 3165WAT     H1 9737   5.125   1.494   5.339
 3165WAT     H2 9738   5.141   1.340   5.287
 3166WAT      O 9739   0.497   3.325   2.066
 3166WAT     H1 9740   0.467   3.229   2.067
 3166WAT     H2 9741   0.434   3.378   2.009
 3167WAT      O 9742   0.866   2.051   8.684
 3167WAT     H1 9743   0.888   2.075   8.590
 3167WAT     H2 9744   0.936   2.087   8.745
 3168WAT      O 9745   8.812   4.306   3.342
 3168WAT     H1 9746   8.712   4.309   3.353
 3168WAT     H2 9747   8.845   4.396   3.314
 3169WAT      O 9748   3.619   5.246   0.066
 3169WAT     H1 9749   3.619   5.271  -0.031
 3169WAT     H2 9750   3.569   5.315   0.119
 3170WAT      O 9751   4.467   8.752   6.586
 3170WAT     H1 9752   4.392   8.693   6.616
 3170WAT     H2 9753   4.534   8.760   6.660
 3171WAT      O 9754   4.544   7.422   4.573
 3171WAT     H1 9755   4.517   7.518   4.565
 3171WAT     H2 9756   4.618   7.414   4.640
 3172WAT      O 9757   9.811   6.915   9.732
 3172WAT     H1 9758   9.712   6.916   9.717
 3172WAT     H2 9759   9.840   6.820   9.747
 3173WAT      O 9760   8.123   0.650   5.325
 3173WAT     H1 9761   8.137   0.677   5.421
 3173WAT     H2 9762   8.203   0.600   5.292
 3174WAT      O 9763   1.528   1.416   2.831
 3174WAT     H1 9764   1.579   1.426   2.745
 3174WAT     H2 9765   1.569   1.476   2.900
 3175WAT      O 9766   8.164   2.786   5.315
 3175WAT     H1 9767   8.262   2.806   5.310
 3175WAT     H2 9768   8.128   2.818   5.402
 3176WAT      O 9769   6.315   4.043   8.459
 3176WAT     H1 9770   6.243   3.980   8.432
 3176WAT     H2 9771   6.279   4.109   8.526
 3177WAT      O 9772   0.343   5.199   4.387
 3177WAT     H1 9773   0.432   5.242   4.399
 3177WAT     H2 9774   0.351   5.101   4.400
 3178WAT      O 9775   0.416   1.988   6.583
 3178WAT     H1 9776   0.496   1.935   6.611
 3178WAT     H2 9777   0.343   1.976   6.650
 3179WAT      O 9778   2.941   2.509   1.838
 3179WAT     H1 9779   2.844   2.485   1.838
 3179WAT     H2 9780   2.966   2.552   1.751
 3180WAT      O 9781   0.938   1.711   0.358
 3180WAT     H1 9782   0.898   1.696   0.448
 3180WAT     H2 9783   0.867   1.737   0.293
 3181WAT      O 9784   4.815   6.096   7.840
 3181WAT     H1 9785   4.805   6.190   7.807
 3181WAT     H2 9786   4.897   6.089   7.897
 3182WAT      O 9787   0.747   8.367   9.324
 3182WAT     H1 9788   0.792   8.447   9.363
 3182WAT     H2 9789   0.810   8.320   9.262
 3183WAT      O 9790   6.099   3.143   7.236
 3183WAT     H1 9791   6.166   3.205   7.194
 3183WAT     H2 9792   6.020   3.196   7.269
 3184WAT      O 9793   4.051   0.610   9.009
 3184WAT     H1 9794   4.083   0.517   8.993
 3184WAT     H2 9795   4.035   0.622   9.107
 3185WAT      O 9796   1.181   4.254   5.494
 3185WAT     H1 9797   1.259   4.242   5.433
 3185WAT     H2 9798   1.211   4.244   5.589
 3186WAT      O 9799   5.585   4.886   4.957
 3186WAT     H1 9800   5.531   4.942   5.020
 3186WAT     H2 9801   5.682   4.895   4.979
 3187WAT      O 9802   5.536   7.371   8.666
 3187WAT     H1 9803   5.453   7.425   8.674
 3187WAT     H2 9804   5.612   7.429   8.636
 3188WAT      O 9805   0.553   2.109   1.383
 3188WAT     H1 9806   0.539   2.205   1.359
 3188WAT     H2 9807   0.625   2.102   1.452
 3189WAT      O 9808   9.180   9.039   6.487
 3189WAT     H1 9809   9.140   8.950   6.464
 3189WAT     H2 9810   9.171   9.100   6.409
 3190WAT      O 9811   5.546   7.795   3.067
 3190WAT     H1 9812   5.497   7.717   3.027
 3190WAT     H2 9813   5.533   7.875   3.008
 3191WAT      O 9814   4.808   1.863   5.106
 3191WAT     H1 9815   4.749   1.905   5.037
 3191WAT     H2 9816   4.752   1.805   5.166
 3192WAT      O 9817   1.020   8.785   1.911
 3192WAT     H1 9818   1.117   8.790   1.933
 3192WAT     H2 9819   0.978   8.875   1.926
 3193WAT      O 9820   7.013   3.133   5.667
 3193WAT     H1 9821   7.046   3.191   5.741
 3193WAT     H2 9822   7.017   3.184   5.581
 3194WAT      O 9823   2.172   0.303   5.154
 3194WAT     H1 9824   2.204   0.212   5.130
 3194WAT     H2 9825   2.081   0.318   5.114
 3195WAT      O 9826   0.864   9.443   7.608
 3195WAT     H1 9827   0.790   9.388   7.570
 3195WAT     H2 9828   0.825   9.516   7.665
 3196WAT      O 9829   2.534   5.400   7.396
 3196WAT     H1 9830   2.508   5.496   7.396
 3196WAT     H2 9831   2.627   5.390   7.431
 3197WAT      O 9832   1.559   9.226   4.198
 3197WAT     H1 9833   1.599   9.294   4.137
 3197WAT     H2 9834   1.570   9.135   4.158
 3198WAT      O 9835   5.904   6.499   4.299
 3198WAT     H1 9836   5.912   6.495   4.200
 3198WAT     H2 9837   5.856   6.583   4.325
 3199WAT      O 9838   8.844   9.827   3.107
 3199WAT     H1 9839   8.861   9.756   3.177
 3199WAT     H2 9840   8.747   9.851   3.108
 3200WAT      O 9841   6.404   7.676   0.136
 3200WAT     H1 9842   6.306   7.663   0.124
 3200WAT     H2 9843   6.434   7.757   0.084
 3201WAT      O 9844   7.599   4.042   2.174
 3201WAT     H1 9845   7.696   4.064   2.167
 3201WAT     H2 9846   7.565   4.070   2.264
 3202WAT      O 9847   4.997   8.434   3.953
 3202WAT     H1 9848   4.924   8.379   3.911
 3202WAT     H2 9849   4.970   8.459   4.046
 3203WAT      O 9850   1.043   4.051   4.854
 3203WAT     H1 9851   0.963   4.056   4.914
 3203WAT     H2 9852   1.022   4.092   4.765
 3204WAT      O 9853   8.238   7.873   1.804
 3204WAT     H1 9854   8.327   7.895   1.765
 3204WAT     H2 9855   8.233   7.775   1.825
 3205WAT      O 9856   6.349   4.520   2.705
 3205WAT     H1 9857   6.342   4.499   2.802
 3205WAT     H2 9858   6.445   4.526   2.679
 3206WAT      O 9859   3.950   8.246   3.176
 3206WAT     H1 9860   3.891   8.308   3.228
 3206WAT     H2 9861   4.021   8.209   3.235
 3207WAT      O 9862   0.862   6.130   2.051
 3207WAT     H1 9863   0.925   6.111   1.976
 3207WAT     H2 9864   0.785   6.066   2.047
 3208WAT      O 9865   0.982   2.017   5.796
 3208WAT     H1 9866   1.065   2.058   5.835
 3208WAT     H2 9867   0.953   2.069   5.717
 3209WAT      O 9868   9.053   9.510   4.309
 3209WAT     H1 9869   9.128   9.459   4.267
 3209WAT     H2 9870   9.090   9.577   4.373
 3210WAT      O 9871   0.927   8.363   1.759
 3210WAT     H1 9872   0.956   8.361   1.855
 3210WAT     H2 9873   0.995   8.315   1.703
 3211WAT      O 9874   7.730   3.307   9.200
 3211WAT     H1 9875   7.695   3.224   9.156
 3211WAT     H2 9876   7.815   3.334   9.157
 3212WAT      O 9877   6.519   4.850   8.219
 3212WAT     H1 9878   6.618   4.836   8.211
 3212WAT     H2 9879   6.472   4.762   8.215
 3213WAT      O 9880   6.631   2.229   5.387
 3213WAT     H1 9881   6.589   2.148   5.429
 3213WAT     H2 9882   6.668   2.288   5.458
 3214WAT      O 9883   2.884   1.805   6.562
 3214WAT     H1 9884   2.900   1.715   6.602
 3214WAT     H2 9885   2.921   1.876   6.622
 3215WAT      O 9886   0.817   8.201   6.986
 3215WAT     H1 9887   0.836   8.103   6.989
 3215WAT     H2 9888   0.828   8.233   6.892
 3216WAT      O 9889   3.758   8.249   6.040
 3216WAT     H1 9890   3.756   8.152   6.018
 3216WAT     H2 9891   3.714   8.301   5.967
 3217WAT      O 9892   4.691   7.621   0.927
 3217WAT     H1 9893   4.752   7.689   0.968
 3217WAT     H2 9894   4.640   7.663   0.853
 3218WAT      O 9895   4.022   6.352   1.497
 3218WAT     H1 9896   3.953   6.391   1.559
 3218WAT     H2 9897   4.070   6.278   1.543
 3219WAT      O 9898   1.959   9.269   7.714
 3219WAT     H1 9899   1.905   9.270   7.799
 3219WAT     H2 9900   2.024   9.345   7.715
 3220WAT      O 9901   5.571   8.812   5.907
 3220WAT     H1 9902   5.579   8.713   5.895
 3220WAT     H2 9903   5.636   8.858   5.847
 3221WAT      O 9904   4.385   7.687   1.086
 3221WAT     H1 9905   4.435   7.606   1.116
 3221WAT     H2 9906   4.386   7.755   1.159
 3222WAT      O 9907   8.420   3.165   8.561
 3222WAT     H1 9908   8.354   3.218   8.509
 3222WAT     H2 9909   8.378   3.132   8.646
 3223WAT      O 9910   7.464   6.395   8.307
 3223WAT     H1 9911   7.449   6.400   8.209
 3223WAT     H2 9912   7.557   6.365   8.325
 3224WAT      O 9913   4.111   0.952   4.759
 3224WAT     H1 9914   4.113   0.852   4.750
 3224WAT     H2 9915   4.161   0.993   4.683
 3225WAT      O 9916   7.788   4.642   2.593
 3225WAT     H1 9917   7.700   4.599   2.611
 3225WAT     H2 9918   7.831   4.668   2.679
 3226WAT      O 9919   5.931   2.848   8.513
 3226WAT     H1 9920   5.874   2.902   8.575
 3226WAT     H2 9921   5.995   2.907   8.465
 3227WAT      O 9922   1.461   7.270   2.624
 3227WAT     H1 9923   1.535   7.207   2.600
 3227WAT     H2 9924   1.431   7.253   2.717
 3228WAT      O 9925   4.764   5.453   9.808
 3228WAT     H1 9926   4.684   5.393   9.817
 3228WAT     H2 9927   4.808   5.462   9.897
 3229WAT      O 9928   3.019   4.809   8.670
 3229WAT     H1 9929   2.972   4.723   8.649
 3229WAT     H2 9930   3.103   4.815   8.617
 3230WAT      O 9931   0.590   3.518   6.987
 3230WAT     H1 9932   0.559   3.536   7.081
 3230WAT     H2 9933   0.604   3.605   6.939
 3231WAT      O 9934   7.113   5.823   0.641
 3231WAT     H1 9935   7.037   5.809   0.579
 3231WAT     H2 9936   7.144   5.918   0.636
 3232WAT      O 9937   0.136   4.408   1.864
 3232WAT     H1 9938   0.219   4.442   1.820
 3232WAT     H2 9939   0.069   4.482   1.872
 3233WAT      O 9940   1.294   3.007   0.884
 3233WAT     H1 9941   1.370   3.072   0.884
 3233WAT     H2 9942   1.276   2.976   0.977
 3234WAT      O 9943   4.400   1.048   4.263
 3234WAT     H1 9944   4.433   1.035   4.169
 3234WAT     H2 9945   4.380   1.145   4.278
 3235WAT      O 9946   9.399   3.958   7.997
 3235WAT     H1 9947   9.360   4.048   7.978
 3235WAT     H2 9948   9.453   3.929   7.918
 3236WAT      O 9949   3.135   4.784   5.525
 3236WAT     H1 9950   3.104   4.878   5.532
 3236WAT     H2 9951   3.063   4.722   5.558
 3237WAT      O 9952   9.725   8.675   7.395
 3237WAT     H1 9953   9.714   8.588   7.347
 3237WAT     H2 9954   9.666   8.744   7.352
 3238WAT      O 9955   4.883   7.709   6.049
 3238WAT     H1 9956   4.937   7.642   6.101
 3238WAT     H2 9957   4.809   7.743   6.107
 3239WAT      O 9958   4.360   1.507   2.475
 3239WAT     H1 9959   4.338   1.433   2.412
 3239WAT     H2 9960   4.408   1.471   2.555
 3240WAT      O 9961   2.449   5.069   8.415
 3240WAT     H1 9962   2.402   5.000   8.361
 3240WAT     H2 9963   2.417   5.066   8.509
 3241WAT      O 9964   0.039   0.375   9.586
 3241WAT     H1 9965  -0.003   0.395   9.674
 3241WAT     H2 9966   0.138   0.385   9.593
 3242WAT      O 9967   5.139   5.794   0.321
 3242WAT     H1 9968   5.119   5.750   0.234
 3242WAT     H2 9969   5.199   5.872   0.307
 3243WAT      O 9970   6.111   8.899   5.500
 3243WAT     H1 9971   6.048   8.973   5.476
 3243WAT     H2 9972   6.111   8.885   5.599
 3244WAT      O 9973   3.337   7.092   3.645
 3244WAT     H1 9974   3.352   7.073   3.548
 3244WAT     H2 9975   3.282   7.018   3.685
 3245WAT      O 9976   1.719   0.169   3.766
 3245WAT     H1 9977   1.657   0.235   3.722
 3245WAT     H2 9978   1.809   0.212   3.778
 3246WAT      O 9979   3.404   2.996   9.233
 3246WAT     H1 9980   3.443   2.914   9.191
 3246WAT     H2 9981   3.308   2.979   9.255
 3247WAT      O 9982   3.692   7.501   5.142
 3247WAT     H1 9983   3.654   7.430   5.203
 3247WAT     H2 9984   3.791   7.493   5.139
 3248WAT      O 9985   9.567   7.019   8.763
 3248WAT     H1 9986   9.502   6.963   8.711
 3248WAT     H2 9987   9.628   7.066   8.700
 3249WAT      O 9988   9.037   8.434   6.265
 3249WAT     H1 9989   9.109   8.380   6.221
 3249WAT     H2 9990   8.991   8.491   6.196
 3250WAT      O 9991   9.041   9.505   5.384
 3250WAT     H1 9992   9.117   9.450   5.418
 3250WAT     H2 9993   8.989   9.542   5.461
 3251WAT      O 9994   1.667   0.573   2.577
 3251WAT     H1 9995   1.747   0.534   2.622
 3251WAT     H2 9996   1.641   0.658   2.624
 3252WAT      O 9997   4.958   2.156   6.195
 3252WAT     H1 9998   4.919   2.100   6.268
 3252WAT     H2 9999   5.018   2.226   6.234
 3253WAT      O10000   9.379   3.976   9.747
 3253WAT     H110001   9.316   4.053   9.748
 3253WAT     H210002   9.394   3.944   9.841
 3254WAT      O10003   0.816   6.780   9.051
 3254WAT     H110004   0.752   6.842   9.097
 3254WAT     H210005   0.892   6.759   9.111
 3255WAT      O10006   8.110   0.577   9.431
 3255WAT     H110007   8.206   0.577   9.458
 3255WAT     H210008   8.103   0.580   9.332
 3256WAT      O10009   5.991   9.004   0.937
 3256WAT     H110010   6.080   9.048   0.952
 3256WAT     H210011   5.930   9.069   0.890
 3257WAT      O10012   9.290   5.494   5.334
 3257WAT     H110013   9.343   5.577   5.319
 3257WAT     H210014   9.193   5.514   5.322
 3258WAT      O10015   0.641   4.379   1.594
 3258WAT     H110016   0.628   4.395   1.692
 3258WAT     H210017   0.646   4.467   1.547
 3259WAT      O10018   1.431   2.554   6.378
 3259WAT     H110019   1.360   2.601   6.430
 3259WAT     H210020   1.513   2.612   6.374
 3260WAT      O10021   4.314   8.861   1.388
 3260WAT     H110022   4.389   8.906   1.436
 3260WAT     H210023   4.350   8.790   1.328
 3261WAT      O10024   0.361   4.654   5.728
 3261WAT     H110025   0.274   4.672   5.773
 3261WAT     H210026   0.427   4.724   5.756
 3262WAT      O10027   7.758   9.605   3.340
 3262WAT     H110028   7.839   9.611   3.399
 3262WAT     H210029   7.783   9.561   3.254
 3263WAT      O10030   4.548   7.930   8.472
 3263WAT     H110031   4.601   7.905   8.390
 3263WAT     H210032   4.472   7.866   8.482
 3264WAT      O10033   1.638   1.885   8.153
 3264WAT     H110034   1.686   1.882   8.241
 3264WAT     H210035   1.545   1.919   8.166
 3265WAT      O10036   5.394   6.378   8.329
 3265WAT     H110037   5.398   6.462   8.383
 3265WAT     H210038   5.435   6.303   8.380
 3266WAT      O10039   9.574   3.476   1.699
 3266WAT     H110040   9.543   3.500   1.608
 3266WAT     H210041   9.535   3.388   1.725
 3267WAT      O10042   4.342   5.913   7.885
 3267WAT     H110043   4.407   5.838   7.875
 3267WAT     H210044   4.256   5.878   7.923
 3268WAT      O10045   8.545   4.092   0.763
 3268WAT     H110046   8.450   4.061   0.769
 3268WAT     H210047   8.593   4.069   0.847
 3269WAT      O10048   2.955   8.543   7.443
 3269WAT     H110049   3.002   8.525   7.356
 3269WAT     H210050   2.941   8.458   7.492
 3270WAT      O10051   1.953   5.003   5.758
 3270WAT     H110052   1.949   4.965   5.851
 3270WAT     H210053   2.044   4.987   5.720
 3271WAT      O10054   0.029   4.505   2.739
 3271WAT     H110055  -0.065   4.489   2.709
 3271WAT     H210056   0.064   4.422   2.782
 3272WAT      O10057   3.109   2.684   5.555
 3272WAT     H110058   3.043   2.608   5.554
 3272WAT     H210059   3.124   2.716   5.462
 3273WAT      O10060   0.849   7.469   5.463
 3273WAT     H110061   0.833   7.526   5.382
 3273WAT     H210062   0.900   7.387   5.436
 3274WAT      O10063   3.368   1.285   1.467
 3274WAT     H110064   3.298   1.357   1.464
 3274WAT     H210065   3.415   1.280   1.379
 3275WAT      O10066   9.379   4.118   1.356
 3275WAT     H110067   9.464   4.066   1.348
 3275WAT     H210068   9.301   4.055   1.361
 3276WAT      O10069   8.329   2.267   2.518
 3276WAT     H110070   8.325   2.366   2.520
 3276WAT     H210071   8.364   2.233   2.605
 3277WAT      O10072   0.769   9.014   1.865
 3277WAT     H110073   0.673   9.037   1.881
 3277WAT     H210074   0.827   9.067   1.927
 3278WAT      O10075   7.439   9.560   7.298
 3278WAT     H110076   7.346   9.596   7.297
 3278WAT     H210077   7.437   9.463   7.320
 3279WAT      O10078   8.765   2.744   3.134
 3279WAT     H110079   8.862   2.735   3.112
 3279WAT     H210080   8.728   2.655   3.160
 3280WAT      O10081   5.365   5.159   3.891
 3280WAT     H110082   5.421   5.154   3.809
 3280WAT     H210083   5.364   5.070   3.937
 3281WAT      O10084   5.376   3.224   6.072
 3281WAT     H110085   5.412   3.194   5.984
 3281WAT     H210086   5.427   3.180   6.146
 3282WAT      O10087   0.365   3.095   2.024
 3282WAT     H110088   0.347   3.004   1.989
 3282WAT     H210089   0.298   3.117   2.095
 3283WAT      O10090   8.878   3.756   7.533
 3283WAT     H110091   8.806   3.782   7.468
 3283WAT     H210092   8.841   3.689   7.598
 3284WAT      O10093   5.862   8.020   6.045
 3284WAT     H110094   5.858   7.937   6.101
 3284WAT     H210095   5.787   8.018   5.979
 3285WAT      O10096   8.434   5.754   0.202
 3285WAT     H110097   8.468   5.722   0.114
 3285WAT     H210098   8.413   5.675   0.260
 3286WAT      O10099   5.967   9.289   6.935
 3286WAT     H110100   5.883   9.322   6.893
 3286WAT     H210101   5.994   9.350   7.010
 3287WAT      O10102   5.962   6.626   8.559
 3287WAT     H110103   5.880   6.679   8.582
 3287WAT     H210104   6.010   6.670   8.483
 3288WAT      O10105   8.364   5.763   4.816
 3288WAT     H110106   8.344   5.669   4.787
 3288WAT     H210107   8.299   5.790   4.887
 3289WAT      O10108   2.345   3.047   5.412
 3289WAT     H110109   2.435   3.065   5.374
 3289WAT     H210110   2.316   2.955   5.385
 3290WAT      O10111   0.166   0.106   3.087
 3290WAT     H110112   0.198   0.056   3.007
 3290WAT     H210113   0.131   0.196   3.059
 3291WAT      O10114   8.263   7.469   0.438
 3291WAT     H110115   8.353   7.440   0.407
 3291WAT     H210116   8.193   7.411   0.397
 3292WAT      O10117   4.455   8.815   4.516
 3292WAT     H110118   4.394   8.736   4.522
 3292WAT     H210119   4.449   8.868   4.601
 3293WAT      O10120   3.921   9.595   9.564
 3293WAT     H110121   3.994   9.661   9.583
 3293WAT     H210122   3.956   9.523   9.505
 3294WAT      O10123   1.589   6.621   8.989
 3294WAT     H110124   1.556   6.527   8.975
 3294WAT     H210125   1.512   6.680   9.014
 3295WAT      O10126   4.954   2.433   8.210
 3295WAT     H110127   4.861   2.407   8.185
 3295WAT     H210128   5.009   2.444   8.126
 3296WAT      O10129   3.049   6.422   1.166
 3296WAT     H110130   3.029   6.520   1.173
 3296WAT     H210131   3.037   6.392   1.072
 3297WAT      O10132   9.798   3.912   5.025
 3297WAT     H110133   9.835   3.936   4.935
 3297WAT     H210134   9.750   3.825   5.019
 3298WAT      O10135   1.443   6.312   2.953
 3298WAT     H110136   1.496   6.287   3.034
 3298WAT     H210137   1.346   6.316   2.977
 3299WAT      O10138   0.938   8.941   6.228
 3299WAT     H110139   0.956   8.860   6.284
 3299WAT     H210140   0.869   8.998   6.272
 3300WAT      O10141   8.971   7.115   8.170
 3300WAT     H110142   8.911   7.195   8.176
 3300WAT     H210143   8.947   7.062   8.089
 3301WAT      O10144   1.629   4.351   1.267
 3301WAT     H110145   1.728   4.363   1.281
 3301WAT     H210146   1.591   4.296   1.341
 3302WAT      O10147   4.783   8.972   5.784
 3302WAT     H110148   4.790   9.072   5.783
 3302WAT     H210149   4.848   8.933   5.718
 3303WAT      O10150   5.187   6.610   9.411
 3303WAT     H110151   5.113   6.647   9.468
 3303WAT     H210152   5.275   6.637   9.448
 3304WAT      O10153   5.768   3.267   3.210
 3304WAT     H110154   5.819   3.268   3.296
 3304WAT     H210155   5.733   3.175   3.193
 3305WAT      O10156   8.339   3.133   5.887
 3305WAT     H110157   8.437   3.126   5.903
 3305WAT     H210158   8.311   3.061   5.823
 3306WAT      O10159   0.667   5.831   6.611
 3306WAT     H110160   0.654   5.838   6.710
 3306WAT     H210161   0.764   5.839   6.589
 3307WAT      O10162   0.643   3.885   2.567
 3307WAT     H110163   0.606   3.837   2.488
 3307WAT     H210164   0.652   3.982   2.546
 3308WAT      O10165   2.330   8.883   5.611
 3308WAT     H110166   2.332   8.883   5.511
 3308WAT     H210167   2.242   8.849   5.643
 3309WAT      O10168   4.568   1.441   0.839
 3309WAT     H110169   4.668   1.436   0.848
 3309WAT     H210170   4.544   1.463   0.744
 3310WAT      O10171   4.474   0.009   0.266
 3310WAT     H110172   4.374   0.004   0.262
 3310WAT     H210173   4.511  -0.080   0.292
 3311WAT      O10174   4.408   9.348   3.506
 3311WAT     H110175   4.390   9.352   3.408
 3311WAT     H210176   4.322   9.357   3.556
 3312WAT      O10177   1.061   2.067   2.779
 3312WAT     H110178   1.111   2.088   2.863
 3312WAT     H210179   0.995   1.994   2.798
 3313WAT      O10180   8.701   1.825   3.477
 3313WAT     H110181   8.663   1.917   3.472
 3313WAT     H210182   8.696   1.792   3.571
 3314WAT      O10183   4.826   8.212   3.606
 3314WAT     H110184   4.924   8.229   3.598
 3314WAT     H210185   4.798   8.144   3.539
 3315WAT      O10186   3.136   0.959   3.137
 3315WAT     H110187   3.184   0.897   3.199
 3315WAT     H210188   3.040   0.931   3.129
 3316WAT      O10189   4.542   9.411   1.850
 3316WAT     H110190   4.612   9.344   1.827
 3316WAT     H210191   4.463   9.365   1.890
 3317WAT      O10192   5.877   2.580   7.324
 3317WAT     H110193   5.952   2.513   7.326
 3317WAT     H210194   5.825   2.575   7.409
 3318WAT      O10195   7.616   0.262   7.664
 3318WAT     H110196   7.550   0.192   7.640
 3318WAT     H210197   7.663   0.236   7.748
 3319WAT      O10198   2.605   7.241   3.539
 3319WAT     H110199   2.514   7.209   3.512
 3319WAT     H210200   2.654   7.167   3.586
 3320WAT      O10201   7.886   2.112   8.149
 3320WAT     H110202   7.833   2.142   8.229
 3320WAT     H210203   7.946   2.037   8.175
 3321WAT      O10204   7.929   1.494   6.662
 3321WAT     H110205   7.988   1.430   6.711
 3321WAT     H210206   7.925   1.581   6.711
 3322WAT      O10207   1.466   6.374   4.239
 3322WAT     H110208   1.555   6.332   4.255
 3322WAT     H210209   1.403   6.306   4.201
 3323WAT      O10210   3.271   4.436   6.868
 3323WAT     H110211   3.183   4.388   6.864
 3323WAT     H210212   3.344   4.374   6.841
 3324WAT      O10213   4.952   1.059   3.128
 3324WAT     H110214   4.915   1.033   3.039
 3324WAT     H210215   4.941   0.984   3.192
 3325WAT      O10216   2.753   7.993   1.731
 3325WAT     H110217   2.758   8.007   1.829
 3325WAT     H210218   2.844   7.970   1.696
 3326WAT      O10219   0.764   7.598   9.836
 3326WAT     H110220   0.683   7.547   9.807
 3326WAT     H210221   0.742   7.695   9.843
 3327WAT      O10222   9.558   6.819   7.683
 3327WAT     H110223   9.654   6.831   7.707
 3327WAT     H210224   9.511   6.907   7.687
 3328WAT      O10225   0.564   7.907   2.620
 3328WAT     H110226   0.533   7.868   2.706
 3328WAT     H210227   0.653   7.951   2.633
 3329WAT      O10228   6.401   4.782   0.958
 3329WAT     H110229   6.497   4.789   0.931
 3329WAT     H210230   6.395   4.731   1.044
 3330WAT      O10231   9.391   1.288   4.628
 3330WAT     H110232   9.453   1.211   4.614
 3330WAT     H210233   9.436   1.358   4.683
 3331WAT      O10234   0.850   5.234   0.349
 3331WAT     H110235   0.930   5.255   0.405
 3331WAT     H210236   0.790   5.314   0.345
 3332WAT      O10237   1.420   2.034   3.923
 3332WAT     H110238   1.339   2.081   3.889
 3332WAT     H210239   1.502   2.071   3.879
 3333WAT      O10240   0.337   1.576   0.325
 3333WAT     H110241   0.385   1.657   0.359
 3333WAT     H210242   0.382   1.543   0.242
 3334WAT      O10243   7.594   2.653   3.923
 3334WAT     H110244   7.616   2.747   3.949
 3334WAT     H210245   7.608   2.592   4.001
 3335WAT      O10246   5.611   6.009   4.052
 3335WAT     H110247   5.516   6.008   4.022
 3335WAT     H210248   5.640   5.917   4.076
 3336WAT      O10249   7.208   8.380   9.286
 3336WAT     H110250   7.247   8.350   9.199
 3336WAT     H210251   7.137   8.316   9.315
 3337WAT      O10252   9.858   7.869   3.839
 3337WAT     H110253   9.763   7.846   3.818
 3337WAT     H210254   9.900   7.911   3.759
 3338WAT      O10255   6.836   8.536   8.181
 3338WAT     H110256   6.790   8.489   8.105
 3338WAT     H210257   6.819   8.635   8.174
 3339WAT      O10258   8.143   1.014   8.362
 3339WAT     H110259   8.162   1.055   8.274
 3339WAT     H210260   8.122   0.917   8.350
 3340WAT      O10261   3.284   4.585   9.631
 3340WAT     H110262   3.336   4.514   9.584
 3340WAT     H210263   3.243   4.647   9.565
 3341WAT      O10264   0.698   3.777   2.222
 3341WAT     H110265   0.788   3.746   2.252
 3341WAT     H210266   0.684   3.751   2.127
 3342WAT      O10267   5.263   5.247   3.150
 3342WAT     H110268   5.200   5.171   3.136
 3342WAT     H210269   5.349   5.213   3.188
 3343WAT      O10270   5.155   4.940   8.505
 3343WAT     H110271   5.135   4.912   8.411
 3343WAT     H210272   5.171   4.860   8.562
 3344WAT      O10273   6.752   5.300   0.256
 3344WAT     H110274   6.728   5.224   0.195
 3344WAT     H210275   6.714   5.283   0.347
 3345WAT      O10276   8.360   1.516   1.070
 3345WAT     H110277   8.261   1.516   1.063
 3345WAT     H210278   8.400   1.555   0.987
 3346WAT      O10279   0.772   5.462   8.487
 3346WAT     H110280   0.766   5.559   8.511
 3346WAT     H210281   0.867   5.438   8.466
 3347WAT      O10282   2.168   8.073   1.650
 3347WAT     H110283   2.113   7.990   1.660
 3347WAT     H210284   2.144   8.120   1.564
 3348WAT      O10285   9.469   9.275   4.262
 3348WAT     H110286   9.530   9.195   4.263
 3348WAT     H210287   9.512   9.350   4.312
 3349WAT      O10288   0.020   8.327   1.154
 3349WAT     H110289   0.116   8.342   1.178
 3349WAT     H210290  -0.026   8.282   1.231
 3350WAT      O10291   4.593   2.840   9.154
 3350WAT     H110292   4.563   2.843   9.059
 3350WAT     H210293   4.599   2.934   9.189
 3351WAT      O10294   4.228   7.642   3.811
 3351WAT     H110295   4.249   7.738   3.831
 3351WAT     H210296   4.307   7.600   3.766
 3352WAT      O10297   8.449   5.227   4.363
 3352WAT     H110298   8.541   5.204   4.396
 3352WAT     H210299   8.419   5.160   4.296
 3353WAT      O10300   7.090   4.535   3.362
 3353WAT     H110301   7.162   4.597   3.330
 3353WAT     H210302   7.007   4.587   3.381
 3354WAT      O10303   1.684   1.590   5.910
 3354WAT     H110304   1.669   1.528   5.987
 3354WAT     H210305   1.602   1.592   5.852
 3355WAT      O10306   1.177   4.602   0.768
 3355WAT     H110307   1.187   4.507   0.798
 3355WAT     H210308   1.201   4.664   0.843
 3356WAT      O10309   8.229   1.099   3.068
 3356WAT     H110310   8.235   1.048   3.154
 3356WAT     H210311   8.150   1.067   3.015
 3357WAT      O10312   4.078   5.454   5.326
 3357WAT     H110313   4.002   5.396   5.297
 3357WAT     H210314   4.164   5.404   5.317
 3358WAT      O10315   7.187   8.446   5.946
 3358WAT     H110316   7.099   8.400   5.948
 3358WAT     H210317   7.237   8.421   5.863
 3359WAT      O10318   2.618   7.954   0.432
 3359WAT     H110319   2.607   7.962   0.333
 3359WAT     H210320   2.613   7.857   0.458
 3360WAT      O10321   5.298   1.300   4.540
 3360WAT     H110322   5.228   1.359   4.580
 3360WAT     H210323   5.388   1.337   4.560
 3361WAT      O10324   4.808   6.471   3.510
 3361WAT     H110325   4.821   6.389   3.565
 3361WAT     H210326   4.817   6.552   3.568
 3362WAT      O10327   9.043   4.481   0.298
 3362WAT     H110328   8.969   4.418   0.319
 3362WAT     H210329   9.047   4.497   0.199
 3363WAT      O10330   4.851   5.561   8.752
 3363WAT     H110331   4.904   5.645   8.746
 3363WAT     H210332   4.899   5.488   8.703
 3364WAT      O10333   4.621   4.894   8.324
 3364WAT     H110334   4.600   4.942   8.238
 3364WAT     H210335   4.595   4.798   8.316
 3365WAT      O10336   5.949   8.402   0.019
 3365WAT     H110337   5.927   8.496   0.046
 3365WAT     H210338   5.964   8.399  -0.080
 3366WAT      O10339   0.959   6.682   0.079
 3366WAT     H110340   0.950   6.777   0.110
 3366WAT     H210341   0.885   6.628   0.117
 3367WAT      O10342   4.825   5.858   1.448
 3367WAT     H110343   4.837   5.759   1.459
 3367WAT     H210344   4.909   5.898   1.413
 3368WAT      O10345   6.965   5.652   3.916
 3368WAT     H110346   6.995   5.582   3.851
 3368WAT     H210347   6.888   5.703   3.877
 3369WAT      O10348   1.514   1.612   0.439
 3369WAT     H110349   1.458   1.543   0.484
 3369WAT     H210350   1.468   1.701   0.444
 3370WAT      O10351   7.027   0.478   9.189
 3370WAT     H110352   7.123   0.489   9.162
 3370WAT     H210353   7.000   0.556   9.246
 3371WAT      O10354   8.124   7.522   3.434
 3371WAT     H110355   8.195   7.456   3.411
 3371WAT     H210356   8.143   7.560   3.525
 3372WAT      O10357   9.225   4.324   7.659
 3372WAT     H110358   9.285   4.370   7.594
 3372WAT     H210359   9.237   4.225   7.651
 3373WAT      O10360   3.511   6.826   4.779
 3373WAT     H110361   3.490   6.923   4.784
 3373WAT     H210362   3.580   6.803   4.848
 3374WAT      O10363   2.328   0.527   5.510
 3374WAT     H110364   2.248   0.540   5.569
 3374WAT     H210365   2.390   0.605   5.520
 3375WAT      O10366   4.853   7.885   9.350
 3375WAT     H110367   4.861   7.894   9.250
 3375WAT     H210368   4.940   7.909   9.392
 3376WAT      O10369   4.612   3.498   9.217
 3376WAT     H110370   4.661   3.430   9.162
 3376WAT     H210371   4.643   3.590   9.192
 3377WAT      O10372   9.006   2.363   6.409
 3377WAT     H110373   8.918   2.385   6.366
 3377WAT     H210374   9.070   2.438   6.396
 3378WAT      O10375   5.764   5.681   1.034
 3378WAT     H110376   5.742   5.585   1.054
 3378WAT     H210377   5.683   5.726   0.997
 3379WAT      O10378   9.041   6.575   3.519
 3379WAT     H110379   8.992   6.653   3.479
 3379WAT     H210380   9.139   6.596   3.524
 3380WAT      O10381   2.536   1.108   2.075
 3380WAT     H110382   2.475   1.035   2.105
 3380WAT     H210383   2.537   1.181   2.144
 3381WAT      O10384   8.381   6.885   8.465
 3381WAT     H110385   8.289   6.919   8.445
 3381WAT     H210386   8.432   6.954   8.516
 3382WAT      O10387   2.939   1.400   6.127
 3382WAT     H110388   2.879   1.360   6.058
 3382WAT     H210389   3.020   1.438   6.082
 3383WAT      O10390   7.871   2.878   4.863
 3383WAT     H110391   7.954   2.883   4.918
 3383WAT     H210392   7.803   2.942   4.899
 3384WAT      O10393   1.170   8.067   0.497
 3384WAT     H110394   1.199   8.063   0.401
 3384WAT     H210395   1.100   7.998   0.513
 3385WAT      O10396   1.352   4.099   5.096
 3385WAT     H110397   1.375   4.010   5.056
 3385WAT     H210398   1.410   4.117   5.175
 3386WAT      O10399   6.117   0.049   3.598
 3386WAT     H110400   6.187   0.041   3.670
 3386WAT     H210401   6.137   0.129   3.542
 3387WAT      O10402   8.791   7.068   4.317
 3387WAT     H110403   8.830   7.005   4.384
 3387WAT     H210404   8.694   7.046   4.302
 3388WAT      O10405   1.966   2.192   3.728
 3388WAT     H110406   2.008   2.192   3.637
 3388WAT     H210407   1.944   2.099   3.754
 3389WAT      O10408   8.454   2.152   2.726
 3389WAT     H110409   8.478   2.056   2.715
 3389WAT     H210410   8.535   2.208   2.708
 3390WAT      O10411   7.171   9.427   2.955
 3390WAT     H110412   7.082   9.406   2.995
 3390WAT     H210413   7.244   9.389   3.013
 3391WAT      O10414   2.837   4.021   3.923
 3391WAT     H110415   2.833   4.083   3.845
 3391WAT     H210416   2.797   3.933   3.899
 3392WAT      O10417   5.736   0.515   4.952
 3392WAT     H110418   5.762   0.465   4.869
 3392WAT     H210419   5.636   0.523   4.956
 3393WAT      O10420   5.411   1.916   5.727
 3393WAT     H110421   5.464   1.991   5.766
 3393WAT     H210422   5.340   1.952   5.666
 3394WAT      O10423   5.375   8.769   3.576
 3394WAT     H110424   5.437   8.836   3.617
 3394WAT     H210425   5.371   8.688   3.634
 3395WAT      O10426   9.092   8.433   7.652
 3395WAT     H110427   9.132   8.422   7.561
 3395WAT     H210428   8.997   8.401   7.651
 3396WAT      O10429   6.600   8.611   4.770
 3396WAT     H110430   6.553   8.524   4.754
 3396WAT     H210431   6.696   8.604   4.743
 3397WAT      O10432   2.101   2.395   8.873
 3397WAT     H110433   2.057   2.471   8.825
 3397WAT     H210434   2.051   2.311   8.855
 3398WAT      O10435   9.762   1.197   0.634
 3398WAT     H110436   9.664   1.212   0.621
 3398WAT     H210437   9.814   1.268   0.587
 3399WAT      O10438   9.847   6.538   7.773
 3399WAT     H110439   9.874   6.514   7.866
 3399WAT     H210440   9.908   6.492   7.707
 3400WAT      O10441   3.059   1.201   0.865
 3400WAT     H110442   3.017   1.130   0.923
 3400WAT     H210443   3.115   1.262   0.922
 3401WAT      O10444   1.104   5.037   0.728
 3401WAT     H110445   1.039   5.106   0.760
 3401WAT     H210446   1.180   5.031   0.792
 3402WAT      O10447   7.574   2.096   0.609
 3402WAT     H110448   7.573   2.179   0.664
 3402WAT     H210449   7.659   2.047   0.623
 3403WAT      O10450   0.522   0.288   3.133
 3403WAT     H110451   0.480   0.202   3.160
 3403WAT     H210452   0.484   0.318   3.045
 3404WAT      O10453   8.200   5.051   2.948
 3404WAT     H110454   8.288   5.019   2.984
 3404WAT     H210455   8.137   5.070   3.024
 3405WAT      O10456   9.002   9.514   6.929
 3405WAT     H110457   8.984   9.465   6.844
 3405WAT     H210458   8.919   9.515   6.985
 3406WAT      O10459   7.228   0.629   7.935
 3406WAT     H110460   7.177   0.543   7.944
 3406WAT     H210461   7.169   0.705   7.964
 3407WAT      O10462   5.979   8.598   2.521
 3407WAT     H110463   5.956   8.640   2.433
 3407WAT     H210464   6.079   8.594   2.531
 3408WAT      O10465   4.747   3.294   9.641
 3408WAT     H110466   4.804   3.304   9.559
 3408WAT     H210467   4.799   3.245   9.711
 3409WAT      O10468   6.238   6.496   1.547
 3409WAT     H110469   6.160   6.474   1.605
 3409WAT     H210470   6.320   6.454   1.585
 3410WAT      O10471   5.051   4.257   8.823
 3410WAT     H110472   5.059   4.306   8.910
 3410WAT     H210473   5.016   4.319   8.753
 3411WAT      O10474   8.458   9.793   8.892
 3411WAT     H110475   8.400   9.728   8.941
 3411WAT     H210476   8.501   9.856   8.957
 3412WAT      O10477   1.233   7.730   2.151
 3412WAT     H110478   1.153   7.753   2.095
 3412WAT     H210479   1.315   7.761   2.104
 3413WAT      O10480   1.723   5.751   1.594
 3413WAT     H110481   1.819   5.762   1.568
 3413WAT     H210482   1.693   5.831   1.646
 3414WAT      O10483   5.527   0.050   4.137
 3414WAT     H110484   5.614   0.075   4.095
 3414WAT     H210485   5.518  -0.050   4.138
 3415WAT      O10486   8.439   0.947   6.820
 3415WAT     H110487   8.508   1.014   6.795
 3415WAT     H210488   8.348   0.983   6.801
 3416WAT      O10489   2.841   4.218   1.227
 3416WAT     H110490   2.804   4.158   1.156
 3416WAT     H210491   2.926   4.259   1.195
 3417WAT      O10492   5.480   4.970   4.689
 3417WAT     H110493   5.552   4.945   4.753
 3417WAT     H210494   5.514   5.044   4.629
 3418WAT      O10495   6.827   2.163   4.158
 3418WAT     H110496   6.845   2.193   4.064
 3418WAT     H210497   6.831   2.242   4.219
 3419WAT      O10498   7.698   0.569   2.387
 3419WAT     H110499   7.634   0.541   2.316
 3419WAT     H210500   7.761   0.637   2.350
 3420WAT      O10501   4.978   4.597   0.525
 3420WAT     H110502   5.000   4.502   0.505
 3420WAT     H210503   4.993   4.615   0.622
 3421WAT      O10504   1.069   4.856   5.810
 3421WAT     H110505   1.113   4.772   5.778
 3421WAT     H210506   1.101   4.877   5.903
 3422WAT      O10507   9.109   6.912   6.390
 3422WAT     H110508   9.166   6.888   6.469
 3422WAT     H210509   9.167   6.953   6.319
 3423WAT      O10510   9.755   7.220   2.626
 3423WAT     H110511   9.795   7.251   2.712
 3423WAT     H210512   9.662   7.187   2.643
 3424WAT      O10513   3.088   3.914   1.456
 3424WAT     H110514   3.166   3.930   1.395
 3424WAT     H210515   3.085   3.818   1.482
 3425WAT      O10516   4.119   5.449   6.871
 3425WAT     H110517   4.197   5.458   6.933
 3425WAT     H210518   4.130   5.512   6.795
 3426WAT      O10519   6.596   1.888   3.619
 3426WAT     H110520   6.664   1.826   3.579
 3426WAT     H210521   6.607   1.890   3.719
 3427WAT      O10522   8.165   8.340   3.930
 3427WAT     H110523   8.191   8.401   4.004
 3427WAT     H210524   8.234   8.344   3.857
 3428WAT      O10525   8.961   0.092   3.990
 3428WAT     H110526   8.921   0.006   3.959
 3428WAT     H210527   9.061   0.084   3.990
 3429WAT      O10528   6.739   6.977   7.734
 3429WAT     H110529   6.666   7.031   7.776
 3429WAT     H210530   6.733   6.986   7.634
 3430WAT      O10531   0.834   9.443   4.936
 3430WAT     H110532   0.870   9.352   4.914
 3430WAT     H210533   0.826   9.497   4.852
 3431WAT      O10534   7.791   0.160   5.122
 3431WAT     H110535   7.873   0.105   5.102
 3431WAT     H210536   7.783   0.173   5.220
 3432WAT      O10537   9.339   6.583   0.484
 3432WAT     H110538   9.309   6.627   0.400
 3432WAT     H210539   9.359   6.486   0.466
 3433WAT      O10540   9.832   0.711   4.218
 3433WAT     H110541   9.769   0.735   4.291
 3433WAT     H210542   9.926   0.730   4.247
 3434WAT      O10543   2.140   1.863   6.994
 3434WAT     H110544   2.092   1.786   6.952
 3434WAT     H210545   2.219   1.830   7.044
 3435WAT      O10546   3.548   1.001   8.169
 3435WAT     H110547   3.601   1.031   8.248
 3435WAT     H210548   3.543   0.901   8.167
 3436WAT      O10549   0.796   7.094   7.270
 3436WAT     H110550   0.748   7.169   7.225
 3436WAT     H210551   0.748   7.008   7.250
 3437WAT      O10552   4.658   0.677   2.280
 3437WAT     H110553   4.608   0.641   2.359
 3437WAT     H210554   4.755   0.659   2.291
 3438WAT      O10555   8.830   7.445   1.114
 3438WAT     H110556   8.759   7.515   1.103
 3438WAT     H210557   8.811   7.392   1.196
 3439WAT      O10558   0.993   8.038   0.876
 3439WAT     H110559   1.069   8.018   0.814
 3439WAT     H210560   0.955   7.952   0.911
 3440WAT      O10561   2.911   4.626   5.918
 3440WAT     H110562   2.915   4.548   5.980
 3440WAT     H210563   2.870   4.704   5.965
 3441WAT      O10564   6.998   9.083   2.283
 3441WAT     H110565   7.022   9.045   2.194
 3441WAT     H210566   7.077   9.077   2.344
 3442WAT      O10567   8.499   1.725   0.402
 3442WAT     H110568   8.483   1.799   0.335
 3442WAT     H210569   8.419   1.665   0.404
 3443WAT      O10570   2.665   4.603   9.682
 3443WAT     H110571   2.602   4.645   9.748
 3443WAT     H210572   2.639   4.508   9.667
 3444WAT      O10573   1.686   7.699   2.419
 3444WAT     H110574   1.715   7.795   2.411
 3444WAT     H210575   1.699   7.669   2.513
 3445WAT      O10576   9.704   9.455   1.338
 3445WAT     H110577   9.729   9.500   1.424
 3445WAT     H210578   9.684   9.359   1.356
 3446WAT      O10579   6.187   3.520   5.633
 3446WAT     H110580   6.151   3.610   5.660
 3446WAT     H210581   6.152   3.496   5.543
 3447WAT      O10582   8.657   5.286   7.541
 3447WAT     H110583   8.593   5.209   7.542
 3447WAT     H210584   8.663   5.324   7.449
 3448WAT      O10585   7.491   6.891   8.066
 3448WAT     H110586   7.452   6.978   8.095
 3448WAT     H210587   7.560   6.861   8.132
 3449WAT      O10588   9.634   0.411   1.136
 3449WAT     H110589   9.697   0.472   1.088
 3449WAT     H210590   9.588   0.461   1.209
 3450WAT      O10591   8.899   2.598   9.177
 3450WAT     H110592   8.952   2.680   9.201
 3450WAT     H210593   8.961   2.525   9.150
 3451WAT      O10594   4.918   8.840   2.248
 3451WAT     H110595   4.958   8.786   2.321
 3451WAT     H210596   4.899   8.781   2.169
 3452WAT      O10597   5.225   9.717   5.010
 3452WAT     H110598   5.223   9.621   5.037
 3452WAT     H210599   5.158   9.733   4.937
 3453WAT      O10600   5.568   0.979   5.967
 3453WAT     H110601   5.548   1.039   5.890
 3453WAT     H210602   5.625   1.027   6.034
 3454WAT      O10603   2.553   2.252   7.526
 3454WAT     H110604   2.530   2.156   7.545
 3454WAT     H210605   2.599   2.291   7.605
 3455WAT      O10606   5.524   1.130   0.479
 3455WAT     H110607   5.569   1.056   0.428
 3455WAT     H210608   5.435   1.097   0.513
 3456WAT      O10609   7.022   2.011   8.614
 3456WAT     H110610   7.048   2.069   8.691
 3456WAT     H210611   6.924   1.989   8.621
 3457WAT      O10612   5.779   3.394   5.785
 3457WAT     H110613   5.683   3.402   5.811
 3457WAT     H210614   5.813   3.483   5.755
 3458WAT      O10615   5.559   4.643   7.417
 3458WAT     H110616   5.577   4.546   7.404
 3458WAT     H210617   5.488   4.655   7.486
 3459WAT      O10618   2.089   3.743   5.124
 3459WAT     H110619   2.056   3.696   5.206
 3459WAT     H210620   2.094   3.678   5.048
 3460WAT      O10621   1.865   2.421   7.869
 3460WAT     H110622   1.949   2.414   7.814
 3460WAT     H210623   1.852   2.517   7.896
 3461WAT      O10624   0.674   8.622   4.668
 3461WAT     H110625   0.621   8.557   4.614
 3461WAT     H210626   0.756   8.578   4.702
 3462WAT      O10627   4.865   7.331   9.213
 3462WAT     H110628   4.848   7.353   9.309
 3462WAT     H210629   4.877   7.232   9.204
 3463WAT      O10630   8.489   6.618   4.209
 3463WAT     H110631   8.559   6.651   4.146
 3463WAT     H210632   8.515   6.641   4.303
 3464WAT      O10633   2.765   2.251   6.460
 3464WAT     H110634   2.731   2.344   6.443
 3464WAT     H210635   2.689   2.192   6.486
 3465WAT      O10636   1.850   1.596   1.599
 3465WAT     H110637   1.868   1.686   1.559
 3465WAT     H210638   1.933   1.540   1.595
 3466WAT      O10639   4.767   3.320   4.630
 3466WAT     H110640   4.851   3.321   4.685
 3466WAT     H210641   4.755   3.230   4.590
 3467WAT      O10642   5.511   1.631   6.020
 3467WAT     H110643   5.442   1.671   5.958
 3467WAT     H210644   5.538   1.541   5.986
 3468WAT      O10645   7.692   9.348   1.756
 3468WAT     H110646   7.741   9.311   1.678
 3468WAT     H210647   7.757   9.384   1.823
 3469WAT      O10648   4.105   0.636   4.821
 3469WAT     H110649   4.082   0.609   4.727
 3469WAT     H210650   4.201   0.614   4.839
 3470WAT      O10651   4.978   0.161   9.666
 3470WAT     H110652   4.893   0.178   9.616
 3470WAT     H210653   5.023   0.249   9.685
 3471WAT      O10654   8.695   2.209   9.248
 3471WAT     H110655   8.761   2.133   9.245
 3471WAT     H210656   8.636   2.204   9.168
 3472WAT      O10657   9.132   9.183   6.708
 3472WAT     H110658   9.155   9.111   6.642
 3472WAT     H210659   9.069   9.248   6.666
 3473WAT      O10660   0.027   9.689   3.094
 3473WAT     H110661   0.062   9.757   3.159
 3473WAT     H210662   0.054   9.598   3.124
 3474WAT      O10663   3.696   5.431   6.066
 3474WAT     H110664   3.737   5.383   5.988
 3474WAT     H210665   3.758   5.503   6.098
 3475WAT      O10666   1.458   9.446   8.380
 3475WAT     H110667   1.546   9.492   8.378
 3475WAT     H210668   1.404   9.478   8.458
 3476WAT      O10669   5.999   1.040   4.232
 3476WAT     H110670   6.070   0.970   4.220
 3476WAT     H210671   6.034   1.128   4.200
 3477WAT      O10672   2.896   8.776   1.015
 3477WAT     H110673   2.848   8.825   1.088
 3477WAT     H210674   2.850   8.689   0.997
 3478WAT      O10675   4.119   0.955   6.735
 3478WAT     H110676   4.172   1.036   6.708
 3478WAT     H210677   4.161   0.913   6.815
 3479WAT      O10678   4.443   2.335   9.693
 3479WAT     H110679   4.375   2.274   9.653
 3479WAT     H210680   4.535   2.307   9.663
 3480WAT      O10681   8.621   2.784   1.570
 3480WAT     H110682   8.650   2.877   1.552
 3480WAT     H210683   8.527   2.784   1.605
 3481WAT      O10684   9.618   7.733   2.315
 3481WAT     H110685   9.614   7.722   2.216
 3481WAT     H210686   9.525   7.742   2.351
 3482WAT      O10687   8.636   6.135   4.993
 3482WAT     H110688   8.705   6.124   5.065
 3482WAT     H210689   8.679   6.124   4.904
 3483WAT      O10690   1.609   9.599   4.165
 3483WAT     H110691   1.528   9.583   4.109
 3483WAT     H210692   1.669   9.665   4.119
 3484WAT      O10693   7.162   2.444   9.854
 3484WAT     H110694   7.114   2.357   9.865
 3484WAT     H210695   7.095   2.518   9.846
 3485WAT      O10696   4.102   4.411   0.392
 3485WAT     H110697   4.079   4.327   0.442
 3485WAT     H210698   4.201   4.423   0.393
 3486WAT      O10699   1.552   5.434   8.803
 3486WAT     H110700   1.568   5.530   8.779
 3486WAT     H210701   1.596   5.414   8.891
 3487WAT      O10702   0.932   6.922   6.405
 3487WAT     H110703   0.866   6.997   6.403
 3487WAT     H210704   0.916   6.864   6.485
 3488WAT      O10705   9.847   2.796   9.514
 3488WAT     H110706   9.819   2.724   9.577
 3488WAT     H210707   9.932   2.770   9.469
 3489WAT      O10708   4.977   4.829   6.630
 3489WAT     H110709   4.959   4.927   6.621
 3489WAT     H210710   4.948   4.781   6.547
 3490WAT      O10711   0.884   8.063   2.180
 3490WAT     H110712   0.921   8.155   2.192
 3490WAT     H210713   0.784   8.068   2.174
 3491WAT      O10714   6.835   1.809   0.715
 3491WAT     H110715   6.840   1.742   0.640
 3491WAT     H210716   6.890   1.777   0.792
 3492WAT      O10717   6.352   8.282   7.408
 3492WAT     H110718   6.448   8.273   7.437
 3492WAT     H210719   6.301   8.333   7.477
 3493WAT      O10720   5.609   6.792   4.989
 3493WAT     H110721   5.550   6.788   4.908
 3493WAT     H210722   5.606   6.704   5.037
 3494WAT      O10723   6.682   8.149   5.581
 3494WAT     H110724   6.703   8.247   5.582
 3494WAT     H210725   6.637   8.126   5.495
 3495WAT      O10726   5.330   9.387   2.643
 3495WAT     H110727   5.336   9.350   2.551
 3495WAT     H210728   5.274   9.327   2.700
 3496WAT      O10729   0.800   1.027   3.575
 3496WAT     H110730   0.900   1.020   3.584
 3496WAT     H210731   0.777   1.110   3.524
 3497WAT      O10732   1.140   8.708   5.186
 3497WAT     H110733   1.111   8.630   5.241
 3497WAT     H210734   1.070   8.778   5.187
 3498WAT      O10735   7.610   7.029   0.528
 3498WAT     H110736   7.643   7.059   0.618
 3498WAT     H210737   7.596   6.930   0.528
 3499WAT      O10738   2.579   8.810   7.140
 3499WAT     H110739   2.622   8.864   7.212
 3499WAT     H210740   2.644   8.740   7.107
 3500WAT      O10741   7.109   3.161   2.714
 3500WAT     H110742   7.059   3.238   2.676
 3500WAT     H210743   7.126   3.177   2.811
 3501WAT      O10744   4.542   3.920   9.783
 3501WAT     H110745   4.504   3.837   9.825
 3501WAT     H210746   4.468   3.973   9.742
 3502WAT      O10747   1.843   6.050   4.247
 3502WAT     H110748   1.844   6.029   4.149
 3502WAT     H210749   1.788   6.132   4.263
 3503WAT      O10750   2.282   4.117   6.256
 3503WAT     H110751   2.290   4.217   6.264
 3503WAT     H210752   2.190   4.094   6.223
 3504WAT      O10753   2.967   3.034   6.001
 3504WAT     H110754   3.017   2.948   5.990
 3504WAT     H210755   3.004   3.085   6.079
 3505WAT      O10756   5.771   8.310   5.125
 3505WAT     H110757   5.865   8.286   5.150
 3505WAT     H210758   5.711   8.232   5.145
 3506WAT      O10759   7.960   2.266   8.746
 3506WAT     H110760   7.908   2.193   8.791
 3506WAT     H210761   8.017   2.225   8.674
 3507WAT      O10762   0.271   7.515   7.862
 3507WAT     H110763   0.212   7.593   7.838
 3507WAT     H210764   0.263   7.445   7.791
 3508WAT      O10765   0.567   9.770   4.493
 3508WAT     H110766   0.477   9.813   4.498
 3508WAT     H210767   0.577   9.704   4.567
 3509WAT      O10768   6.580   0.232   7.446
 3509WAT     H110769   6.494   0.282   7.434
 3509WAT     H210770   6.649   0.268   7.384
 3510WAT      O10771   1.914   1.555   5.292
 3510WAT     H110772   1.825   1.552   5.247
 3510WAT     H210773   1.913   1.492   5.370
 3511WAT      O10774   5.870   5.374   6.051
 3511WAT     H110775   5.804   5.299   6.051
 3511WAT     H210776   5.883   5.407   5.957
 3512WAT      O10777   2.873   5.715   9.403
 3512WAT     H110778   2.868   5.615   9.414
 3512WAT     H210779   2.805   5.745   9.337
 3513WAT      O10780   2.033   4.218   2.676
 3513WAT     H110781   2.051   4.161   2.595
 3513WAT     H210782   2.114   4.270   2.699
 3514WAT      O10783   0.160   8.073   6.175
 3514WAT     H110784   0.097   8.082   6.098
 3514WAT     H210785   0.196   8.164   6.199
 3515WAT      O10786   1.946   3.472   5.730
 3515WAT     H110787   2.008   3.428   5.665
 3515WAT     H210788   1.999   3.506   5.808
 3516WAT      O10789   2.195   4.067   5.907
 3516WAT     H110790   2.228   4.160   5.894
 3516WAT     H210791   2.237   4.007   5.839
 3517WAT      O10792   4.463   0.086   1.151
 3517WAT     H110793   4.389   0.030   1.188
 3517WAT     H210794   4.455   0.090   1.051
 3518WAT      O10795   2.589   7.066   2.211
 3518WAT     H110796   2.536   7.150   2.218
 3518WAT     H210797   2.557   7.013   2.133
 3519WAT      O10798   1.476   1.258   5.838
 3519WAT     H110799   1.421   1.242   5.756
 3519WAT     H210800   1.572   1.238   5.818
 3520WAT      O10801   3.543   8.201   9.276
 3520WAT     H110802   3.626   8.240   9.236
 3520WAT     H210803   3.466   8.263   9.262
 3521WAT      O10804   8.286   2.415   7.756
 3521WAT     H110805   8.361   2.432   7.691
 3521WAT     H210806   8.239   2.331   7.731
 3522WAT      O10807   4.408   7.504   5.946
 3522WAT     H110808   4.478   7.460   5.890
 3522WAT     H210809   4.370   7.582   5.897
 3523WAT      O10810   6.863   2.383   8.425
 3523WAT     H110811   6.885   2.474   8.461
 3523WAT     H210812   6.837   2.391   8.329
 3524WAT      O10813   7.462   8.932   4.411
 3524WAT     H110814   7.421   9.022   4.424
 3524WAT     H210815   7.527   8.936   4.334
 3525WAT      O10816   0.543   4.580   2.936
 3525WAT     H110817   0.638   4.583   2.905
 3525WAT     H210818   0.482   4.609   2.862
 3526WAT      O10819   5.488   1.628   2.400
 3526WAT     H110820   5.444   1.538   2.392
 3526WAT     H210821   5.536   1.634   2.487
 3527WAT      O10822   7.270   8.440   2.472
 3527WAT     H110823   7.213   8.448   2.554
 3527WAT     H210824   7.212   8.436   2.391
 3528WAT      O10825   5.552   7.857   2.292
 3528WAT     H110826   5.640   7.815   2.312
 3528WAT     H210827   5.510   7.889   2.378
 3529WAT      O10828   1.778   2.907   3.637
 3529WAT     H110829   1.873   2.923   3.612
 3529WAT     H210830   1.723   2.896   3.554
 3530WAT      O10831   8.153   6.657   8.607
 3530WAT     H110832   8.229   6.695   8.554
 3530WAT     H210833   8.086   6.730   8.625
 3531WAT      O10834   3.982   7.682   4.455
 3531WAT     H110835   3.920   7.683   4.533
 3531WAT     H210836   3.939   7.633   4.379
 3532WAT      O10837   8.168   0.201   1.500
 3532WAT     H110838   8.120   0.236   1.419
 3532WAT     H210839   8.168   0.271   1.571
 3533WAT      O10840   8.080   8.293   0.128
 3533WAT     H110841   8.009   8.335   0.071
 3533WAT     H210842   8.095   8.199   0.098
 3534WAT      O10843   4.410   6.612   5.396
 3534WAT     H110844   4.373   6.706   5.397
 3534WAT     H210845   4.501   6.612   5.437
 3535WAT      O10846   3.401   5.476   7.741
 3535WAT     H110847   3.303   5.455   7.738
 3535WAT     H210848   3.418   5.544   7.812
 3536WAT      O10849   4.000   7.979   7.748
 3536WAT     H110850   4.034   8.069   7.719
 3536WAT     H210851   4.046   7.908   7.695
 3537WAT      O10852   8.033   2.357   1.331
 3537WAT     H110853   8.116   2.312   1.363
 3537WAT     H210854   8.057   2.433   1.270
 3538WAT      O10855   0.476   6.633   1.401
 3538WAT     H110856   0.379   6.640   1.378
 3538WAT     H210857   0.487   6.573   1.480
 3539WAT      O10858   5.757   5.682   4.517
 3539WAT     H110859   5.851   5.651   4.506
 3539WAT     H210860   5.753   5.782   4.505
 3540WAT      O10861   7.729   0.962   9.534
 3540WAT     H110862   7.630   0.944   9.528
 3540WAT     H210863   7.769   0.957   9.443
 3541WAT      O10864   8.491   3.629   0.050
 3541WAT     H110865   8.535   3.713   0.018
 3541WAT     H210866   8.488   3.629   0.150
 3542WAT      O10867   2.302   8.963   6.991
 3542WAT     H110868   2.374   8.902   7.022
 3542WAT     H210869   2.249   8.919   6.919
 3543WAT      O10870   8.362   9.045   9.808
 3543WAT     H110871   8.271   9.005   9.808
 3543WAT     H210872   8.371   9.108   9.885
 3544WAT      O10873   8.141   8.673   9.803
 3544WAT     H110874   8.119   8.616   9.724
 3544WAT     H210875   8.168   8.615   9.880
 3545WAT      O10876   7.249   2.218   6.959
 3545WAT     H110877   7.152   2.196   6.958
 3545WAT     H210878   7.302   2.133   6.965
 3546WAT      O10879   3.155   5.425   5.183
 3546WAT     H110880   3.143   5.362   5.107
 3546WAT     H210881   3.235   5.399   5.236
 3547WAT      O10882   5.694   5.773   7.181
 3547WAT     H110883   5.766   5.709   7.205
 3547WAT     H210884   5.678   5.835   7.258
 3548WAT      O10885   4.055   8.902   0.475
 3548WAT     H110886   3.989   8.914   0.401
 3548WAT     H210887   4.020   8.833   0.540
 3549WAT      O10888   2.872   1.353   7.284
 3549WAT     H110889   2.797   1.415   7.307
 3549WAT     H210890   2.933   1.343   7.362
 3550WAT      O10891   8.473   1.708   4.682
 3550WAT     H110892   8.540   1.706   4.756
 3550WAT     H210893   8.507   1.655   4.604
 3551WAT      O10894   1.302   2.166   5.639
 3551WAT     H110895   1.378   2.101   5.639
 3551WAT     H210896   1.338   2.259   5.651
 3552WAT      O10897   9.443   4.373   4.430
 3552WAT     H110898   9.493   4.393   4.345
 3552WAT     H210899   9.352   4.339   4.408
 3553WAT      O10900   6.238   2.233   5.442
 3553WAT     H110901   6.299   2.233   5.521
 3553WAT     H210902   6.143   2.238   5.472
 3554WAT      O10903   7.322   1.708   7.323
 3554WAT     H110904   7.260   1.718   7.245
 3554WAT     H210905   7.402   1.767   7.308
 3555WAT      O10906   2.117   8.669   0.978
 3555WAT     H110907   2.132   8.742   0.911
 3555WAT     H210908   2.172   8.589   0.954
 3556WAT      O10909   8.908   0.512   0.607
 3556WAT     H110910   8.854   0.445   0.555
 3556WAT     H210911   8.956   0.466   0.682
 3557WAT      O10912   9.100   0.277   5.692
 3557WAT     H110913   9.114   0.342   5.767
 3557WAT     H210914   9.182   0.220   5.682
 3558WAT      O10915   2.189   7.591   2.624
 3558WAT     H110916   2.094   7.571   2.600
 3558WAT     H210917   2.196   7.608   2.723
 3559WAT      O10918   1.548   5.655   9.037
 3559WAT     H110919   1.539   5.700   8.948
 3559WAT     H210920   1.604   5.573   9.027
 3560WAT      O10921   6.644   8.411   8.674
 3560WAT     H110922   6.692   8.442   8.591
 3560WAT     H210923   6.569   8.473   8.694
 3561WAT      O10924   7.718   1.650   0.755
 3561WAT     H110925   7.620   1.658   0.733
 3561WAT     H210926   7.758   1.577   0.700
 3562WAT      O10927   7.528   7.624   4.207
 3562WAT     H110928   7.432   7.609   4.185
 3562WAT     H210929   7.584   7.558   4.158
 3563WAT      O10930   2.787   5.439   7.484
 3563WAT     H110931   2.798   5.478   7.392
 3563WAT     H210932   2.766   5.511   7.549
 3564WAT      O10933   6.019   5.893   4.018
 3564WAT     H110934   6.107   5.846   4.022
 3564WAT     H210935   5.967   5.861   3.939
 3565WAT      O10936   9.856   0.768   6.038
 3565WAT     H110937   9.914   0.793   6.115
 3565WAT     H210938   9.765   0.744   6.071
 3566WAT      O10939   9.587   6.086   5.122
 3566WAT     H110940   9.644   6.005   5.131
 3566WAT     H210941   9.540   6.085   5.034
 3567WAT      O10942   4.722   6.946   3.483
 3567WAT     H110943   4.818   6.960   3.505
 3567WAT     H210944   4.715   6.900   3.394
 3568WAT      O10945   3.541   0.950   6.178
 3568WAT     H110946   3.452   0.973   6.218
 3568WAT     H210947   3.527   0.892   6.097
 3569WAT      O10948   1.395   8.675   1.780
 3569WAT     H110949   1.339   8.731   1.841
 3569WAT     H210950   1.361   8.581   1.781
 3570WAT      O10951   7.124   9.061   2.514
 3570WAT     H110952   7.069   9.107   2.584
 3570WAT     H210953   7.120   8.962   2.528
 3571WAT      O10954   2.894   4.744   4.146
 3571WAT     H110955   2.918   4.670   4.207
 3571WAT     H210956   2.859   4.707   4.060
 3572WAT      O10957   3.227   2.219   7.660
 3572WAT     H110958   3.316   2.265   7.672
 3572WAT     H210959   3.209   2.208   7.562
 3573WAT      O10960   3.019   1.940   3.854
 3573WAT     H110961   2.921   1.920   3.850
 3573WAT     H210962   3.049   1.941   3.949
 3574WAT      O10963   2.534   2.044   1.573
 3574WAT     H110964   2.625   2.083   1.563
 3574WAT     H210965   2.495   2.025   1.483
 3575WAT      O10966   2.743   5.487   3.715
 3575WAT     H110967   2.760   5.583   3.735
 3575WAT     H210968   2.818   5.449   3.660
 3576WAT      O10969   7.712   3.781   6.228
 3576WAT     H110970   7.701   3.706   6.294
 3576WAT     H210971   7.809   3.794   6.209
 3577WAT      O10972   1.388   7.880   6.162
 3577WAT     H110973   1.343   7.890   6.073
 3577WAT     H210974   1.466   7.942   6.166
 3578WAT      O10975   4.943   3.491   7.771
 3578WAT     H110976   4.857   3.488   7.719
 3578WAT     H210977   4.952   3.406   7.824
 3579WAT      O10978   5.238   1.741   8.097
 3579WAT     H110979   5.297   1.821   8.094
 3579WAT     H210980   5.254   1.691   8.183
 3580WAT      O10981   9.448   8.024   0.787
 3580WAT     H110982   9.484   8.117   0.797
 3580WAT     H210983   9.476   7.987   0.699
 3581WAT      O10984   1.391   1.854   8.370
 3581WAT     H110985   1.444   1.869   8.454
 3581WAT     H210986   1.442   1.793   8.309
 3582WAT      O10987   7.298   5.921   4.020
 3582WAT     H110988   7.319   6.013   4.052
 3582WAT     H210989   7.207   5.895   4.051
 3583WAT      O10990   3.042   0.645   7.535
 3583WAT     H110991   3.104   0.589   7.590
 3583WAT     H210992   2.951   0.643   7.576
 3584WAT      O10993   5.474   3.474   7.742
 3584WAT     H110994   5.444   3.475   7.837
 3584WAT     H210995   5.415   3.412   7.690
 3585WAT      O10996   3.831   2.421   2.128
 3585WAT     H110997   3.757   2.365   2.090
 3585WAT     H210998   3.916   2.368   2.130
 3586WAT      O10999   7.728   3.794   0.536
 3586WAT     H111000   7.780   3.747   0.608
 3586WAT     H211001   7.679   3.727   0.481
 3587WAT      O11002   9.258   5.815   7.770
 3587WAT     H111003   9.256   5.722   7.735
 3587WAT     H211004   9.168   5.858   7.756
 3588WAT      O11005   5.291   6.893   2.082
 3588WAT     H111006   5.247   6.822   2.138
 3588WAT     H211007   5.384   6.866   2.061
 3589WAT      O11008   5.361   9.755   9.554
 3589WAT     H111009   5.303   9.778   9.632
 3589WAT     H211010   5.437   9.820   9.549
 3590WAT      O11011   4.788   2.629   9.188
 3590WAT     H111012   4.723   2.684   9.136
 3590WAT     H211013   4.814   2.548   9.134
 3591WAT      O11014   5.697   7.547   0.214
 3591WAT     H111015   5.713   7.608   0.137
 3591WAT     H211016   5.762   7.567   0.287
 3592WAT      O11017   5.270   1.338   5.041
 3592WAT     H111018   5.238   1.432   5.045
 3592WAT     H211019   5.238   1.295   4.957
 3593WAT      O11020   3.315   2.036   0.005
 3593WAT     H111021   3.359   2.106  -0.051
 3593WAT     H211022   3.242   2.078   0.059
 3594WAT      O11023   3.046   0.692   1.344
 3594WAT     H111024   3.061   0.683   1.442
 3594WAT     H211025   3.116   0.641   1.294
 3595WAT      O11026   0.274   2.759   4.850
 3595WAT     H111027   0.204   2.724   4.912
 3595WAT     H211028   0.364   2.747   4.892
 3596WAT      O11029   4.960   0.457   1.504
 3596WAT     H111030   4.926   0.372   1.464
 3596WAT     H211031   4.894   0.491   1.571
 3597WAT      O11032   6.817   9.552   5.711
 3597WAT     H111033   6.819   9.650   5.735
 3597WAT     H211034   6.756   9.504   5.775
 3598WAT      O11035   1.122   4.660   6.008
 3598WAT     H111036   1.065   4.717   6.067
 3598WAT     H211037   1.070   4.580   5.978
 3599WAT      O11038   5.590   3.866   0.620
 3599WAT     H111039   5.521   3.939   0.625
 3599WAT     H211040   5.680   3.904   0.639
 3600WAT      O11041   4.420   4.568   8.734
 3600WAT     H111042   4.387   4.571   8.639
 3600WAT     H211043   4.508   4.522   8.737
 3601WAT      O11044   1.775   8.758   2.235
 3601WAT     H111045   1.708   8.687   2.212
 3601WAT     H211046   1.728   8.834   2.279
 3602WAT      O11047   9.084   3.408   9.825
 3602WAT     H111048   9.034   3.326   9.798
 3602WAT     H211049   9.131   3.446   9.745
 3603WAT      O11050   1.631   3.347   2.443
 3603WAT     H111051   1.651   3.344   2.345
 3603WAT     H211052   1.671   3.429   2.483
 3604WAT      O11053   1.388   3.155   4.310
 3604WAT     H111054   1.436   3.146   4.223
 3604WAT     H211055   1.420   3.085   4.374
 3605WAT      O11056   8.633   4.462   1.515
 3605WAT     H111057   8.667   4.555   1.528
 3605WAT     H211058   8.690   4.414   1.448
 3606WAT      O11059   7.591   8.655   1.722
 3606WAT     H111060   7.674   8.640   1.776
 3606WAT     H211061   7.593   8.747   1.682
 3607WAT      O11062   9.043   3.395   3.687
 3607WAT     H111063   9.047   3.394   3.587
 3607WAT     H211064   9.115   3.336   3.724
 3608WAT      O11065   5.300   5.450   9.766
 3608WAT     H111066   5.220   5.491   9.723
 3608WAT     H211067   5.355   5.521   9.809
 3609WAT      O11068   8.688   7.313   5.999
 3609WAT     H111069   8.652   7.397   6.039
 3609WAT     H211070   8.696   7.243   6.071
 3610WAT      O11071   0.843   5.389   1.209
 3610WAT     H111072   0.900   5.435   1.141
 3610WAT     H211073   0.795   5.313   1.166
 3611WAT      O11074   0.063   0.355   3.067
 3611WAT     H111075   0.140   0.417   3.051
 3611WAT     H211076   0.020   0.379   3.154
 3612WAT      O11077   5.601   6.507   1.416
 3612WAT     H111078   5.615   6.534   1.321
 3612WAT     H211079   5.656   6.426   1.436
 3613WAT      O11080   3.282   5.707   1.685
 3613WAT     H111081   3.275   5.618   1.730
 3613WAT     H211082   3.374   5.744   1.699
 3614WAT      O11083   8.553   3.621   2.277
 3614WAT     H111084   8.486   3.575   2.218
 3614WAT     H211085   8.602   3.553   2.331
 3615WAT      O11086   7.908   7.790   8.363
 3615WAT     H111087   7.842   7.756   8.296
 3615WAT     H211088   7.938   7.882   8.336
 3616WAT      O11089   8.109   9.495   9.513
 3616WAT     H111090   8.106   9.461   9.607
 3616WAT     H211091   8.057   9.581   9.507
 3617WAT      O11092   1.044   6.980   9.327
 3617WAT     H111093   1.029   6.891   9.285
 3617WAT     H211094   0.966   7.002   9.387
 3618WAT      O11095   8.838   6.357   1.803
 3618WAT     H111096   8.904   6.375   1.875
 3618WAT     H211097   8.805   6.444   1.765
 3619WAT      O11098   6.267   7.831   2.849
 3619WAT     H111099   6.202   7.898   2.814
 3619WAT     H211100   6.225   7.740   2.846
 3620WAT      O11101   4.118   2.579   2.377
 3620WAT     H111102   4.033   2.579   2.325
 3620WAT     H211103   4.098   2.564   2.474
 3621WAT      O11104   9.472   2.717   8.116
 3621WAT     H111105   9.412   2.796   8.111
 3621WAT     H211106   9.556   2.734   8.064
 3622WAT      O11107   9.778   0.978   9.433
 3622WAT     H111108   9.700   1.019   9.479
 3622WAT     H211109   9.801   0.891   9.477
 3623WAT      O11110   7.919   6.828   8.646
 3623WAT     H111111   7.854   6.819   8.571
 3623WAT     H211112   7.890   6.901   8.707
 3624WAT      O11113   6.278   6.542   9.736
 3624WAT     H111114   6.245   6.632   9.765
 3624WAT     H211115   6.265   6.532   9.638
 3625WAT      O11116   4.994   3.501   1.712
 3625WAT     H111117   5.003   3.575   1.780
 3625WAT     H211118   4.909   3.513   1.662
 3626WAT      O11119   3.760   4.167   6.796
 3626WAT     H111120   3.842   4.131   6.750
 3626WAT     H211121   3.766   4.146   6.894
 3627WAT      O11122   7.970   4.939   4.215
 3627WAT     H111123   8.009   4.881   4.143
 3627WAT     H211124   7.895   4.993   4.177
 3628WAT      O11125   8.864   7.763   1.478
 3628WAT     H111126   8.926   7.836   1.450
 3628WAT     H211127   8.916   7.679   1.492
 3629WAT      O11128   0.163   7.815   5.796
 3629WAT     H111129   0.229   7.840   5.866
 3629WAT     H211130   0.192   7.731   5.751
 3630WAT      O11131   8.064   5.678   2.010
 3630WAT     H111132   7.999   5.666   2.085
 3630WAT     H211133   8.065   5.773   1.981
 3631WAT      O11134   3.670   5.393   2.871
 3631WAT     H111135   3.602   5.452   2.914
 3631WAT     H211136   3.762   5.419   2.901
 3632WAT      O11137   9.034   8.275   2.342
 3632WAT     H111138   9.074   8.258   2.252
 3632WAT     H211139   9.107   8.297   2.407
 3633WAT      O11140   6.023   5.563   2.126
 3633WAT     H111141   5.985   5.564   2.218
 3633WAT     H211142   6.121   5.541   2.132
 3634WAT      O11143   7.147   3.719   6.740
 3634WAT     H111144   7.171   3.712   6.643
 3634WAT     H211145   7.139   3.816   6.765
 3635WAT      O11146   5.253   2.390   0.620
 3635WAT     H111147   5.334   2.442   0.593
 3635WAT     H211148   5.273   2.292   0.613
 3636WAT      O11149   7.039   4.589   9.315
 3636WAT     H111150   7.044   4.489   9.314
 3636WAT     H211151   7.082   4.624   9.399
 3637WAT      O11152   7.204   2.144   3.874
 3637WAT     H111153   7.168   2.064   3.825
 3637WAT     H211154   7.128   2.198   3.909
 3638WAT      O11155   1.371   5.381   2.207
 3638WAT     H111156   1.389   5.340   2.296
 3638WAT     H211157   1.456   5.383   2.154
 3639WAT      O11158   7.835   4.730   6.181
 3639WAT     H111159   7.753   4.675   6.164
 3639WAT     H211160   7.859   4.724   6.278
 3640WAT      O11161   6.733   5.064   9.605
 3640WAT     H111162   6.825   5.102   9.614
 3640WAT     H211163   6.740   4.971   9.568
 3641WAT      O11164   8.177   0.012   4.267
 3641WAT     H111165   8.195   0.091   4.326
 3641WAT     H211166   8.189   0.038   4.172
 3642WAT      O11167   3.026   7.225   9.500
 3642WAT     H111168   3.075   7.243   9.586
 3642WAT     H211169   2.955   7.293   9.488
 3643WAT      O11170   5.042   8.977   5.341
 3643WAT     H111171   5.011   9.004   5.250
 3643WAT     H211172   5.031   8.878   5.352
 3644WAT      O11173   0.693   1.718   2.916
 3644WAT     H111174   0.733   1.654   2.981
 3644WAT     H211175   0.707   1.685   2.823
 3645WAT      O11176   0.901   2.019   6.170
 3645WAT     H111177   0.973   1.959   6.136
 3645WAT     H211178   0.885   2.000   6.267
 3646WAT      O11179   0.587   8.048   6.016
 3646WAT     H111180   0.566   8.144   5.995
 3646WAT     H211181   0.568   8.030   6.113
 3647WAT      O11182   6.286   3.877   3.796
 3647WAT     H111183   6.361   3.863   3.862
 3647WAT     H211184   6.322   3.920   3.713
 3648WAT      O11185   9.679   0.009   6.991
 3648WAT     H111186   9.701   0.106   7.006
 3648WAT     H211187   9.617   0.001   6.912
 3649WAT      O11188   1.883   9.321   9.211
 3649WAT     H111189   1.859   9.264   9.132
 3649WAT     H211190   1.942   9.396   9.181
 3650WAT      O11191   7.692   7.369   0.647
 3650WAT     H111192   7.788   7.369   0.619
 3650WAT     H211193   7.679   7.307   0.723
 3651WAT      O11194   6.320   7.428   4.887
 3651WAT     H111195   6.238   7.466   4.930
 3651WAT     H211196   6.315   7.442   4.788
 3652WAT      O11197   0.883   9.834   5.768
 3652WAT     H111198   0.949   9.821   5.842
 3652WAT     H211199   0.895   9.760   5.700
 3653WAT      O11200   3.372   4.112   3.076
 3653WAT     H111201   3.462   4.130   3.036
 3653WAT     H211202   3.316   4.061   3.010
 3654WAT      O11203   5.126   5.732   1.308
 3654WAT     H111204   5.045   5.710   1.254
 3654WAT     H211205   5.099   5.745   1.404
 3655WAT      O11206   4.739   1.350   8.580
 3655WAT     H111207   4.737   1.431   8.522
 3655WAT     H211208   4.651   1.302   8.573
 3656WAT      O11209   5.585   1.901   0.877
 3656WAT     H111210   5.626   1.975   0.823
 3656WAT     H211211   5.579   1.819   0.821
 3657WAT      O11212   9.468   9.830   0.468
 3657WAT     H111213   9.560   9.791   0.472
 3657WAT     H211214   9.408   9.781   0.531
 3658WAT      O11215   9.476   1.358   4.060
 3658WAT     H111216   9.390   1.399   4.090
 3658WAT     H211217   9.533   1.338   4.140
 3659WAT      O11218   1.847   5.745   7.013
 3659WAT     H111219   1.790   5.804   7.069
 3659WAT     H211220   1.871   5.791   6.928
 3660WAT      O11221   7.169   9.072   3.184
 3660WAT     H111222   7.243   9.137   3.201
 3660WAT     H211223   7.193   8.983   3.223
 3661WAT      O11224   8.664   6.442   9.622
 3661WAT     H111225   8.727   6.420   9.547
 3661WAT     H211226   8.687   6.532   9.659
 3662WAT      O11227   5.146   7.898   8.190
 3662WAT     H111228   5.230   7.851   8.219
 3662WAT     H211229   5.165   7.995   8.176
 3663WAT      O11230   1.971   4.148   3.307
 3663WAT     H111231   2.033   4.198   3.367
 3663WAT     H211232   1.955   4.202   3.224
 3664WAT      O11233   8.274   2.234   1.427
 3664WAT     H111234   8.242   2.144   1.398
 3664WAT     H211235   8.288   2.234   1.526
 3665WAT      O11236   8.709   7.450   3.801
 3665WAT     H111237   8.656   7.368   3.780
 3665WAT     H211238   8.649   7.520   3.840
 3666WAT      O11239   0.746   7.158   4.848
 3666WAT     H111240   0.676   7.087   4.860
 3666WAT     H211241   0.836   7.119   4.866
 3667WAT      O11242   5.962   2.488   0.246
 3667WAT     H111243   5.919   2.452   0.163
 3667WAT     H211244   6.040   2.430   0.271
 3668WAT      O11245   8.785   7.311   8.168
 3668WAT     H111246   8.694   7.284   8.201
 3668WAT     H211247   8.781   7.325   8.069
 3669WAT      O11248   9.147   7.660   0.432
 3669WAT     H111249   9.160   7.601   0.512
 3669WAT     H211250   9.049   7.678   0.420
 3670WAT      O11251   7.975   0.876   5.234
 3670WAT     H111252   7.929   0.891   5.321
 3670WAT     H211253   8.048   0.808   5.246
 3671WAT      O11254   8.638   5.308   9.620
 3671WAT     H111255   8.713   5.313   9.554
 3671WAT     H211256   8.671   5.271   9.707
 3672WAT      O11257   0.875   5.128   9.318
 3672WAT     H111258   0.873   5.227   9.301
 3672WAT     H211259   0.932   5.084   9.248
 3673WAT      O11260   2.817   3.577   4.016
 3673WAT     H111261   2.820   3.585   4.116
 3673WAT     H211262   2.895   3.523   3.985
 3674WAT      O11263   3.905   9.816   0.971
 3674WAT     H111264   3.910   9.727   1.016
 3674WAT     H211265   3.967   9.880   1.015
 3675WAT      O11266   2.648   9.231   3.607
 3675WAT     H111267   2.625   9.139   3.574
 3675WAT     H211268   2.745   9.250   3.588
 3676WAT      O11269   1.812   6.228   5.450
 3676WAT     H111270   1.782   6.169   5.525
 3676WAT     H211271   1.815   6.323   5.481
 3677WAT      O11272   4.710   1.289   9.084
 3677WAT     H111273   4.757   1.376   9.100
 3677WAT     H211274   4.716   1.266   8.987
 3678WAT      O11275   2.574   3.448   3.942
 3678WAT     H111276   2.519   3.483   4.017
 3678WAT     H211277   2.662   3.496   3.939
 3679WAT      O11278   1.171   8.690   4.158
 3679WAT     H111279   1.149   8.677   4.061
 3679WAT     H211280   1.266   8.722   4.166
 3680WAT      O11281   1.114   3.670   3.112
 3680WAT     H111282   1.152   3.685   3.203
 3680WAT     H211283   1.141   3.580   3.079
 3681WAT      O11284   4.007   0.669   9.255
 3681WAT     H111285   3.976   0.762   9.271
 3681WAT     H211286   4.076   0.645   9.323
 3682WAT      O11287   3.473   3.952   0.652
 3682WAT     H111288   3.469   3.997   0.563
 3682WAT     H211289   3.404   3.880   0.657
 3683WAT      O11290   0.725   8.874   3.962
 3683WAT     H111291   0.692   8.842   4.051
 3683WAT     H211292   0.694   8.810   3.891
 3684WAT      O11293   0.856   8.638   2.466
 3684WAT     H111294   0.916   8.605   2.393
 3684WAT     H211295   0.894   8.721   2.506
 3685WAT      O11296   2.946   3.162   8.636
 3685WAT     H111297   2.946   3.261   8.629
 3685WAT     H211298   2.856   3.131   8.669
 3686WAT      O11299   2.279   7.445   4.787
 3686WAT     H111300   2.349   7.512   4.762
 3686WAT     H211301   2.309   7.394   4.868
 3687WAT      O11302   8.368   2.999   2.208
 3687WAT     H111303   8.451   2.949   2.183
 3687WAT     H211304   8.291   2.935   2.210
 3688WAT      O11305   9.306   6.573   6.282
 3688WAT     H111306   9.220   6.624   6.282
 3688WAT     H211307   9.344   6.572   6.190
 3689WAT      O11308   8.970   7.322   7.817
 3689WAT     H111309   9.015   7.398   7.863
 3689WAT     H211310   9.039   7.260   7.780
 3690WAT      O11311   2.010   7.987   5.979
 3690WAT     H111312   2.011   8.063   5.913
 3690WAT     H211313   2.021   8.023   6.071
 3691WAT      O11314   3.434   0.924   5.078
 3691WAT     H111315   3.488   0.847   5.045
 3691WAT     H211316   3.493   1.005   5.084
 3692WAT      O11317   8.465   7.253   0.878
 3692WAT     H111318   8.435   7.252   0.783
 3692WAT     H211319   8.523   7.173   0.896
 3693WAT      O11320   0.738   9.613   1.553
 3693WAT     H111321   0.770   9.520   1.539
 3693WAT     H211322   0.747   9.665   1.468
 3694WAT      O11323   2.654   9.115   4.983
 3694WAT     H111324   2.723   9.068   5.039
 3694WAT     H211325   2.641   9.208   5.018
 3695WAT      O11326   6.448   3.414   5.984
 3695WAT     H111327   6.455   3.477   6.062
 3695WAT     H211328   6.448   3.466   5.899
 3696WAT      O11329   0.284   3.213   4.442
 3696WAT     H111330   0.354   3.212   4.513
 3696WAT     H211331   0.304   3.140   4.375
 3697WAT      O11332   4.527   0.504   3.525
 3697WAT     H111333   4.616   0.541   3.550
 3697WAT     H211334   4.517   0.505   3.426
 3698WAT      O11335   4.350   2.002   7.549
 3698WAT     H111336   4.385   1.983   7.457
 3698WAT     H211337   4.383   1.932   7.612
 3699WAT      O11338   8.463   7.415   1.248
 3699WAT     H111339   8.406   7.333   1.241
 3699WAT     H211340   8.445   7.474   1.170
 3700WAT      O11341   7.132   0.560   0.150
 3700WAT     H111342   7.211   0.505   0.175
 3700WAT     H211343   7.125   0.639   0.212
 3701WAT      O11344   7.078   1.323   9.597
 3701WAT     H111345   7.017   1.384   9.546
 3701WAT     H211346   7.035   1.299   9.685
 3702WAT      O11347   1.681   7.216   5.553
 3702WAT     H111348   1.671   7.250   5.646
 3702WAT     H211349   1.765   7.162   5.546
 3703WAT      O11350   0.492   6.502   0.787
 3703WAT     H111351   0.397   6.473   0.781
 3703WAT     H211352   0.496   6.598   0.816
 3704WAT      O11353   4.801   5.799   5.218
 3704WAT     H111354   4.713   5.833   5.185
 3704WAT     H211355   4.840   5.738   5.149
 3705WAT      O11356   6.067   5.251   2.289
 3705WAT     H111357   6.063   5.267   2.191
 3705WAT     H211358   6.148   5.296   2.327
 3706WAT      O11359   6.417   8.240   3.477
 3706WAT     H111360   6.426   8.146   3.508
 3706WAT     H211361   6.503   8.272   3.438
 3707WAT      O11362   6.989   2.722   1.514
 3707WAT     H111363   7.080   2.724   1.471
 3707WAT     H211364   6.927   2.667   1.458
 3708WAT      O11365   6.450   7.931   9.500
 3708WAT     H111366   6.385   7.858   9.479
 3708WAT     H211367   6.543   7.899   9.485
 3709WAT      O11368   1.376   0.696   8.846
 3709WAT     H111369   1.424   0.613   8.877
 3709WAT     H211370   1.334   0.679   8.757
 3710WAT      O11371   6.542   4.786   9.002
 3710WAT     H111372   6.555   4.858   9.070
 3710WAT     H211373   6.472   4.814   8.937
 3711WAT      O11374   8.643   3.392   9.361
 3711WAT     H111375   8.678   3.486   9.356
 3711WAT     H211376   8.641   3.353   9.269
 3712WAT      O11377   5.263   4.293   7.972
 3712WAT     H111378   5.167   4.266   7.977
 3712WAT     H211379   5.298   4.272   7.881
 3713WAT      O11380   0.369   4.252   0.121
 3713WAT     H111381   0.468   4.267   0.123
 3713WAT     H211382   0.349   4.162   0.158
 3714WAT      O11383   9.811   5.884   4.884
 3714WAT     H111384   9.757   5.882   4.969
 3714WAT     H211385   9.864   5.800   4.876
 3715WAT      O11386   8.189   2.424   1.791
 3715WAT     H111387   8.243   2.465   1.865
 3715WAT     H211388   8.145   2.496   1.738
 3716WAT      O11389   0.010   7.230   4.233
 3716WAT     H111390   0.101   7.246   4.270
 3716WAT     H211391  -0.058   7.242   4.306
 3717WAT      O11392   4.407   6.632   7.939
 3717WAT     H111393   4.403   6.534   7.920
 3717WAT     H211394   4.475   6.675   7.879
 3718WAT      O11395   1.152   5.539   3.662
 3718WAT     H111396   1.215   5.611   3.633
 3718WAT     H211397   1.079   5.529   3.594
 3719WAT      O11398   8.151   0.156   6.660
 3719WAT     H111399   8.102   0.079   6.619
 3719WAT     H211400   8.170   0.225   6.590
 3720WAT      O11401   2.003   3.943   7.719
 3720WAT     H111402   1.904   3.952   7.731
 3720WAT     H211403   2.050   4.004   7.782
 3721WAT      O11404   4.608   2.373   4.781
 3721WAT     H111405   4.635   2.451   4.836
 3721WAT     H211406   4.683   2.307   4.777
 3722WAT      O11407   1.178   4.556   1.121
 3722WAT     H111408   1.215   4.632   1.173
 3722WAT     H211409   1.086   4.578   1.088
 3723WAT      O11410   9.181   9.380   1.173
 3723WAT     H111411   9.090   9.341   1.186
 3723WAT     H211412   9.190   9.414   1.080
 3724WAT      O11413   6.215   1.139   7.764
 3724WAT     H111414   6.180   1.231   7.783
 3724WAT     H211415   6.311   1.145   7.736
 3725WAT      O11416   0.150   8.066   2.095
 3725WAT     H111417   0.144   8.154   2.048
 3725WAT     H211418   0.105   7.995   2.041
 3726WAT      O11419   8.430   3.956   3.301
 3726WAT     H111420   8.528   3.934   3.294
 3726WAT     H211421   8.413   4.002   3.388
 3727WAT      O11422   5.136   9.647   8.584
 3727WAT     H111423   5.048   9.606   8.606
 3727WAT     H211424   5.157   9.632   8.487
 3728WAT      O11425   8.753   4.519   7.489
 3728WAT     H111426   8.849   4.540   7.509
 3728WAT     H211427   8.698   4.601   7.501
 3729WAT      O11428   0.439   5.171   4.060
 3729WAT     H111429   0.372   5.214   4.121
 3729WAT     H211430   0.527   5.165   4.106
 3730WAT      O11431   7.369   0.304   5.401
 3730WAT     H111432   7.383   0.247   5.320
 3730WAT     H211433   7.427   0.384   5.396
 3731WAT      O11434   9.868   4.200   5.493
 3731WAT     H111435   9.939   4.162   5.435
 3731WAT     H211436   9.909   4.239   5.575
 3732WAT      O11437   1.758   7.130   4.618
 3732WAT     H111438   1.674   7.183   4.617
 3732WAT     H211439   1.814   7.158   4.697
 3733WAT      O11440   8.438   8.620   8.696
 3733WAT     H111441   8.435   8.689   8.768
 3733WAT     H211442   8.529   8.617   8.656
 3734WAT      O11443   2.860   1.926   1.821
 3734WAT     H111444   2.875   2.024   1.814
 3734WAT     H211445   2.827   1.890   1.734
 3735WAT      O11446   5.758   3.552   3.163
 3735WAT     H111447   5.824   3.607   3.215
 3735WAT     H211448   5.767   3.456   3.189
 3736WAT      O11449   7.630   6.987   5.864
 3736WAT     H111450   7.653   7.085   5.857
 3736WAT     H211451   7.685   6.936   5.797
 3737WAT      O11452   8.956   5.464   4.414
 3737WAT     H111453   8.917   5.374   4.435
 3737WAT     H211454   8.958   5.477   4.315
 3738WAT      O11455   5.259   7.586   6.605
 3738WAT     H111456   5.230   7.649   6.534
 3738WAT     H211457   5.256   7.632   6.694
 3739WAT      O11458   1.338   7.903   7.673
 3739WAT     H111459   1.432   7.876   7.692
 3739WAT     H211460   1.278   7.823   7.676
 3740WAT      O11461   9.094   1.286   7.637
 3740WAT     H111462   9.021   1.269   7.571
 3740WAT     H211463   9.143   1.200   7.655
 3741WAT      O11464   2.143   6.185   8.098
 3741WAT     H111465   2.239   6.159   8.089
 3741WAT     H211466   2.091   6.147   8.021
 3742WAT      O11467   7.525   9.567   1.400
 3742WAT     H111468   7.483   9.516   1.324
 3742WAT     H211469   7.503   9.522   1.486
 3743WAT      O11470   9.798   3.350   3.100
 3743WAT     H111471   9.733   3.380   3.169
 3743WAT     H211472   9.881   3.405   3.106
 3744WAT      O11473   6.288   1.660   0.338
 3744WAT     H111474   6.388   1.660   0.340
 3744WAT     H211475   6.254   1.715   0.414
 3745WAT      O11476   6.865   1.216   3.875
 3745WAT     H111477   6.827   1.309   3.875
 3745WAT     H211478   6.823   1.164   3.800
 3746WAT      O11479   3.353   1.929   8.764
 3746WAT     H111480   3.258   1.903   8.743
 3746WAT     H211481   3.361   1.953   8.861
 3747WAT      O11482   7.539   2.263   4.794
 3747WAT     H111483   7.441   2.266   4.811
 3747WAT     H211484   7.588   2.261   4.881
 3748WAT      O11485   3.757   1.395   8.228
 3748WAT     H111486   3.731   1.465   8.295
 3748WAT     H211487   3.814   1.437   8.157
 3749WAT      O11488   0.583   8.379   8.796
 3749WAT     H111489   0.486   8.362   8.814
 3749WAT     H211490   0.602   8.367   8.698
 3750WAT      O11491   6.458   2.833   7.193
 3750WAT     H111492   6.454   2.886   7.277
 3750WAT     H211493   6.440   2.892   7.114
 3751WAT      O11494   7.486   1.739   4.615
 3751WAT     H111495   7.570   1.686   4.602
 3751WAT     H211496   7.505   1.820   4.670
 3752WAT      O11497   4.350   3.735   9.299
 3752WAT     H111498   4.353   3.733   9.398
 3752WAT     H211499   4.443   3.738   9.263
 3753WAT      O11500   9.109   7.904   7.303
 3753WAT     H111501   9.105   8.002   7.320
 3753WAT     H211502   9.034   7.877   7.242
 3754WAT      O11503   7.472   7.488   4.992
 3754WAT     H111504   7.519   7.405   5.023
 3754WAT     H211505   7.465   7.552   5.068
 3755WAT      O11506   7.365   7.649   8.358
 3755WAT     H111507   7.453   7.696   8.348
 3755WAT     H211508   7.367   7.565   8.304
 3756WAT      O11509   0.812   6.460   5.757
 3756WAT     H111510   0.780   6.538   5.810
 3756WAT     H211511   0.909   6.473   5.733
 3757WAT      O11512   6.827   6.140   4.525
 3757WAT     H111513   6.887   6.117   4.602
 3757WAT     H211514   6.733   6.112   4.547
 3758WAT      O11515   6.502   0.243   2.955
 3758WAT     H111516   6.412   0.270   2.919
 3758WAT     H211517   6.572   0.260   2.886
 3759WAT      O11518   0.722   5.905   2.180
 3759WAT     H111519   0.709   5.945   2.271
 3759WAT     H211520   0.748   5.809   2.190
 3760WAT      O11521   7.250   1.163   4.581
 3760WAT     H111522   7.322   1.139   4.646
 3760WAT     H211523   7.168   1.192   4.631
 3761WAT      O11524   4.507   5.802   9.827
 3761WAT     H111525   4.452   5.722   9.801
 3761WAT     H211526   4.596   5.771   9.861
 3762WAT      O11527   6.672   0.167   5.384
 3762WAT     H111528   6.619   0.242   5.425
 3762WAT     H211529   6.770   0.183   5.399
 3763WAT      O11530   8.549   4.231   7.858
 3763WAT     H111531   8.625   4.243   7.795
 3763WAT     H211532   8.517   4.136   7.854
 3764WAT      O11533   5.654   8.470   2.817
 3764WAT     H111534   5.622   8.494   2.909
 3764WAT     H211535   5.742   8.514   2.800
 3765WAT      O11536   0.027   4.617   4.671
 3765WAT     H111537   0.112   4.591   4.626
 3765WAT     H211538  -0.036   4.540   4.671
 3766WAT      O11539   3.079   8.904   6.156
 3766WAT     H111540   3.007   8.962   6.118
 3766WAT     H211541   3.052   8.808   6.151
 3767WAT      O11542   0.056   0.071   8.887
 3767WAT     H111543   0.140   0.122   8.906
 3767WAT     H211544   0.039   0.006   8.962
 3768WAT      O11545   1.194   7.348   3.352
 3768WAT     H111546   1.143   7.415   3.298
 3768WAT     H211547   1.290   7.374   3.357
 3769WAT      O11548   1.446   3.542   3.868
 3769WAT     H111549   1.542   3.514   3.867
 3769WAT     H211550   1.418   3.563   3.962
 3770WAT      O11551   8.115   2.207   7.322
 3770WAT     H111552   8.073   2.291   7.356
 3770WAT     H211553   8.089   2.194   7.226
 3771WAT      O11554   7.331   2.613   6.859
 3771WAT     H111555   7.408   2.677   6.853
 3771WAT     H211556   7.351   2.545   6.929
 3772WAT      O11557   9.483   6.672   5.756
 3772WAT     H111558   9.464   6.575   5.745
 3772WAT     H211559   9.533   6.706   5.677
 3773WAT      O11560   9.673   3.670   7.902
 3773WAT     H111561   9.718   3.753   7.935
 3773WAT     H211562   9.589   3.654   7.954
 3774WAT      O11563   8.556   8.394   2.003
 3774WAT     H111564   8.460   8.373   2.022
 3774WAT     H211565   8.612   8.313   2.018
 3775WAT      O11566   2.936   9.299   6.255
 3775WAT     H111567   2.961   9.383   6.303
 3775WAT     H211568   2.925   9.225   6.322
 3776WAT      O11569   2.486   3.542   4.182
 3776WAT     H111570   2.532   3.486   4.251
 3776WAT     H211571   2.481   3.636   4.215
 3777WAT      O11572   1.334   0.177   3.176
 3777WAT     H111573   1.332   0.181   3.276
 3777WAT     H211574   1.338   0.082   3.146
 3778WAT      O11575   8.820   5.170   3.366
 3778WAT     H111576   8.770   5.102   3.313
 3778WAT     H211577   8.757   5.240   3.399
 3779WAT      O11578   1.907   5.005   2.844
 3779WAT     H111579   1.901   5.023   2.746
 3779WAT     H211580   1.841   4.934   2.869
 3780WAT      O11581   5.350   9.486   9.516
 3780WAT     H111582   5.435   9.448   9.479
 3780WAT     H211583   5.368   9.577   9.553
 3781WAT      O11584   1.544   9.111   2.367
 3781WAT     H111585   1.542   9.195   2.314
 3781WAT     H211586   1.635   9.098   2.406
 3782WAT      O11587   9.703   2.749   8.302
 3782WAT     H111588   9.791   2.709   8.331
 3782WAT     H211589   9.632   2.721   8.367
 3783WAT      O11590   8.914   5.079   0.110
 3783WAT     H111591   9.003   5.070   0.156
 3783WAT     H211592   8.841   5.056   0.174
 3784WAT      O11593   6.167   3.856   9.798
 3784WAT     H111594   6.107   3.934   9.781
 3784WAT     H211595   6.141   3.812   9.884
 3785WAT      O11596   1.624   6.353   1.170
 3785WAT     H111597   1.585   6.368   1.079
 3785WAT     H211598   1.582   6.417   1.234
 3786WAT      O11599   2.818   5.747   3.989
 3786WAT     H111600   2.776   5.808   4.055
 3786WAT     H211601   2.870   5.676   4.037
 3787WAT      O11602   2.220   5.817   0.381
 3787WAT     H111603   2.305   5.768   0.398
 3787WAT     H211604   2.233   5.882   0.306
 3788WAT      O11605   3.115   3.130   9.461
 3788WAT     H111606   3.124   3.077   9.376
 3788WAT     H211607   3.103   3.226   9.440
 3789WAT      O11608   7.705   6.839   2.305
 3789WAT     H111609   7.775   6.837   2.375
 3789WAT     H211610   7.615   6.823   2.346
 3790WAT      O11611   1.546   4.995   4.709
 3790WAT     H111612   1.488   4.942   4.771
 3790WAT     H211613   1.495   5.075   4.677
 3791WAT      O11614   2.859   2.522   0.704
 3791WAT     H111615   2.835   2.466   0.625
 3791WAT     H211616   2.878   2.462   0.782
 3792WAT      O11617   2.303   5.468   6.836
 3792WAT     H111618   2.277   5.562   6.813
 3792WAT     H211619   2.287   5.409   6.758
 3793WAT      O11620   9.620   5.401   2.888
 3793WAT     H111621   9.564   5.481   2.869
 3793WAT     H211622   9.649   5.360   2.802
 3794WAT      O11623   1.565   2.139   5.081
 3794WAT     H111624   1.485   2.099   5.037
 3794WAT     H211625   1.542   2.230   5.116
 3795WAT      O11626   5.604   7.597   7.988
 3795WAT     H111627   5.611   7.669   7.920
 3795WAT     H211628   5.664   7.521   7.962
 3796WAT      O11629   0.553   5.500   9.879
 3796WAT     H111630   0.508   5.437   9.943
 3796WAT     H211631   0.544   5.466   9.786
 3797WAT      O11632   7.797   0.403   1.186
 3797WAT     H111633   7.782   0.469   1.113
 3797WAT     H211634   7.737   0.323   1.172
 3798WAT      O11635   5.995   3.932   7.931
 3798WAT     H111636   5.972   3.950   7.836
 3798WAT     H211637   6.094   3.940   7.943
 3799WAT      O11638   3.934   9.611   4.030
 3799WAT     H111639   3.881   9.537   3.989
 3799WAT     H211640   3.885   9.698   4.017
 3800WAT      O11641   6.196   3.545   0.532
 3800WAT     H111642   6.219   3.639   0.558
 3800WAT     H211643   6.099   3.528   0.551
 3801WAT      O11644   1.761   4.496   0.460
 3801WAT     H111645   1.827   4.486   0.385
 3801WAT     H211646   1.810   4.498   0.547
 3802WAT      O11647   0.717   6.190   9.568
 3802WAT     H111648   0.816   6.189   9.552
 3802WAT     H211649   0.689   6.284   9.590
 3803WAT      O11650   5.370   9.337   8.443
 3803WAT     H111651   5.331   9.250   8.415
 3803WAT     H211652   5.467   9.339   8.422
 3804WAT      O11653   2.603   0.062   4.387
 3804WAT     H111654   2.591   0.050   4.288
 3804WAT     H211655   2.592  -0.026   4.433
 3805WAT      O11656   3.891   6.448   6.587
 3805WAT     H111657   3.814   6.415   6.641
 3805WAT     H211658   3.970   6.389   6.601
 3806WAT      O11659   8.842   6.869   6.472
 3806WAT     H111660   8.766   6.892   6.411
 3806WAT     H211661   8.926   6.860   6.419
 3807WAT      O11662   3.375   8.702   0.101
 3807WAT     H111663   3.433   8.750   0.035
 3807WAT     H211664   3.335   8.621   0.057
 3808WAT      O11665   2.406   6.045   9.774
 3808WAT     H111666   2.478   6.032   9.842
 3808WAT     H211667   2.381   6.142   9.770
 3809WAT      O11668   4.070   9.471   9.005
 3809WAT     H111669   4.031   9.539   9.066
 3809WAT     H211670   4.088   9.512   8.916
 3810WAT      O11671   2.829   6.898   8.068
 3810WAT     H111672   2.868   6.986   8.094
 3810WAT     H211673   2.901   6.828   8.069
 3811WAT      O11674   9.253   4.523   8.520
 3811WAT     H111675   9.188   4.468   8.468
 3811WAT     H211676   9.228   4.620   8.513
 3812WAT      O11677   8.864   0.502   5.815
 3812WAT     H111678   8.960   0.520   5.835
 3812WAT     H211679   8.817   0.588   5.794
 3813WAT      O11680   5.613   4.188   2.034
 3813WAT     H111681   5.693   4.234   1.995
 3813WAT     H211682   5.570   4.131   1.963
 3814WAT      O11683   6.463   1.041   2.170
 3814WAT     H111684   6.462   0.980   2.091
 3814WAT     H211685   6.432   0.991   2.251
 3815WAT      O11686   7.703   3.415   8.164
 3815WAT     H111687   7.632   3.391   8.097
 3815WAT     H211688   7.723   3.513   8.156
 3816WAT      O11689   0.714   5.279   5.308
 3816WAT     H111690   0.692   5.361   5.362
 3816WAT     H211691   0.702   5.300   5.211
 3817WAT      O11692   3.745   2.868   0.748
 3817WAT     H111693   3.664   2.827   0.707
 3817WAT     H211694   3.717   2.945   0.806
 3818WAT      O11695   6.603   7.192   1.460
 3818WAT     H111696   6.586   7.094   1.446
 3818WAT     H211697   6.672   7.204   1.531
 3819WAT      O11698   5.083   3.754   9.357
 3819WAT     H111699   5.035   3.678   9.314
 3819WAT     H211700   5.048   3.840   9.321
 3820WAT      O11701   8.400   2.178   7.406
 3820WAT     H111702   8.302   2.189   7.391
 3820WAT     H211703   8.425   2.083   7.391
 3821WAT      O11704   1.568   9.822   9.807
 3821WAT     H111705   1.612   9.812   9.717
 3821WAT     H211706   1.636   9.807   9.879
 3822WAT      O11707   8.880   4.570   3.269
 3822WAT     H111708   8.838   4.630   3.337
 3822WAT     H211709   8.974   4.550   3.297
 3823WAT      O11710   5.128   0.627   7.630
 3823WAT     H111711   5.159   0.572   7.553
 3823WAT     H211712   5.028   0.622   7.638
 3824WAT      O11713   8.631   6.886   6.266
 3824WAT     H111714   8.640   6.842   6.177
 3824WAT     H211715   8.535   6.885   6.294
 3825WAT      O11716   1.827   3.108   1.425
 3825WAT     H111717   1.768   3.092   1.505
 3825WAT     H211718   1.877   3.194   1.437
 3826WAT      O11719   5.949   0.969   9.072
 3826WAT     H111720   5.989   1.032   9.006
 3826WAT     H211721   5.944   1.013   9.162
 3827WAT      O11722   0.619   8.037   4.107
 3827WAT     H111723   0.591   8.130   4.130
 3827WAT     H211724   0.574   8.009   4.022
 3828WAT      O11725   0.740   4.539   8.971
 3828WAT     H111726   0.654   4.510   9.015
 3828WAT     H211727   0.813   4.538   9.039
 3829WAT      O11728   9.455   9.644   2.443
 3829WAT     H111729   9.404   9.583   2.381
 3829WAT     H211730   9.455   9.737   2.407
 3830WAT      O11731   9.338   1.944   6.039
 3830WAT     H111732   9.346   1.848   6.064
 3830WAT     H211733   9.325   1.999   6.121
 3831WAT      O11734   2.035   5.188   4.593
 3831WAT     H111735   2.060   5.277   4.554
 3831WAT     H211736   2.084   5.116   4.544
 3832WAT      O11737   1.769   6.515   2.601
 3832WAT     H111738   1.800   6.446   2.666
 3832WAT     H211739   1.842   6.581   2.585
 3833WAT      O11740   9.349   9.045   3.261
 3833WAT     H111741   9.319   9.106   3.334
 3833WAT     H211742   9.447   9.054   3.247
 3834WAT      O11743   2.672   6.534   5.841
 3834WAT     H111744   2.690   6.565   5.747
 3834WAT     H211745   2.700   6.606   5.905
 3835WAT      O11746   9.571   0.940   7.829
 3835WAT     H111747   9.646   0.933   7.763
 3835WAT     H211748   9.488   0.970   7.781
 3836WAT      O11749   7.134   6.402   1.869
 3836WAT     H111750   7.122   6.318   1.817
 3836WAT     H211751   7.057   6.464   1.852
 3837WAT      O11752   1.288   8.848   5.427
 3837WAT     H111753   1.278   8.808   5.335
 3837WAT     H211754   1.222   8.804   5.488
 3838WAT      O11755   5.016   8.008   6.814
 3838WAT     H111756   4.947   7.987   6.883
 3838WAT     H211757   5.087   8.066   6.855
 3839WAT      O11758   5.787   1.624   3.734
 3839WAT     H111759   5.826   1.711   3.703
 3839WAT     H211760   5.723   1.641   3.809
 3840WAT      O11761   3.285   3.664   6.071
 3840WAT     H111762   3.367   3.713   6.099
 3840WAT     H211763   3.204   3.714   6.101
 3841WAT      O11764   9.265   7.559   8.493
 3841WAT     H111765   9.303   7.476   8.452
 3841WAT     H211766   9.260   7.631   8.424
 3842WAT      O11767   5.919   1.466   1.475
 3842WAT     H111768   5.990   1.537   1.481
 3842WAT     H211769   5.920   1.411   1.559
 3843WAT      O11770   8.320   1.043   1.394
 3843WAT     H111771   8.375   0.964   1.369
 3843WAT     H211772   8.316   1.107   1.317
 3844WAT      O11773   3.694   3.948   2.290
 3844WAT     H111774   3.704   4.036   2.335
 3844WAT     H211775   3.777   3.894   2.302
 3845WAT      O11776   3.602   4.537   6.534
 3845WAT     H111777   3.576   4.559   6.440
 3845WAT     H211778   3.630   4.441   6.539
 3846WAT      O11779   0.858   6.935   0.147
 3846WAT     H111780   0.803   6.977   0.075
 3846WAT     H211781   0.818   6.956   0.236
 3847WAT      O11782   4.588   7.086   5.890
 3847WAT     H111783   4.543   7.021   5.951
 3847WAT     H211784   4.671   7.043   5.852
 3848WAT      O11785   2.132   1.943   4.407
 3848WAT     H111786   2.197   1.916   4.336
 3848WAT     H211787   2.083   1.862   4.441
 3849WAT      O11788   5.167   4.731   7.893
 3849WAT     H111789   5.149   4.762   7.800
 3849WAT     H211790   5.083   4.732   7.946
 3850WAT      O11791   7.563   2.273   2.270
 3850WAT     H111792   7.616   2.217   2.206
 3850WAT     H211793   7.493   2.324   2.219
 3851WAT      O11794   5.322   5.511   0.646
 3851WAT     H111795   5.338   5.590   0.587
 3851WAT     H211796   5.370   5.431   0.610
 3852WAT      O11797   1.116   8.863   0.568
 3852WAT     H111798   1.039   8.925   0.586
 3852WAT     H211799   1.082   8.770   0.556
 3853WAT      O11800   5.729   1.505   7.466
 3853WAT     H111801   5.733   1.604   7.457
 3853WAT     H211802   5.633   1.477   7.475
 3854WAT      O11803   3.500   1.034   9.345
 3854WAT     H111804   3.412   1.001   9.378
 3854WAT     H211805   3.571   0.967   9.368
 3855WAT      O11806   6.763   8.726   5.799
 3855WAT     H111807   6.740   8.632   5.777
 3855WAT     H211808   6.800   8.732   5.892
 3856WAT      O11809   5.638   4.061   6.495
 3856WAT     H111810   5.590   4.131   6.442
 3856WAT     H211811   5.736   4.076   6.489
 3857WAT      O11812   8.198   0.718   6.933
 3857WAT     H111813   8.287   0.682   6.903
 3857WAT     H211814   8.164   0.784   6.867
 3858WAT      O11815   0.002   9.292   8.343
 3858WAT     H111816   0.060   9.229   8.394
 3858WAT     H211817   0.059   9.359   8.296
 3859WAT      O11818   0.576   6.622   8.648
 3859WAT     H111819   0.619   6.691   8.590
 3859WAT     H211820   0.629   6.612   8.732
 3860WAT      O11821   4.827   2.284   3.597
 3860WAT     H111822   4.895   2.342   3.641
 3860WAT     H211823   4.760   2.340   3.548
 3861WAT      O11824   6.611   9.311   4.507
 3861WAT     H111825   6.657   9.343   4.424
 3861WAT     H211826   6.638   9.367   4.584
 3862WAT      O11827   7.843   5.874   6.991
 3862WAT     H111828   7.857   5.897   6.895
 3862WAT     H211829   7.930   5.846   7.032
 3863WAT      O11830   4.496   0.807   7.956
 3863WAT     H111831   4.403   0.773   7.974
 3863WAT     H211832   4.561   0.755   8.012
 3864WAT      O11833   1.783   2.359   6.779
 3864WAT     H111834   1.866   2.305   6.797
 3864WAT     H211835   1.786   2.443   6.833
 3865WAT      O11836   5.474   1.696   2.849
 3865WAT     H111837   5.383   1.711   2.887
 3865WAT     H211838   5.536   1.768   2.880
 3866WAT      O11839   1.695   6.441   2.331
 3866WAT     H111840   1.742   6.463   2.416
 3866WAT     H211841   1.749   6.475   2.253
 3867WAT      O11842   7.268   8.617   5.614
 3867WAT     H111843   7.314   8.678   5.679
 3867WAT     H211844   7.178   8.654   5.592
 3868WAT      O11845   6.700   7.969   8.596
 3868WAT     H111846   6.790   8.003   8.568
 3868WAT     H211847   6.710   7.884   8.646
 3869WAT      O11848   6.562   0.982   1.232
 3869WAT     H111849   6.522   0.906   1.181
 3869WAT     H211850   6.581   0.954   1.326
 3870WAT      O11851   1.765   4.770   9.301
 3870WAT     H111852   1.801   4.721   9.221
 3870WAT     H211853   1.816   4.856   9.312
 3871WAT      O11854   2.900   2.701   9.423
 3871WAT     H111855   2.824   2.699   9.358
 3871WAT     H211856   2.983   2.667   9.378
 3872WAT      O11857   4.359   8.329   3.791
 3872WAT     H111858   4.278   8.374   3.828
 3872WAT     H211859   4.421   8.305   3.866
 3873WAT      O11860   6.913   2.614   8.541
 3873WAT     H111861   6.996   2.658   8.507
 3873WAT     H211862   6.921   2.600   8.640
 3874WAT      O11863   6.258   3.119   3.328
 3874WAT     H111864   6.295   3.162   3.410
 3874WAT     H211865   6.161   3.142   3.320
 3875WAT      O11866   9.501   6.091   3.748
 3875WAT     H111867   9.588   6.083   3.700
 3875WAT     H211868   9.428   6.113   3.684
 3876WAT      O11869   6.814   9.404   0.426
 3876WAT     H111870   6.758   9.485   0.444
 3876WAT     H211871   6.868   9.381   0.507
 3877WAT      O11872   5.673   9.223   5.905
 3877WAT     H111873   5.643   9.201   5.812
 3877WAT     H211874   5.597   9.263   5.955
 3878WAT      O11875   3.640   3.552   8.650
 3878WAT     H111876   3.559   3.493   8.662
 3878WAT     H211877   3.627   3.637   8.701
 3879WAT      O11878   6.723   8.275   3.012
 3879WAT     H111879   6.633   8.301   2.975
 3879WAT     H211880   6.726   8.176   3.025
 3880WAT      O11881   1.586   6.402   3.499
 3880WAT     H111882   1.591   6.477   3.433
 3880WAT     H211883   1.659   6.410   3.566
 3881WAT      O11884   4.904   0.618   4.417
 3881WAT     H111885   4.999   0.647   4.425
 3881WAT     H211886   4.895   0.525   4.453
 3882WAT      O11887   9.618   0.987   6.083
 3882WAT     H111888   9.709   1.015   6.114
 3882WAT     H211889   9.601   1.024   5.991
 3883WAT      O11890   9.575   8.989   3.913
 3883WAT     H111891   9.514   8.987   3.993
 3883WAT     H211892   9.596   8.895   3.886
 3884WAT      O11893   9.705   2.635   4.344
 3884WAT     H111894   9.805   2.640   4.343
 3884WAT     H211895   9.675   2.561   4.284
 3885WAT      O11896   7.933   6.049   8.536
 3885WAT     H111897   7.901   6.019   8.626
 3885WAT     H211898   7.860   6.034   8.469
 3886WAT      O11899   6.086   5.589   4.080
 3886WAT     H111900   5.991   5.604   4.053
 3886WAT     H211901   6.135   5.546   4.004
 3887WAT      O11902   0.752   2.439   0.742
 3887WAT     H111903   0.705   2.355   0.769
 3887WAT     H211904   0.835   2.416   0.690
 3888WAT      O11905   9.546   3.557   6.085
 3888WAT     H111906   9.617   3.588   6.022
 3888WAT     H211907   9.506   3.636   6.131
 3889WAT      O11908   9.685   5.520   8.400
 3889WAT     H111909   9.739   5.561   8.475
 3889WAT     H211910   9.640   5.592   8.348
 3890WAT      O11911   0.952   1.314   1.905
 3890WAT     H111912   0.998   1.346   1.822
 3890WAT     H211913   0.857   1.290   1.884
 3891WAT      O11914   7.071   4.844   1.802
 3891WAT     H111915   7.097   4.847   1.706
 3891WAT     H211916   7.115   4.766   1.846
 3892WAT      O11917   4.890   3.907   7.826
 3892WAT     H111918   4.847   3.826   7.786
 3892WAT     H211919   4.822   3.960   7.876
 3893WAT      O11920   2.488   9.259   9.302
 3893WAT     H111921   2.547   9.309   9.364
 3893WAT     H211922   2.447   9.181   9.349
 3894WAT      O11923   1.062   6.246   7.672
 3894WAT     H111924   1.108   6.217   7.756
 3894WAT     H211925   1.121   6.229   7.593
 3895WAT      O11926   8.401   3.483   8.247
 3895WAT     H111927   8.399   3.487   8.147
 3895WAT     H211928   8.493   3.502   8.280
 3896WAT      O11929   5.890   0.536   0.718
 3896WAT     H111930   5.816   0.584   0.672
 3896WAT     H211931   5.855   0.452   0.759
 3897WAT      O11932   4.207   7.517   5.621
 3897WAT     H111933   4.278   7.453   5.592
 3897WAT     H211934   4.118   7.486   5.587
 3898WAT      O11935   7.987   9.724   7.592
 3898WAT     H111936   7.981   9.658   7.517
 3898WAT     H211937   8.077   9.717   7.635
 3899WAT      O11938   3.954   7.133   3.722
 3899WAT     H111939   3.866   7.094   3.748
 3899WAT     H211940   4.007   7.065   3.671
 3900WAT      O11941   6.258   1.736   5.884
 3900WAT     H111942   6.247   1.638   5.872
 3900WAT     H211943   6.275   1.780   5.796
 3901WAT      O11944   7.323   3.614   3.642
 3901WAT     H111945   7.390   3.683   3.615
 3901WAT     H211946   7.230   3.650   3.626
 3902WAT      O11947   2.776   2.018   4.113
 3902WAT     H111948   2.693   2.074   4.114
 3902WAT     H211949   2.857   2.077   4.108
 3903WAT      O11950   8.909   3.010   5.440
 3903WAT     H111951   8.873   2.922   5.471
 3903WAT     H211952   8.889   3.080   5.509
 3904WAT      O11953   8.005   3.486   1.403
 3904WAT     H111954   8.001   3.507   1.501
 3904WAT     H211955   7.988   3.389   1.389
 3905WAT      O11956   3.613   9.259   8.375
 3905WAT     H111957   3.656   9.348   8.362
 3905WAT     H211958   3.601   9.241   8.472
 3906WAT      O11959   5.000   0.516   6.817
 3906WAT     H111960   5.099   0.518   6.802
 3906WAT     H211961   4.981   0.503   6.915
 3907WAT      O11962   7.374   2.423   7.082
 3907WAT     H111963   7.351   2.432   7.179
 3907WAT     H211964   7.336   2.338   7.047
 3908WAT      O11965   9.778   0.463   3.799
 3908WAT     H111966   9.768   0.453   3.898
 3908WAT     H211967   9.869   0.501   3.779
 3909WAT      O11968   3.790   9.208   0.462
 3909WAT     H111969   3.845   9.174   0.539
 3909WAT     H211970   3.777   9.134   0.396
 3910WAT      O11971   6.998   1.836   4.539
 3910WAT     H111972   7.073   1.902   4.542
 3910WAT     H211973   6.924   1.873   4.483
 3911WAT      O11974   1.797   0.809   4.112
 3911WAT     H111975   1.830   0.876   4.178
 3911WAT     H211976   1.733   0.747   4.157
 3912WAT      O11977   5.725   3.463   8.158
 3912WAT     H111978   5.680   3.401   8.223
 3912WAT     H211979   5.701   3.437   8.065
 3913WAT      O11980   3.249   5.483   1.286
 3913WAT     H111981   3.322   5.457   1.348
 3913WAT     H211982   3.211   5.571   1.314
 3914WAT      O11983   4.841   4.606   3.044
 3914WAT     H111984   4.774   4.558   2.987
 3914WAT     H211985   4.907   4.653   2.986
 3915WAT      O11986   8.638   5.008   1.719
 3915WAT     H111987   8.724   4.969   1.753
 3915WAT     H211988   8.606   5.077   1.784
 3916WAT      O11989   9.196   5.433   9.656
 3916WAT     H111990   9.292   5.415   9.633
 3916WAT     H211991   9.191   5.516   9.711
 3917WAT      O11992   6.822   3.480   9.855
 3917WAT     H111993   6.742   3.434   9.818
 3917WAT     H211994   6.899   3.469   9.792
 3918WAT      O11995   9.712   4.551   6.280
 3918WAT     H111996   9.769   4.494   6.221
 3918WAT     H211997   9.724   4.523   6.375
 3919WAT      O11998   9.722   6.531   6.000
 3919WAT     H111999   9.820   6.525   5.982
 3919WAT     H212000   9.676   6.450   5.963
 3920WAT      O12001   5.174   9.833   9.765
 3920WAT     H112002   5.228   9.898   9.820
 3920WAT     H212003   5.096   9.881   9.726
 3921WAT      O12004   2.866   9.637   1.512
 3921WAT     H112005   2.919   9.596   1.586
 3921WAT     H212006   2.903   9.608   1.424
 3922WAT      O12007   1.005   9.730   2.577
 3922WAT     H112008   1.052   9.814   2.551
 3922WAT     H212009   1.003   9.667   2.500
 3923WAT      O12010   2.720   0.917   9.434
 3923WAT     H112011   2.678   0.942   9.520
 3923WAT     H212012   2.685   0.975   9.361
 3924WAT      O12013   3.051   5.893   2.720
 3924WAT     H112014   3.064   5.875   2.622
 3924WAT     H212015   3.021   5.988   2.732
 3925WAT      O12016   2.841   4.497   6.933
 3925WAT     H112017   2.861   4.522   7.028
 3925WAT     H212018   2.902   4.548   6.872
 3926WAT      O12019   7.487   2.479   3.716
 3926WAT     H112020   7.547   2.525   3.781
 3926WAT     H212021   7.437   2.547   3.663
 3927WAT      O12022   6.378   8.867   8.655
 3927WAT     H112023   6.421   8.839   8.569
 3927WAT     H212024   6.440   8.927   8.705
 3928WAT      O12025   1.114   9.555   3.595
 3928WAT     H112026   1.169   9.622   3.645
 3928WAT     H212027   1.168   9.518   3.518
 3929WAT      O12028   0.706   4.143   2.522
 3929WAT     H112029   0.752   4.170   2.607
 3929WAT     H212030   0.658   4.223   2.483
 3930WAT      O12031   1.701   1.957   2.642
 3930WAT     H112032   1.654   2.043   2.663
 3930WAT     H212033   1.795   1.976   2.613
 3931WAT      O12034   0.782   2.918   3.413
 3931WAT     H112035   0.792   2.832   3.462
 3931WAT     H212036   0.837   2.989   3.457
 3932WAT      O12037   7.381   1.662   8.205
 3932WAT     H112038   7.378   1.634   8.301
 3932WAT     H212039   7.419   1.588   8.150
 3933WAT      O12040   1.050   8.545   2.841
 3933WAT     H112041   1.009   8.498   2.763
 3933WAT     H212042   1.128   8.492   2.875
 3934WAT      O12043   9.807   3.104   2.127
 3934WAT     H112044   9.762   3.151   2.050
 3934WAT     H212045   9.738   3.079   2.195
 3935WAT      O12046   2.598   3.194   0.069
 3935WAT     H112047   2.667   3.122   0.067
 3935WAT     H212048   2.508   3.153   0.084
 3936WAT      O12049   1.738   0.164   8.478
 3936WAT     H112050   1.786   0.179   8.564
 3936WAT     H212051   1.785   0.213   8.404
 3937WAT      O12052   6.047   3.279   3.056
 3937WAT     H112053   6.043   3.362   3.112
 3937WAT     H212054   6.137   3.273   3.013
 3938WAT      O12055   4.232   3.130   3.074
 3938WAT     H112056   4.296   3.053   3.080
 3938WAT     H212057   4.206   3.144   2.979
 3939WAT      O12058   0.823   4.682   6.747
 3939WAT     H112059   0.903   4.661   6.691
 3939WAT     H212060   0.742   4.686   6.689
 3940WAT      O12061   7.552   1.945   6.375
 3940WAT     H112062   7.501   1.910   6.453
 3940WAT     H212063   7.587   1.869   6.320
 3941WAT      O12064   8.618   4.094   5.770
 3941WAT     H112065   8.620   4.161   5.695
 3941WAT     H212066   8.555   4.020   5.748
 3942WAT      O12067   2.061   5.562   7.647
 3942WAT     H112068   2.116   5.516   7.577
 3942WAT     H212069   2.072   5.661   7.638
 3943WAT      O12070   7.565   2.672   8.680
 3943WAT     H112071   7.663   2.677   8.697
 3943WAT     H212072   7.515   2.697   8.763
 3944WAT      O12073   4.282   5.287   2.355
 3944WAT     H112074   4.305   5.285   2.452
 3944WAT     H212075   4.356   5.331   2.305
 3945WAT      O12076   2.320   1.783   2.615
 3945WAT     H112077   2.294   1.696   2.656
 3945WAT     H212078   2.258   1.805   2.540
 3946WAT      O12079   7.051   5.395   6.592
 3946WAT     H112080   6.959   5.358   6.597
 3946WAT     H212081   7.062   5.468   6.659
 3947WAT      O12082   0.831   0.970   7.294
 3947WAT     H112083   0.877   0.885   7.267
 3947WAT     H212084   0.817   1.027   7.213
 3948WAT      O12085   8.954   7.311   1.863
 3948WAT     H112086   8.986   7.368   1.939
 3948WAT     H212087   9.019   7.236   1.848
 3949WAT      O12088   6.507   1.563   6.804
 3949WAT     H112089   6.518   1.655   6.841
 3949WAT     H212090   6.424   1.521   6.840
 3950WAT      O12091   9.171   5.653   4.481
 3950WAT     H112092   9.078   5.618   4.481
 3950WAT     H212093   9.201   5.668   4.386
 3951WAT      O12094   5.490   0.363   3.658
 3951WAT     H112095   5.392   0.373   3.640
 3951WAT     H212096   5.506   0.365   3.757
 3952WAT      O12097   7.127   5.616   6.738
 3952WAT     H112098   7.079   5.696   6.703
 3952WAT     H212099   7.225   5.625   6.720
 3953WAT      O12100   1.587   3.911   5.640
 3953WAT     H112101   1.635   3.994   5.610
 3953WAT     H212102   1.654   3.841   5.666
 3954WAT      O12103   9.209   2.806   9.026
 3954WAT     H112104   9.169   2.797   9.117
 3954WAT     H212105   9.158   2.749   8.961
 3955WAT      O12106   1.565   6.630   7.570
 3955WAT     H112107   1.657   6.603   7.541
 3955WAT     H212108   1.538   6.713   7.521
 3956WAT      O12109   9.659   5.572   6.448
 3956WAT     H112110   9.621   5.606   6.363
 3956WAT     H212111   9.700   5.647   6.499
 3957WAT      O12112   5.461   7.525   8.413
 3957WAT     H112113   5.514   7.602   8.448
 3957WAT     H212114   5.523   7.457   8.373
 3958WAT      O12115   1.062   7.416   9.382
 3958WAT     H112116   1.039   7.408   9.479
 3958WAT     H212117   0.994   7.366   9.328
 3959WAT      O12118   6.544   7.456   4.329
 3959WAT     H112119   6.562   7.496   4.240
 3959WAT     H212120   6.528   7.528   4.396
 3960WAT      O12121   2.329   7.140   8.675
 3960WAT     H112122   2.334   7.203   8.598
 3960WAT     H212123   2.382   7.175   8.751
 3961WAT      O12124   0.069   3.692   7.553
 3961WAT     H112125   0.148   3.696   7.493
 3961WAT     H212126   0.082   3.620   7.621
 3962WAT      O12127   3.246   6.526   0.887
 3962WAT     H112128   3.234   6.578   0.972
 3962WAT     H212129   3.299   6.443   0.907
 3963WAT      O12130   1.682   4.688   5.904
 3963WAT     H112131   1.741   4.697   5.824
 3963WAT     H212132   1.728   4.726   5.984
 3964WAT      O12133   4.379   1.916   8.582
 3964WAT     H112134   4.363   1.946   8.676
 3964WAT     H212135   4.293   1.886   8.540
 3965WAT      O12136   2.212   7.994   7.886
 3965WAT     H112137   2.224   8.093   7.892
 3965WAT     H212138   2.202   7.967   7.791
 3966WAT      O12139   9.012   5.453   1.042
 3966WAT     H112140   9.010   5.382   1.112
 3966WAT     H212141   9.098   5.447   0.991
 3967WAT      O12142   9.153   6.555   0.921
 3967WAT     H112143   9.075   6.504   0.886
 3967WAT     H212144   9.131   6.590   1.013
 3968WAT      O12145   0.252   8.110   8.596
 3968WAT     H112146   0.269   8.200   8.635
 3968WAT     H212147   0.158   8.105   8.564
 3969WAT      O12148   4.507   4.514   3.349
 3969WAT     H112149   4.519   4.481   3.443
 3969WAT     H212150   4.471   4.607   3.350
 3970WAT      O12151   5.060   2.830   6.343
 3970WAT     H112152   5.055   2.736   6.376
 3970WAT     H212153   5.122   2.835   6.266
 3971WAT      O12154   3.514   0.558   6.252
 3971WAT     H112155   3.470   0.470   6.269
 3971WAT     H212156   3.450   0.619   6.206
 3972WAT      O12157   0.391   2.528   1.454
 3972WAT     H112158   0.339   2.467   1.396
 3972WAT     H212159   0.446   2.590   1.398
 3973WAT      O12160   1.741   7.325   3.373
 3973WAT     H112161   1.817   7.379   3.338
 3973WAT     H212162   1.654   7.371   3.353
 3974WAT      O12163   7.798   7.954   0.668
 3974WAT     H112164   7.741   8.019   0.717
 3974WAT     H212165   7.848   7.897   0.733
 3975WAT      O12166   3.484   5.482   5.607
 3975WAT     H112167   3.429   5.565   5.601
 3975WAT     H212168   3.519   5.472   5.700
 3976WAT      O12169   1.143   2.730   3.217
 3976WAT     H112170   1.202   2.759   3.291
 3976WAT     H212171   1.077   2.802   3.197
 3977WAT      O12172   0.772   6.461   2.955
 3977WAT     H112173   0.697   6.527   2.955
 3977WAT     H212174   0.828   6.474   3.037
 3978WAT      O12175   6.527   0.758   1.087
 3978WAT     H112176   6.453   0.691   1.090
 3978WAT     H212177   6.615   0.711   1.087
 3979WAT      O12178   7.133   5.009   0.978
 3979WAT     H112179   7.225   5.027   1.013
 3979WAT     H212180   7.065   5.029   1.049
 3980WAT      O12181   0.199   0.077   6.289
 3980WAT     H112182   0.296   0.061   6.270
 3980WAT     H212183   0.149  -0.009   6.287
 3981WAT      O12184   3.811   2.569   7.242
 3981WAT     H112185   3.739   2.558   7.310
 3981WAT     H212186   3.895   2.602   7.287
 3982WAT      O12187   1.100   9.724   3.976
 3982WAT     H112188   1.117   9.711   4.073
 3982WAT     H212189   1.009   9.763   3.962
 3983WAT      O12190   8.485   5.052   4.002
 3983WAT     H112191   8.569   5.097   4.033
 3983WAT     H212192   8.431   5.025   4.082
 3984WAT      O12193   4.856   8.898   3.627
 3984WAT     H112194   4.949   8.862   3.628
 3984WAT     H212195   4.824   8.909   3.721
 3985WAT      O12196   6.201   7.854   8.706
 3985WAT     H112197   6.277   7.843   8.770
 3985WAT     H212198   6.147   7.934   8.732
 3986WAT      O12199   5.479   9.146   4.864
 3986WAT     H112200   5.500   9.236   4.904
 3986WAT     H212201   5.381   9.140   4.845
 3987WAT      O12202   5.132   4.335   9.453
 3987WAT     H112203   5.183   4.292   9.379
 3987WAT     H212204   5.179   4.419   9.481
 3988WAT      O12205   7.467   5.949   2.414
 3988WAT     H112206   7.496   5.905   2.499
 3988WAT     H212207   7.442   5.880   2.347
 3989WAT      O12208   0.902   7.304   1.714
 3989WAT     H112209   0.908   7.388   1.766
 3989WAT     H212210   0.807   7.271   1.713
 3990WAT      O12211   3.581   4.042   9.078
 3990WAT     H112212   3.507   3.976   9.091
 3990WAT     H212213   3.559   4.102   9.002
 3991WAT      O12214   2.081   8.122   1.125
 3991WAT     H112215   2.096   8.055   1.052
 3991WAT     H212216   2.081   8.076   1.213
 3992WAT      O12217   8.742   4.860   6.949
 3992WAT     H112218   8.682   4.936   6.974
 3992WAT     H212219   8.799   4.886   6.871
 3993WAT      O12220   5.795   4.320   9.414
 3993WAT     H112221   5.828   4.269   9.335
 3993WAT     H212222   5.865   4.319   9.486
 3994WAT      O12223   7.045   6.995   2.078
 3994WAT     H112224   7.077   6.991   1.983
 3994WAT     H212225   7.046   7.091   2.109
 3995WAT      O12226   2.756   8.256   7.390
 3995WAT     H112227   2.821   8.183   7.369
 3995WAT     H212228   2.695   8.227   7.464
 3996WAT      O12229   3.230   5.456   2.489
 3996WAT     H112230   3.178   5.371   2.491
 3996WAT     H212231   3.328   5.436   2.491
 3997WAT      O12232   4.224   3.832   2.840
 3997WAT     H112233   4.273   3.772   2.778
 3997WAT     H212234   4.126   3.816   2.833
 3998WAT      O12235   0.897   1.658   8.924
 3998WAT     H112236   0.979   1.601   8.931
 3998WAT     H212237   0.827   1.608   8.873
 3999WAT      O12238   6.674   3.597   0.354
 3999WAT     H112239   6.664   3.555   0.264
 3999WAT     H212240   6.705   3.529   0.420
 4000WAT      O12241   1.804   6.674   0.935
 4000WAT     H112242   1.831   6.698   1.028
 4000WAT     H212243   1.733   6.737   0.904
 4001WAT      O12244   0.491   4.855   3.697
 4001WAT     H112245   0.465   4.915   3.773
 4001WAT     H212246   0.513   4.764   3.732
 4002WAT      O12247   4.827   9.762   4.907
 4002WAT     H112248   4.923   9.779   4.882
 4002WAT     H212249   4.775   9.846   4.897
 4003WAT      O12250   9.402   7.414   0.532
 4003WAT     H112251   9.436   7.334   0.483
 4003WAT     H212252   9.457   7.494   0.508
 4004WAT      O12253   7.040   6.849   6.998
 4004WAT     H112254   6.995   6.937   6.987
 4004WAT     H212255   6.977   6.784   7.042
 4005WAT      O12256   1.644   7.489   7.755
 4005WAT     H112257   1.673   7.488   7.659
 4005WAT     H212258   1.576   7.417   7.770
 4006WAT      O12259   3.131   4.890   7.696
 4006WAT     H112260   3.173   4.925   7.780
 4006WAT     H212261   3.052   4.946   7.673
 4007WAT      O12262   4.021   6.352   9.667
 4007WAT     H112263   3.984   6.427   9.613
 4007WAT     H212264   3.969   6.268   9.648
 4008WAT      O12265   4.970   2.312   5.943
 4008WAT     H112266   5.023   2.241   5.990
 4008WAT     H212267   4.916   2.362   6.010
 4009WAT      O12268   0.226   8.032   9.406
 4009WAT     H112269   0.275   8.105   9.359
 4009WAT     H212270   0.148   8.070   9.455
 4010WAT      O12271   4.857   6.638   3.131
 4010WAT     H112272   4.826   6.666   3.041
 4010WAT     H212273   4.889   6.543   3.128
 4011WAT      O12274   2.087   8.799   5.736
 4011WAT     H112275   2.008   8.828   5.683
 4011WAT     H212276   2.093   8.854   5.819
 4012WAT      O12277   5.873   9.831   3.520
 4012WAT     H112278   5.961   9.868   3.552
 4012WAT     H212279   5.887   9.739   3.485
 4013WAT      O12280   3.580   4.932   6.519
 4013WAT     H112281   3.633   4.906   6.438
 4013WAT     H212282   3.485   4.950   6.492
 4014WAT      O12283   6.798   1.997   3.041
 4014WAT     H112284   6.792   1.911   2.991
 4014WAT     H212285   6.730   2.061   3.006
 4015WAT      O12286   0.979   4.872   5.244
 4015WAT     H112287   1.061   4.823   5.216
 4015WAT     H212288   0.902   4.808   5.249
 4016WAT      O12289   0.575   1.688   7.890
 4016WAT     H112290   0.606   1.695   7.985
 4016WAT     H212291   0.497   1.625   7.886
 4017WAT      O12292   1.416   4.623   5.888
 4017WAT     H112293   1.398   4.680   5.968
 4017WAT     H212294   1.513   4.600   5.884
 4018WAT      O12295   1.074   8.191   3.134
 4018WAT     H112296   1.089   8.283   3.097
 4018WAT     H212297   1.156   8.136   3.119
 4019WAT      O12298   0.440   3.204   1.310
 4019WAT     H112299   0.442   3.297   1.348
 4019WAT     H212300   0.529   3.181   1.272
 4020WAT      O12301   5.717   5.355   5.087
 4020WAT     H112302   5.757   5.331   5.175
 4020WAT     H212303   5.644   5.422   5.100
 4021WAT      O12304   2.620   9.406   6.710
 4021WAT     H112305   2.668   9.322   6.735
 4021WAT     H212306   2.535   9.413   6.762
 4022WAT      O12307   9.307   7.648   4.159
 4022WAT     H112308   9.287   7.738   4.120
 4022WAT     H212309   9.396   7.616   4.126
 4023WAT      O12310   9.710   8.394   1.622
 4023WAT     H112311   9.733   8.488   1.646
 4023WAT     H212312   9.787   8.334   1.644
 4024WAT      O12313   0.997   8.307   9.654
 4024WAT     H112314   0.932   8.382   9.665
 4024WAT     H212315   1.000   8.280   9.558
 4025WAT      O12316   3.908   0.328   0.656
 4025WAT     H112317   3.914   0.347   0.558
 4025WAT     H212318   3.892   0.230   0.670
 4026WAT      O12319   7.279   8.686   7.506
 4026WAT     H112320   7.281   8.698   7.605
 4026WAT     H212321   7.311   8.770   7.461
 4027WAT      O12322   5.802   2.624   0.410
 4027WAT     H112323   5.875   2.581   0.356
 4027WAT     H212324   5.842   2.681   0.481
 4028WAT      O12325   8.192   8.750   8.944
 4028WAT     H112326   8.221   8.776   9.036
 4028WAT     H212327   8.163   8.654   8.945
 4029WAT      O12328   0.139   2.159   3.867
 4029WAT     H112329   0.113   2.222   3.794
 4029WAT     H212330   0.057   2.117   3.905
 4030WAT      O12331   1.884   5.602   0.912
 4030WAT     H112332   1.970   5.551   0.911
 4030WAT     H212333   1.816   5.552   0.965
 4031WAT      O12334   1.967   4.366   8.287
 4031WAT     H112335   2.036   4.437   8.280
 4031WAT     H212336   2.011   4.276   8.289
 4032WAT      O12337   2.415   8.907   6.048
 4032WAT     H112338   2.375   8.898   5.956
 4032WAT     H212339   2.342   8.905   6.116
 4033WAT      O12340   3.212   5.981   2.507
 4033WAT     H112341   3.149   6.054   2.482
 4033WAT     H212342   3.262   5.951   2.426
 4034WAT      O12343   5.803   8.929   1.383
 4034WAT     H112344   5.746   8.874   1.444
 4034WAT     H212345   5.806   8.887   1.292
 4035WAT      O12346   6.601   4.608   1.138
 4035WAT     H112347   6.698   4.588   1.151
 4035WAT     H212348   6.562   4.542   1.075
 4036WAT      O12349   2.572   7.812   9.019
 4036WAT     H112350   2.633   7.749   9.068
 4036WAT     H212351   2.558   7.779   8.926
 4037WAT      O12352   6.564   0.942   6.485
 4037WAT     H112353   6.571   0.925   6.583
 4037WAT     H212354   6.545   0.857   6.437
 4038WAT      O12355   5.154   5.714   0.042
 4038WAT     H112356   5.253   5.723   0.033
 4038WAT     H212357   5.113   5.705  -0.049
 4039WAT      O12358   7.378   2.332   7.777
 4039WAT     H112359   7.432   2.277   7.841
 4039WAT     H212360   7.440   2.380   7.715
 4040WAT      O12361   5.965   4.101   6.452
 4040WAT     H112362   6.006   4.126   6.364
 4040WAT     H212363   6.021   4.138   6.526
 4041WAT      O12364   7.215   7.882   5.405
 4041WAT     H112365   7.220   7.798   5.351
 4041WAT     H212366   7.254   7.958   5.353
 4042WAT      O12367   8.624   4.216   4.761
 4042WAT     H112368   8.636   4.275   4.841
 4042WAT     H212369   8.526   4.198   4.748
 4043WAT      O12370   8.346   3.754   3.966
 4043WAT     H112371   8.428   3.807   3.989
 4043WAT     H212372   8.279   3.813   3.922
 4044WAT      O12373   9.396   1.416   7.818
 4044WAT     H112374   9.395   1.426   7.718
 4044WAT     H212375   9.414   1.321   7.842
 4045WAT      O12376   0.238   1.726   9.032
 4045WAT     H112377   0.230   1.767   9.123
 4045WAT     H212378   0.288   1.789   8.972
 4046WAT      O12379   5.193   7.499   4.987
 4046WAT     H112380   5.226   7.453   4.905
 4046WAT     H212381   5.259   7.486   5.061
 4047WAT      O12382   8.332   5.056   0.486
 4047WAT     H112383   8.358   4.960   0.481
 4047WAT     H212384   8.241   5.067   0.446
 4048WAT      O12385   9.250   6.867   8.947
 4048WAT     H112386   9.304   6.928   9.005
 4048WAT     H212387   9.170   6.916   8.914
 4049WAT      O12388   6.499   2.736   6.632
 4049WAT     H112389   6.426   2.785   6.584
 4049WAT     H212390   6.460   2.678   6.703
 4050WAT      O12391   1.038   2.759   2.907
 4050WAT     H112392   0.964   2.724   2.965
 4050WAT     H212393   1.011   2.847   2.868
 4051WAT      O12394   9.738   2.781   1.414
 4051WAT     H112395   9.779   2.827   1.494
 4051WAT     H212396   9.801   2.710   1.382
 4052WAT      O12397   0.588   4.898   4.370
 4052WAT     H112398   0.622   4.878   4.278
 4052WAT     H212399   0.645   4.851   4.437
 4053WAT      O12400   0.965   2.404   6.996
 4053WAT     H112401   0.895   2.474   7.010
 4053WAT     H212402   0.946   2.326   7.056
 4054WAT      O12403   5.368   5.841   7.656
 4054WAT     H112404   5.302   5.912   7.678
 4054WAT     H212405   5.417   5.864   7.572
 4055WAT      O12406   5.609   9.585   3.120
 4055WAT     H112407   5.595   9.540   3.208
 4055WAT     H212408   5.592   9.683   3.129
 4056WAT      O12409   8.198   4.856   7.598
 4056WAT     H112410   8.158   4.788   7.659
 4056WAT     H212411   8.169   4.947   7.626
 4057WAT      O12412   4.017   8.230   1.215
 4057WAT     H112413   4.060   8.319   1.201
 4057WAT     H212414   4.055   8.164   1.149
 4058WAT      O12415   9.803   5.534   1.188
 4058WAT     H112416   9.889   5.523   1.237
 4058WAT     H212417   9.796   5.628   1.154
 4059WAT      O12418   8.632   5.560   7.886
 4059WAT     H112419   8.675   5.484   7.837
 4059WAT     H212420   8.702   5.616   7.930
 4060WAT      O12421   6.204   6.118   2.797
 4060WAT     H112422   6.119   6.170   2.807
 4060WAT     H212423   6.184   6.028   2.758
 4061WAT      O12424   5.143   0.316   6.621
 4061WAT     H112425   5.126   0.322   6.719
 4061WAT     H212426   5.134   0.406   6.579
 4062WAT      O12427   7.445   3.006   1.527
 4062WAT     H112428   7.443   3.003   1.627
 4062WAT     H212429   7.496   2.928   1.492
 4063WAT      O12430   5.546   6.970   5.168
 4063WAT     H112431   5.614   6.956   5.240
 4063WAT     H212432   5.553   6.896   5.101
 4064WAT      O12433   0.375   9.839   0.819
 4064WAT     H112434   0.291   9.828   0.873
 4064WAT     H212435   0.443   9.889   0.872
 4065WAT      O12436   8.336   1.914   4.561
 4065WAT     H112437   8.400   1.848   4.602
 4065WAT     H212438   8.269   1.865   4.506
 4066WAT      O12439   3.204   6.514   6.547
 4066WAT     H112440   3.245   6.486   6.634
 4066WAT     H212441   3.185   6.432   6.492
 4067WAT      O12442   2.546   0.594   6.365
 4067WAT     H112443   2.527   0.635   6.276
 4067WAT     H212444   2.536   0.663   6.436
 4068WAT      O12445   8.128   2.397   9.658
 4068WAT     H112446   8.202   2.330   9.665
 4068WAT     H212447   8.067   2.388   9.736
 4069WAT      O12448   3.582   3.232   3.679
 4069WAT     H112449   3.526   3.187   3.609
 4069WAT     H212450   3.565   3.331   3.677
 4070WAT      O12451   1.361   8.792   7.459
 4070WAT     H112452   1.285   8.846   7.496
 4070WAT     H212453   1.446   8.819   7.504
 4071WAT      O12454   1.221   7.678   3.095
 4071WAT     H112455   1.205   7.659   2.998
 4071WAT     H212456   1.315   7.653   3.119
 4072WAT      O12457   6.123   1.406   5.199
 4072WAT     H112458   6.140   1.336   5.268
 4072WAT     H212459   6.024   1.413   5.182
 4073WAT      O12460   8.997   2.878   0.107
 4073WAT     H112461   8.914   2.920   0.071
 4073WAT     H212462   8.983   2.779   0.115
 4074WAT      O12463   1.943   9.126   5.729
 4074WAT     H112464   1.955   9.063   5.652
 4074WAT     H212465   1.846   9.151   5.737
 4075WAT      O12466   8.907   8.017   0.469
 4075WAT     H112467   8.831   7.989   0.528
 4075WAT     H212468   8.931   8.112   0.488
 4076WAT      O12469   1.613   6.035   6.340
 4076WAT     H112470   1.538   6.051   6.405
 4076WAT     H212471   1.589   6.075   6.252
 4077WAT      O12472   1.483   5.593   5.406
 4077WAT     H112473   1.548   5.548   5.344
 4077WAT     H212474   1.390   5.576   5.374
 4078WAT      O12475   4.994   5.251   3.675
 4078WAT     H112476   5.089   5.220   3.672
 4078WAT     H212477   4.992   5.351   3.686
 4079WAT      O12478   5.246   0.023   8.387
 4079WAT     H112479   5.254  -0.075   8.369
 4079WAT     H212480   5.168   0.059   8.336
 4080WAT      O12481   2.291   6.985   7.032
 4080WAT     H112482   2.191   6.990   7.025
 4080WAT     H212483   2.318   6.891   7.055
 4081WAT      O12484   6.952   6.962   5.133
 4081WAT     H112485   6.972   6.964   5.231
 4081WAT     H212486   7.023   6.910   5.085
 4082WAT      O12487   1.101   3.023   8.897
 4082WAT     H112488   1.020   2.983   8.939
 4082WAT     H212489   1.159   2.951   8.860
 4083WAT      O12490   7.478   7.207   7.926
 4083WAT     H112491   7.551   7.227   7.861
 4083WAT     H212492   7.515   7.206   8.019
 4084WAT      O12493   8.880   8.168   5.316
 4084WAT     H112494   8.856   8.235   5.245
 4084WAT     H212495   8.972   8.133   5.300
 4085WAT      O12496   6.593   9.744   5.372
 4085WAT     H112497   6.641   9.688   5.305
 4085WAT     H212498   6.637   9.834   5.378
 4086WAT      O12499   4.682   8.571   7.875
 4086WAT     H112500   4.642   8.486   7.908
 4086WAT     H212501   4.610   8.628   7.835
 4087WAT      O12502   4.555   8.925   1.573
 4087WAT     H112503   4.605   8.983   1.509
 4087WAT     H212504   4.576   8.829   1.554
 4088WAT      O12505   1.552   4.670   1.724
 4088WAT     H112506   1.476   4.722   1.685
 4088WAT     H212507   1.632   4.679   1.666
 4089WAT      O12508   6.757   2.575   9.584
 4089WAT     H112509   6.821   2.649   9.564
 4089WAT     H212510   6.671   2.613   9.618
 4090WAT      O12511   2.810   9.737   5.379
 4090WAT     H112512   2.813   9.819   5.437
 4090WAT     H212513   2.882   9.674   5.407
 4091WAT      O12514   4.046   8.722   0.656
 4091WAT     H112515   4.060   8.705   0.753
 4091WAT     H212516   4.114   8.671   0.603
 4092WAT      O12517   7.360   4.824   6.585
 4092WAT     H112518   7.458   4.823   6.561
 4092WAT     H212519   7.309   4.873   6.515
 4093WAT      O12520   8.006   3.360   8.114
 4093WAT     H112521   7.915   3.384   8.148
 4093WAT     H212522   8.050   3.298   8.178
 4094WAT      O12523   5.477   2.759   1.321
 4094WAT     H112524   5.505   2.841   1.371
 4094WAT     H212525   5.417   2.703   1.378
 4095WAT      O12526   4.986   2.531   0.150
 4095WAT     H112527   4.956   2.441   0.117
 4095WAT     H212528   4.936   2.603   0.101
 4096WAT      O12529   5.660   1.560   4.278
 4096WAT     H112530   5.639   1.649   4.238
 4096WAT     H212531   5.601   1.490   4.238
 4097WAT      O12532   2.453   0.520   1.754
 4097WAT     H112533   2.436   0.422   1.766
 4097WAT     H212534   2.518   0.551   1.824
 4098WAT      O12535   5.062   0.784   1.812
 4098WAT     H112536   4.982   0.814   1.760
 4098WAT     H212537   5.136   0.850   1.800
 4099WAT      O12538   3.386   8.395   6.553
 4099WAT     H112539   3.460   8.345   6.599
 4099WAT     H212540   3.384   8.489   6.585
 4100WAT      O12541   6.326   2.634   2.535
 4100WAT     H112542   6.274   2.640   2.620
 4100WAT     H212543   6.274   2.675   2.460
 4101WAT      O12544   3.972   7.706   5.538
 4101WAT     H112545   3.883   7.664   5.556
 4101WAT     H212546   4.019   7.724   5.624
 4102WAT      O12547   1.826   5.189   3.700
 4102WAT     H112548   1.828   5.160   3.796
 4102WAT     H212549   1.917   5.178   3.660
 4103WAT      O12550   5.743   7.707   8.200
 4103WAT     H112551   5.683   7.677   8.126
 4103WAT     H212552   5.780   7.797   8.178
 4104WAT      O12553   8.635   7.701   7.229
 4104WAT     H112554   8.706   7.643   7.188
 4104WAT     H212555   8.545   7.664   7.207
 4105WAT      O12556   8.478   2.425   1.314
 4105WAT     H112557   8.419   2.354   1.274
 4105WAT     H212558   8.463   2.429   1.412
 4106WAT      O12559   3.485   4.001   5.521
 4106WAT     H112560   3.411   4.068   5.524
 4106WAT     H212561   3.479   3.942   5.602
 4107WAT      O12562   2.521   4.110   4.255
 4107WAT     H112563   2.605   4.081   4.301
 4107WAT     H212564   2.474   4.177   4.312
 4108WAT      O12565   6.202   9.612   2.525
 4108WAT     H112566   6.272   9.620   2.596
 4108WAT     H212567   6.119   9.571   2.564
 4109WAT      O12568   5.853   0.608   2.803
 4109WAT     H112569   5.785   0.658   2.857
 4109WAT     H212570   5.826   0.610   2.706
 4110WAT      O12571   2.954   0.771   1.593
 4110WAT     H112572   2.913   0.844   1.649
 4110WAT     H212573   2.907   0.767   1.505
 4111WAT      O12574   5.816   7.046   8.900
 4111WAT     H112575   5.763   7.048   8.985
 4111WAT     H212576   5.839   6.952   8.878
 4112WAT      O12577   8.201   0.235   2.114
 4112WAT     H112578   8.188   0.140   2.088
 4112WAT     H212579   8.244   0.240   2.204
 4113WAT      O12580   2.627   9.312   4.541
 4113WAT     H112581   2.540   9.263   4.547
 4113WAT     H212582   2.654   9.321   4.445
 4114WAT      O12583   9.629   1.951   4.907
 4114WAT     H112584   9.672   1.879   4.962
 4114WAT     H212585   9.641   1.930   4.810
 4115WAT      O12586   0.690   7.236   7.959
 4115WAT     H112587   0.763   7.194   7.906
 4115WAT     H212588   0.701   7.213   8.056
 4116WAT      O12589   8.083   9.248   6.859
 4116WAT     H112590   8.049   9.308   6.932
 4116WAT     H212591   8.118   9.163   6.899
 4117WAT      O12592   6.926   8.424   0.878
 4117WAT     H112593   6.874   8.345   0.911
 4117WAT     H212594   6.862   8.494   0.845
 4118WAT      O12595   0.916   3.133   9.183
 4118WAT     H112596   0.949   3.075   9.258
 4118WAT     H212597   0.885   3.075   9.108
 4119WAT      O12598   4.153   5.133   9.318
 4119WAT     H112599   4.214   5.133   9.239
 4119WAT     H212600   4.204   5.108   9.400
 4120WAT      O12601   6.644   0.709   0.687
 4120WAT     H112602   6.609   0.798   0.715
 4120WAT     H212603   6.729   0.722   0.636
 4121WAT      O12604   8.014   2.363   0.973
 4121WAT     H112605   7.936   2.316   1.015
 4121WAT     H212606   8.044   2.437   1.033
 4122WAT      O12607   9.464   1.786   1.755
 4122WAT     H112608   9.532   1.822   1.692
 4122WAT     H212609   9.403   1.860   1.785
 4123WAT      O12610   3.979   3.638   7.908
 4123WAT     H112611   3.980   3.636   7.808
 4123WAT     H212612   3.994   3.546   7.944
 4124WAT      O12613   8.097   0.574   7.310
 4124WAT     H112614   8.109   0.550   7.214
 4124WAT     H212615   8.006   0.615   7.324
 4125WAT      O12616   8.448   8.401   0.874
 4125WAT     H112617   8.358   8.438   0.852
 4125WAT     H212618   8.509   8.476   0.900
 4126WAT      O12619   3.630   8.589   5.575
 4126WAT     H112620   3.577   8.506   5.557
 4126WAT     H212621   3.586   8.643   5.646
 4127WAT      O12622   1.148   5.327   4.719
 4127WAT     H112623   1.108   5.236   4.712
 4127WAT     H212624   1.083   5.394   4.682
 4128WAT      O12625   0.830   7.233   9.560
 4128WAT     H112626   0.779   7.195   9.483
 4128WAT     H212627   0.921   7.193   9.562
 4129WAT      O12628   5.172   2.011   4.716
 4129WAT     H112629   5.228   1.958   4.651
 4129WAT     H212630   5.083   2.029   4.675
 4130WAT      O12631   7.806   2.023   2.580
 4130WAT     H112632   7.709   2.043   2.566
 4130WAT     H212633   7.841   2.078   2.656
 4131WAT      O12634   4.741   0.790   8.125
 4131WAT     H112635   4.680   0.868   8.139
 4131WAT     H212636   4.813   0.791   8.195
 4132WAT      O12637   6.126   3.715   7.580
 4132WAT     H112638   6.164   3.758   7.662
 4132WAT     H212639   6.155   3.620   7.576
 4133WAT      O12640   9.300   4.393   4.060
 4133WAT     H112641   9.202   4.383   4.044
 4133WAT     H212642   9.347   4.401   3.972
 4134WAT      O12643   3.294   1.910   7.272
 4134WAT     H112644   3.349   1.991   7.251
 4134WAT     H212645   3.313   1.838   7.205
 4135WAT      O12646   0.320   3.586   6.785
 4135WAT     H112647   0.232   3.547   6.810
 4135WAT     H212648   0.390   3.514   6.784
 4136WAT      O12649   5.731   8.172   8.220
 4136WAT     H112650   5.806   8.235   8.239
 4136WAT     H212651   5.683   8.201   8.137
 4137WAT      O12652   4.203   5.061   5.522
 4137WAT     H112653   4.237   4.986   5.578
 4137WAT     H212654   4.253   5.063   5.435
 4138WAT      O12655   5.265   0.924   1.771
 4138WAT     H112656   5.268   0.997   1.839
 4138WAT     H212657   5.358   0.902   1.742
 4139WAT      O12658   0.358   3.268   0.737
 4139WAT     H112659   0.268   3.225   0.744
 4139WAT     H212660   0.364   3.320   0.652
 4140WAT      O12661   1.367   0.685   5.782
 4140WAT     H112662   1.393   0.781   5.796
 4140WAT     H212663   1.313   0.654   5.861
 4141WAT      O12664   5.669   4.494   1.718
 4141WAT     H112665   5.660   4.593   1.714
 4141WAT     H212666   5.624   4.453   1.638
 4142WAT      O12667   9.423   6.313   4.471
 4142WAT     H112668   9.406   6.305   4.373
 4142WAT     H212669   9.406   6.225   4.515
 4143WAT      O12670   1.745   1.569   1.147
 4143WAT     H112671   1.782   1.656   1.114
 4143WAT     H212672   1.819   1.514   1.185
 4144WAT      O12673   6.003   0.137   9.190
 4144WAT     H112674   5.985   0.055   9.244
 4144WAT     H212675   6.066   0.197   9.240
 4145WAT      O12676   4.335   1.594   8.728
 4145WAT     H112677   4.354   1.627   8.821
 4145WAT     H212678   4.420   1.589   8.676
 4146WAT      O12679   7.690   0.673   0.420
 4146WAT     H112680   7.705   0.662   0.322
 4146WAT     H212681   7.601   0.718   0.436
 4147WAT      O12682   4.296   1.212   6.909
 4147WAT     H112683   4.372   1.151   6.889
 4147WAT     H212684   4.330   1.293   6.957
 4148WAT      O12685   9.741   1.511   8.057
 4148WAT     H112686   9.840   1.522   8.047
 4148WAT     H212687   9.722   1.424   8.102
 4149WAT      O12688   6.054   4.523   4.592
 4149WAT     H112689   6.091   4.516   4.685
 4149WAT     H212690   6.006   4.610   4.582
 4150WAT      O12691   5.378   2.021   3.784
 4150WAT     H112692   5.404   2.059   3.873
 4150WAT     H212693   5.375   1.921   3.790
 4151WAT      O12694   8.135   0.567   0.172
 4151WAT     H112695   8.059   0.571   0.106
 4151WAT     H212696   8.109   0.617   0.254
 4152WAT      O12697   3.876   3.001   8.916
 4152WAT     H112698   3.792   2.960   8.950
 4152WAT     H212699   3.902   3.077   8.976
 4153WAT      O12700   3.289   5.506   9.717
 4153WAT     H112701   3.262   5.592   9.762
 4153WAT     H212702   3.364   5.524   9.655
 4154WAT      O12703   2.110   7.412   3.674
 4154WAT     H112704   2.032   7.370   3.627
 4154WAT     H212705   2.136   7.355   3.752
 4155WAT      O12706   5.677   1.573   9.180
 4155WAT     H112707   5.735   1.631   9.123
 4155WAT     H212708   5.619   1.516   9.122
 4156WAT      O12709   0.268   6.481   0.180
 4156WAT     H112710   0.317   6.567   0.194
 4156WAT     H212711   0.298   6.414   0.249
 4157WAT      O12712   9.239   1.594   1.233
 4157WAT     H112713   9.324   1.642   1.212
 4157WAT     H212714   9.170   1.616   1.164
 4158WAT      O12715   3.471   0.377   0.540
 4158WAT     H112716   3.501   0.339   0.627
 4158WAT     H212717   3.405   0.450   0.557
 4159WAT      O12718   3.544   6.825   2.823
 4159WAT     H112719   3.562   6.727   2.813
 4159WAT     H212720   3.485   6.839   2.903
 4160WAT      O12721   9.660   8.840   8.398
 4160WAT     H112722   9.668   8.926   8.448
 4160WAT     H212723   9.609   8.773   8.453
 4161WAT      O12724   6.039   4.232   2.408
 4161WAT     H112725   6.085   4.263   2.325
 4161WAT     H212726   6.078   4.280   2.487
 4162WAT      O12727   4.757   1.991   7.079
 4162WAT     H112728   4.713   1.905   7.107
 4162WAT     H212729   4.688   2.054   7.045
 4163WAT      O12730   3.754   6.975   2.129
 4163WAT     H112731   3.841   6.996   2.085
 4163WAT     H212732   3.700   7.058   2.137
 4164WAT      O12733   4.457   1.008   4.598
 4164WAT     H112734   4.536   1.010   4.536
 4164WAT     H212735   4.424   0.914   4.607
 4165WAT      O12736   7.109   4.148   2.017
 4165WAT     H112737   7.089   4.226   1.958
 4165WAT     H212738   7.204   4.119   2.003
 4166WAT      O12739   2.989   7.733   2.647
 4166WAT     H112740   2.907   7.719   2.593
 4166WAT     H212741   3.021   7.827   2.636
 4167WAT      O12742   1.399   9.128   0.317
 4167WAT     H112743   1.389   9.170   0.407
 4167WAT     H212744   1.496   9.117   0.296
 4168WAT      O12745   6.972   0.714   2.209
 4168WAT     H112746   6.977   0.812   2.225
 4168WAT     H212747   6.917   0.671   2.281
 4169WAT      O12748   0.867   8.032   9.074
 4169WAT     H112749   0.916   8.012   8.989
 4169WAT     H212750   0.884   7.959   9.141
 4170WAT      O12751   4.994   2.241   3.135
 4170WAT     H112752   4.943   2.224   3.051
 4170WAT     H212753   5.021   2.155   3.176
 4171WAT      O12754   0.079   9.283   5.236
 4171WAT     H112755   0.006   9.223   5.270
 4171WAT     H212756   0.040   9.368   5.203
 4172WAT      O12757   5.882   8.590   7.817
 4172WAT     H112758   5.954   8.625   7.877
 4172WAT     H212759   5.848   8.503   7.853
 4173WAT      O12760   8.165   2.150   9.851
 4173WAT     H112761   8.253   2.175   9.891
 4173WAT     H212762   8.095   2.217   9.877
 4174WAT      O12763   9.130   2.874   4.464
 4174WAT     H112764   9.212   2.923   4.494
 4174WAT     H212765   9.052   2.902   4.520
 4175WAT      O12766   3.937   6.108   0.409
 4175WAT     H112767   3.883   6.061   0.339
 4175WAT     H212768   3.993   6.178   0.366
 4176WAT      O12769   8.800   4.973   2.861
 4176WAT     H112770   8.808   4.942   2.766
 4176WAT     H212771   8.891   4.983   2.901
 4177WAT      O12772   8.266   2.698   4.960
 4177WAT     H112773   8.342   2.658   5.011
 4177WAT     H212774   8.261   2.656   4.869
 4178WAT      O12775   5.155   2.541   0.361
 4178WAT     H112776   5.131   2.483   0.439
 4178WAT     H212777   5.084   2.533   0.291
 4179WAT      O12778   8.945   7.556   8.963
 4179WAT     H112779   9.020   7.609   8.926
 4179WAT     H212780   8.866   7.615   8.978
 4180WAT      O12781   8.945   8.936   4.169
 4180WAT     H112782   8.958   8.977   4.259
 4180WAT     H212783   8.852   8.953   4.137
 4181WAT      O12784   0.089   5.258   0.482
 4181WAT     H112785   0.130   5.208   0.558
 4181WAT     H212786   0.130   5.349   0.476
 4182WAT      O12787   3.788   2.279   3.043
 4182WAT     H112788   3.825   2.366   3.075
 4182WAT     H212789   3.848   2.241   2.972
 4183WAT      O12790   6.101   3.416   8.161
 4183WAT     H112791   6.034   3.383   8.094
 4183WAT     H212792   6.161   3.483   8.118
 4184WAT      O12793   4.322   7.658   7.451
 4184WAT     H112794   4.350   7.657   7.355
 4184WAT     H212795   4.307   7.752   7.480
 4185WAT      O12796   7.965   2.204   2.735
 4185WAT     H112797   7.977   2.285   2.678
 4185WAT     H212798   8.054   2.176   2.772
 4186WAT      O12799   0.911   3.959   7.439
 4186WAT     H112800   0.977   3.934   7.510
 4186WAT     H212801   0.952   4.026   7.377
 4187WAT      O12802   8.267   3.288   4.690
 4187WAT     H112803   8.219   3.205   4.661
 4187WAT     H212804   8.343   3.307   4.628
 4188WAT      O12805   4.618   0.194   5.231
 4188WAT     H112806   4.562   0.269   5.196
 4188WAT     H212807   4.559   0.124   5.271
 4189WAT      O12808   6.214   7.838   3.618
 4189WAT     H112809   6.168   7.831   3.529
 4189WAT     H212810   6.227   7.746   3.655
 4190WAT      O12811   9.342   5.275   2.584
 4190WAT     H112812   9.333   5.347   2.652
 4190WAT     H212813   9.279   5.292   2.508
 4191WAT      O12814   1.782   3.615   2.934
 4191WAT     H112815   1.748   3.707   2.915
 4191WAT     H212816   1.811   3.572   2.848
 4192WAT      O12817   0.279   6.703   4.668
 4192WAT     H112818   0.266   6.696   4.767
 4192WAT     H212819   0.286   6.611   4.629
 4193WAT      O12820   2.875   5.781   6.030
 4193WAT     H112821   2.815   5.846   6.077
 4193WAT     H212822   2.830   5.749   5.946
 4194WAT      O12823   4.548   2.166   0.331
 4194WAT     H112824   4.571   2.166   0.234
 4194WAT     H212825   4.619   2.117   0.382
 4195WAT      O12826   7.466   3.136   6.032
 4195WAT     H112827   7.448   3.186   5.947
 4195WAT     H212828   7.379   3.110   6.074
 4196WAT      O12829   9.153   6.433   1.988
 4196WAT     H112830   9.211   6.407   1.911
 4196WAT     H212831   9.208   6.484   2.055
 4197WAT      O12832   9.253   6.791   6.596
 4197WAT     H112833   9.241   6.692   6.600
 4197WAT     H212834   9.349   6.814   6.610
 4198WAT      O12835   8.493   6.050   8.653
 4198WAT     H112836   8.585   6.086   8.644
 4198WAT     H212837   8.427   6.125   8.652
 4199WAT      O12838   7.284   8.759   0.024
 4199WAT     H112839   7.306   8.827   0.094
 4199WAT     H212840   7.200   8.711   0.051
 4200WAT      O12841   2.381   3.001   2.313
 4200WAT     H112842   2.321   3.056   2.255
 4200WAT     H212843   2.328   2.928   2.357
 4201WAT      O12844   6.313   9.401   7.941
 4201WAT     H112845   6.329   9.366   8.033
 4201WAT     H212846   6.284   9.497   7.946
 4202WAT      O12847   5.385   3.551   8.256
 4202WAT     H112848   5.324   3.476   8.279
 4202WAT     H212849   5.331   3.632   8.232
 4203WAT      O12850   6.301   7.347   5.717
 4203WAT     H112851   6.229   7.408   5.684
 4203WAT     H212852   6.276   7.313   5.808
 4204WAT      O12853   3.543   1.648   5.889
 4204WAT     H112854   3.586   1.732   5.921
 4204WAT     H212855   3.523   1.588   5.967
 4205WAT      O12856   4.797   4.877   8.676
 4205WAT     H112857   4.741   4.837   8.749
 4205WAT     H212858   4.842   4.804   8.625
 4206WAT      O12859   0.377   9.464   8.898
 4206WAT     H112860   0.419   9.380   8.932
 4206WAT     H212861   0.291   9.442   8.852
 4207WAT      O12862   0.768   8.894   0.781
 4207WAT     H112863   0.703   8.820   0.766
 4207WAT     H212864   0.789   8.902   0.878
 4208WAT      O12865   1.040   3.138   7.751
 4208WAT     H112866   1.101   3.154   7.828
 4208WAT     H212867   0.945   3.154   7.779
 4209WAT      O12868   8.057   1.288   7.437
 4209WAT     H112869   8.149   1.259   7.461
 4209WAT     H212870   8.054   1.388   7.429
 4210WAT      O12871   1.619   2.509   5.571
 4210WAT     H112872   1.619   2.493   5.472
 4210WAT     H212873   1.648   2.604   5.588
 4211WAT      O12874   3.497   4.298   6.222
 4211WAT     H112875   3.429   4.271   6.155
 4211WAT     H212876   3.509   4.398   6.219
 4212WAT      O12877   9.153   0.544   5.417
 4212WAT     H112878   9.063   0.508   5.393
 4212WAT     H212879   9.145   0.602   5.498
 4213WAT      O12880   3.239   5.586   6.824
 4213WAT     H112881   3.149   5.551   6.798
 4213WAT     H212882   3.308   5.514   6.810
 4214WAT      O12883   4.171   8.692   5.500
 4214WAT     H112884   4.263   8.704   5.464
 4214WAT     H212885   4.131   8.781   5.522
 4215WAT      O12886   0.081   8.348   9.278
 4215WAT     H112887   0.075   8.393   9.367
 4215WAT     H212888   0.167   8.298   9.271
 4216WAT      O12889   7.336   2.872   2.398
 4216WAT     H112890   7.371   2.871   2.305
 4216WAT     H212891   7.300   2.963   2.419
 4217WAT      O12892   8.462   1.339   2.468
 4217WAT     H112893   8.496   1.322   2.376
 4217WAT     H212894   8.390   1.409   2.465
 4218WAT      O12895   9.413   9.583   6.819
 4218WAT     H112896   9.493   9.643   6.819
 4218WAT     H212897   9.427   9.508   6.755
 4219WAT      O12898   2.462   8.259   9.599
 4219WAT     H112899   2.421   8.248   9.689
 4219WAT     H212900   2.390   8.259   9.529
 4220WAT      O12901   9.536   0.365   4.204
 4220WAT     H112902   9.548   0.295   4.274
 4220WAT     H212903   9.500   0.323   4.121
 4221WAT      O12904   4.970   0.730   1.318
 4221WAT     H112905   4.973   0.696   1.412
 4221WAT     H212906   5.032   0.808   1.309
 4222WAT      O12907   3.058   9.502   1.659
 4222WAT     H112908   3.121   9.426   1.645
 4222WAT     H212909   3.020   9.497   1.751
 4223WAT      O12910   6.119   5.016   8.058
 4223WAT     H112911   6.048   4.956   8.094
 4223WAT     H212912   6.114   5.105   8.103
 4224WAT      O12913   8.363   4.957   1.729
 4224WAT     H112914   8.452   4.953   1.683
 4224WAT     H212915   8.353   5.046   1.773
 4225WAT      O12916   9.298   9.584   5.734
 4225WAT     H112917   9.335   9.576   5.827
 4225WAT     H212918   9.296   9.494   5.692
 4226WAT      O12919   5.609   2.797   3.017
 4226WAT     H112920   5.640   2.721   2.960
 4226WAT     H212921   5.516   2.823   2.990
 4227WAT      O12922   6.899   9.077   9.230
 4227WAT     H112923   6.998   9.061   9.238
 4227WAT     H212924   6.884   9.168   9.190
 4228WAT      O12925   7.317   1.013   2.736
 4228WAT     H112926   7.222   1.028   2.711
 4228WAT     H212927   7.348   1.086   2.797
 4229WAT      O12928   9.522   9.660   1.282
 4229WAT     H112929   9.490   9.700   1.368
 4229WAT     H212930   9.590   9.590   1.301
 4230WAT      O12931   8.267   6.024   2.175
 4230WAT     H112932   8.178   6.010   2.130
 4230WAT     H212933   8.289   5.944   2.231
 4231WAT      O12934   3.461   4.294   9.229
 4231WAT     H112935   3.372   4.273   9.189
 4231WAT     H212936   3.521   4.215   9.219
 4232WAT      O12937   6.488   2.242   4.435
 4232WAT     H112938   6.463   2.257   4.339
 4232WAT     H212939   6.413   2.272   4.494
 4233WAT      O12940   5.383   4.236   1.099
 4233WAT     H112941   5.297   4.282   1.118
 4233WAT     H212942   5.425   4.274   1.017
 4234WAT      O12943   2.706   8.111   4.884
 4234WAT     H112944   2.639   8.037   4.895
 4234WAT     H212945   2.778   8.101   4.952
 4235WAT      O12946   8.874   7.537   3.031
 4235WAT     H112947   8.844   7.538   3.126
 4235WAT     H212948   8.927   7.454   3.013
 4236WAT      O12949   7.133   0.657   4.351
 4236WAT     H112950   7.057   0.593   4.341
 4236WAT     H212951   7.100   0.751   4.345
 4237WAT      O12952   5.773   3.568   1.021
 4237WAT     H112953   5.865   3.533   1.039
 4237WAT     H212954   5.712   3.491   1.002
 4238WAT      O12955   8.741   7.093   7.467
 4238WAT     H112956   8.666   7.157   7.482
 4238WAT     H212957   8.763   7.046   7.553
 4239WAT      O12958   5.505   7.232   1.762
 4239WAT     H112959   5.479   7.327   1.777
 4239WAT     H212960   5.568   7.226   1.684
 4240WAT      O12961   4.383   4.042   7.316
 4240WAT     H112962   4.379   4.139   7.338
 4240WAT     H212963   4.309   3.994   7.364
 4241WAT      O12964   4.967   9.152   9.050
 4241WAT     H112965   5.057   9.178   9.083
 4241WAT     H212966   4.921   9.096   9.119
 4242WAT      O12967   3.733   2.088   7.586
 4242WAT     H112968   3.733   2.164   7.522
 4242WAT     H212969   3.811   2.029   7.568
 4243WAT      O12970   0.437   2.719   2.046
 4243WAT     H112971   0.400   2.769   1.967
 4243WAT     H212972   0.536   2.726   2.046
 4244WAT      O12973   7.897   5.731   8.603
 4244WAT     H112974   7.825   5.723   8.534
 4244WAT     H212975   7.856   5.741   8.693
 4245WAT      O12976   5.744   1.340   8.923
 4245WAT     H112977   5.757   1.406   8.848
 4245WAT     H212978   5.691   1.262   8.890
 4246WAT      O12979   1.010   8.595   4.383
 4246WAT     H112980   0.915   8.578   4.359
 4246WAT     H212981   1.063   8.613   4.300
 4247WAT      O12982   2.656   2.435   5.145
 4247WAT     H112983   2.711   2.366   5.191
 4247WAT     H212984   2.679   2.526   5.180
 4248WAT      O12985   1.123   8.611   6.298
 4248WAT     H112986   1.214   8.650   6.282
 4248WAT     H212987   1.129   8.512   6.306
 4249WAT      O12988   1.495   3.248   0.789
 4249WAT     H112989   1.570   3.310   0.768
 4249WAT     H212990   1.422   3.298   0.836
 4250WAT      O12991   2.662   4.963   8.174
 4250WAT     H112992   2.635   4.963   8.078
 4250WAT     H212993   2.640   5.051   8.215
 4251WAT      O12994   6.816   5.260   1.012
 4251WAT     H112995   6.806   5.359   1.008
 4251WAT     H212996   6.726   5.218   1.025
 4252WAT      O12997   4.615   3.221   6.531
 4252WAT     H112998   4.650   3.177   6.613
 4252WAT     H212999   4.690   3.239   6.468
 4253WAT      O13000   6.406   8.894   9.166
 4253WAT     H113001   6.455   8.969   9.210
 4253WAT     H213002   6.468   8.843   9.106
 4254WAT      O13003   8.013   3.703   3.992
 4254WAT     H113004   7.935   3.720   3.933
 4254WAT     H213005   7.999   3.619   4.044
 4255WAT      O13006  -0.006   8.026   0.286
 4255WAT     H113007   0.077   8.082   0.286
 4255WAT     H213008   0.020   7.929   0.291
 4256WAT      O13009   8.119   6.586   7.561
 4256WAT     H113010   8.186   6.629   7.622
 4256WAT     H213011   8.119   6.633   7.473
 4257WAT      O13012   5.326   2.984   0.369
 4257WAT     H113013   5.322   2.884   0.370
 4257WAT     H213014   5.421   3.015   0.375
 4258WAT      O13015   4.535   3.769   3.322
 4258WAT     H113016   4.510   3.862   3.295
 4258WAT     H213017   4.501   3.704   3.254
 4259WAT      O13018   1.671   8.849   5.407
 4259WAT     H113019   1.640   8.764   5.451
 4259WAT     H213020   1.666   8.838   5.308
 4260WAT      O13021   7.463   6.423   3.828
 4260WAT     H113022   7.425   6.371   3.752
 4260WAT     H213023   7.510   6.361   3.891
 4261WAT      O13024   8.396   2.763   2.444
 4261WAT     H113025   8.405   2.717   2.356
 4261WAT     H213026   8.487   2.777   2.484
 4262WAT      O13027   7.471   6.844   2.047
 4262WAT     H113028   7.402   6.833   1.976
 4262WAT     H213029   7.559   6.811   2.014
 4263WAT      O13030   5.465   3.910   8.468
 4263WAT     H113031   5.380   3.868   8.437
 4263WAT     H213032   5.491   3.983   8.406
 4264WAT      O13033   9.637   7.527   1.947
 4264WAT     H113034   9.546   7.503   1.913
 4264WAT     H213035   9.639   7.625   1.969
 4265WAT      O13036   3.756   3.226   2.775
 4265WAT     H113037   3.669   3.198   2.813
 4265WAT     H213038   3.802   3.289   2.837
 4266WAT      O13039   7.258   2.782   9.237
 4266WAT     H113040   7.222   2.696   9.201
 4266WAT     H213041   7.204   2.858   9.202
 4267WAT      O13042   2.590   8.535   8.850
 4267WAT     H113043   2.500   8.556   8.888
 4267WAT     H213044   2.581   8.519   8.751
 4268WAT      O13045   6.054   2.863   4.640
 4268WAT     H113046   6.066   2.822   4.549
 4268WAT     H213047   5.988   2.809   4.692
 4269WAT      O13048   8.673   6.945   8.693
 4269WAT     H113049   8.748   6.881   8.710
 4269WAT     H213050   8.594   6.919   8.750
 4270WAT      O13051   2.616   6.373   6.086
 4270WAT     H113052   2.675   6.413   6.017
 4270WAT     H213053   2.602   6.438   6.161
 4271WAT      O13054   7.636   6.192   9.085
 4271WAT     H113055   7.581   6.275   9.076
 4271WAT     H213056   7.721   6.214   9.134
 4272WAT      O13057   1.937   5.889   5.393
 4272WAT     H113058   1.973   5.981   5.378
 4272WAT     H213059   1.851   5.895   5.444
 4273WAT      O13060   3.957   8.843   9.446
 4273WAT     H113061   4.010   8.888   9.374
 4273WAT     H213062   4.008   8.847   9.532
 4274WAT      O13063   3.960   0.044   5.308
 4274WAT     H113064   4.001   0.075   5.394
 4274WAT     H213065   3.876  -0.006   5.327
 4275WAT      O13066   6.636   5.190   7.390
 4275WAT     H113067   6.607   5.095   7.403
 4275WAT     H213068   6.557   5.251   7.395
 4276WAT      O13069   3.298   9.051   9.664
 4276WAT     H113070   3.314   9.149   9.663
 4276WAT     H213071   3.203   9.033   9.691
 4277WAT      O13072   9.410   1.923   4.494
 4277WAT     H113073   9.379   1.862   4.567
 4277WAT     H213074   9.372   1.892   4.407
 4278WAT      O13075   1.963   1.282   6.208
 4278WAT     H113076   1.940   1.379   6.201
 4278WAT     H213077   2.061   1.272   6.225
 4279WAT      O13078   8.510   2.498   9.656
 4279WAT     H113079   8.573   2.444   9.711
 4279WAT     H213080   8.441   2.437   9.616
 4280WAT      O13081   7.729   6.969   7.387
 4280WAT     H113082   7.819   6.934   7.359
 4280WAT     H213083   7.664   6.894   7.393
 4281WAT      O13084   3.527   0.135   9.629
 4281WAT     H113085   3.564   0.050   9.666
 4281WAT     H213086   3.461   0.173   9.693
 4282WAT      O13087   6.126   8.896   8.538
 4282WAT     H113088   6.061   8.852   8.600
 4282WAT     H213089   6.219   8.886   8.573
 4283WAT      O13090   7.486   7.343   6.188
 4283WAT     H113091   7.434   7.365   6.105
 4283WAT     H213092   7.455   7.256   6.225
 4284WAT      O13093   2.845   8.926   9.377
 4284WAT     H113094   2.785   8.924   9.457
 4284WAT     H213095   2.902   9.009   9.380
 4285WAT      O13096   5.292   5.841   5.793
 4285WAT     H113097   5.282   5.921   5.853
 4285WAT     H213098   5.288   5.757   5.848
 4286WAT      O13099   9.640   3.941   1.750
 4286WAT     H113100   9.663   3.885   1.671
 4286WAT     H213101   9.700   3.918   1.826
 4287WAT      O13102   8.182   3.493   4.390
 4287WAT     H113103   8.251   3.436   4.435
 4287WAT     H213104   8.227   3.560   4.331
 4288WAT      O13105   7.059   6.989   9.276
 4288WAT     H113106   7.029   6.954   9.365
 4288WAT     H213107   7.101   7.079   9.288
 4289WAT      O13108   1.770   0.109   2.635
 4289WAT     H113109   1.756   0.052   2.715
 4289WAT     H213110   1.687   0.110   2.579
 4290WAT      O13111   1.732   7.434   9.431
 4290WAT     H113112   1.822   7.457   9.396
 4290WAT     H213113   1.685   7.518   9.458
 4291WAT      O13114   9.876   4.923   9.771
 4291WAT     H113115   9.790   4.937   9.721
 4291WAT     H213116   9.888   4.825   9.789
 4292WAT      O13117   9.222   1.627   4.466
 4292WAT     H113118   9.214   1.693   4.391
 4292WAT     H213119   9.259   1.672   4.547
 4293WAT      O13120   4.955   9.247   6.311
 4293WAT     H113121   4.964   9.202   6.222
 4293WAT     H213122   4.995   9.339   6.306
 4294WAT      O13123   2.685   5.988   6.055
 4294WAT     H113124   2.718   6.068   6.106
 4294WAT     H213125   2.597   5.959   6.091
 4295WAT      O13126   5.999   4.718   1.041
 4295WAT     H113127   6.051   4.790   0.996
 4295WAT     H213128   6.061   4.656   1.090
 4296WAT      O13129   8.724   8.989   3.061
 4296WAT     H113130   8.796   8.950   3.118
 4296WAT     H213131   8.638   8.942   3.080
 4297WAT      O13132   0.029   4.148   1.512
 4297WAT     H113133  -0.007   4.238   1.538
 4297WAT     H213134   0.125   4.158   1.486
 4298WAT      O13135   5.210   0.625   4.766
 4298WAT     H113136   5.110   0.628   4.769
 4298WAT     H213137   5.242   0.678   4.687
 4299WAT      O13138   2.172   9.334   3.024
 4299WAT     H113139   2.189   9.432   3.037
 4299WAT     H213140   2.156   9.314   2.928
 4300WAT      O13141   6.610   1.703   9.679
 4300WAT     H113142   6.641   1.795   9.704
 4300WAT     H213143   6.527   1.709   9.624
 4301WAT      O13144   5.352   8.694   9.632
 4301WAT     H113145   5.352   8.665   9.728
 4301WAT     H213146   5.343   8.793   9.627
 4302WAT      O13147   3.728   4.020   7.054
 4302WAT     H113148   3.824   4.003   7.075
 4302WAT     H213149   3.707   4.116   7.073
 4303WAT      O13150   8.939   4.986   4.909
 4303WAT     H113151   8.961   4.929   4.830
 4303WAT     H213152   9.002   5.064   4.913
 4304WAT      O13153   5.387   7.297   1.496
 4304WAT     H113154   5.456   7.352   1.450
 4304WAT     H213155   5.414   7.281   1.591
 4305WAT      O13156   4.068   3.546   1.261
 4305WAT     H113157   3.972   3.548   1.288
 4305WAT     H213158   4.097   3.637   1.231
 4306WAT      O13159   3.339   8.764   2.916
 4306WAT     H113160   3.345   8.671   2.880
 4306WAT     H213161   3.245   8.798   2.904
 4307WAT      O13162   8.227   9.619   4.917
 4307WAT     H113163   8.240   9.583   4.824
 4307WAT     H213164   8.239   9.545   4.983
 4308WAT      O13165   7.690   2.285   3.974
 4308WAT     H113166   7.740   2.316   3.893
 4308WAT     H213167   7.596   2.263   3.948
 4309WAT      O13168   4.308   5.264   3.493
 4309WAT     H113169   4.378   5.251   3.563
 4309WAT     H213170   4.279   5.174   3.458
 4310WAT      O13171   8.810   8.205   1.455
 4310WAT     H113172   8.893   8.251   1.424
 4310WAT     H213173   8.738   8.214   1.385
 4311WAT      O13174   1.673   4.827   2.864
 4311WAT     H113175   1.684   4.734   2.828
 4311WAT     H213176   1.670   4.823   2.964
 4312WAT      O13177   2.306   8.787   6.491
 4312WAT     H113178   2.328   8.731   6.411
 4312WAT     H213179   2.366   8.867   6.493
 4313WAT      O13180   1.569   3.896   7.406
 4313WAT     H113181   1.663   3.863   7.420
 4313WAT     H213182   1.572   3.991   7.377
 4314WAT      O13183   2.558   2.780   2.809
 4314WAT     H113184   2.475   2.743   2.851
 4314WAT     H213185   2.636   2.766   2.869
 4315WAT      O13186   2.470   5.949   2.867
 4315WAT     H113187   2.531   6.017   2.826
 4315WAT     H213188   2.516   5.860   2.871
 4316WAT      O13189   3.869   5.674   8.786
 4316WAT     H113190   3.839   5.769   8.788
 4316WAT     H213191   3.885   5.642   8.880
 4317WAT      O13192   0.014   1.561   7.654
 4317WAT     H113193  -0.081   1.542   7.677
 4317WAT     H213194   0.017   1.620   7.573
 4318WAT      O13195   1.106   0.058   4.971
 4318WAT     H113196   1.169  -0.017   4.987
 4318WAT     H213197   1.085   0.104   5.057
 4319WAT      O13198   7.720   1.252   7.830
 4319WAT     H113199   7.669   1.246   7.916
 4319WAT     H213200   7.784   1.329   7.834
 4320WAT      O13201   4.480   3.702   7.507
 4320WAT     H113202   4.501   3.618   7.458
 4320WAT     H213203   4.382   3.708   7.524
 4321WAT      O13204   1.950   8.016   0.482
 4321WAT     H113205   1.947   8.079   0.405
 4321WAT     H213206   1.896   7.935   0.461
 4322WAT      O13207   8.417   2.467   6.196
 4322WAT     H113208   8.436   2.387   6.139
 4322WAT     H213209   8.354   2.527   6.148
 4323WAT      O13210   8.549   3.045   2.450
 4323WAT     H113211   8.627   3.090   2.405
 4323WAT     H213212   8.479   3.025   2.382
 4324WAT      O13213   0.306   9.448   7.943
 4324WAT     H113214   0.254   9.519   7.991
 4324WAT     H213215   0.245   9.398   7.881
 4325WAT      O13216   5.353   9.613   0.605
 4325WAT     H113217   5.283   9.634   0.536
 4325WAT     H213218   5.314   9.625   0.696
 4326WAT      O13219   5.043   6.255   7.613
 4326WAT     H113220   4.962   6.269   7.669
 4326WAT     H213221   5.019   6.263   7.516
 4327WAT      O13222   5.875   4.425   9.025
 4327WAT     H113223   5.816   4.454   9.101
 4327WAT     H213224   5.890   4.326   9.031
 4328WAT      O13225   3.910   8.788   2.643
 4328WAT     H113226   3.898   8.880   2.680
 4328WAT     H213227   3.989   8.745   2.686
 4329WAT      O13228   5.136   9.374   0.873
 4329WAT     H113229   5.155   9.466   0.840
 4329WAT     H213230   5.157   9.369   0.971
 4330WAT      O13231   2.194   2.058   8.071
 4330WAT     H113232   2.102   2.066   8.109
 4330WAT     H213233   2.253   2.128   8.112
 4331WAT      O13234   8.058   8.288   9.090
 4331WAT     H113235   7.960   8.275   9.075
 4331WAT     H213236   8.108   8.207   9.059
 4332WAT      O13237   9.182   8.371   5.228
 4332WAT     H113238   9.174   8.428   5.311
 4332WAT     H213239   9.123   8.409   5.156
 4333WAT      O13240   4.410   5.871   3.418
 4333WAT     H113241   4.366   5.955   3.387
 4333WAT     H213242   4.449   5.885   3.509
 4334WAT      O13243   0.307   4.102   0.999
 4334WAT     H113244   0.384   4.049   1.035
 4334WAT     H213245   0.259   4.146   1.075
 4335WAT      O13246   7.160   3.275   4.211
 4335WAT     H113247   7.157   3.179   4.183
 4335WAT     H213248   7.079   3.322   4.175
 4336WAT      O13249   8.727   9.467   3.906
 4336WAT     H113250   8.665   9.483   3.982
 4336WAT     H213251   8.688   9.507   3.822
 4337WAT      O13252   1.771   0.851   2.062
 4337WAT     H113253   1.721   0.864   1.977
 4337WAT     H213254   1.793   0.754   2.074
 4338WAT      O13255   6.115   4.666   8.171
 4338WAT     H113256   6.044   4.614   8.123
 4338WAT     H213257   6.101   4.764   8.155
 4339WAT      O13258   5.565   7.654   0.842
 4339WAT     H113259   5.637   7.658   0.911
 4339WAT     H213260   5.553   7.560   0.811
 4340WAT      O13261   8.864   1.215   1.311
 4340WAT     H113262   8.774   1.238   1.273
 4340WAT     H213263   8.857   1.130   1.364
 4341WAT      O13264   6.319   3.395   2.215
 4341WAT     H113265   6.374   3.475   2.191
 4341WAT     H213266   6.226   3.407   2.182
 4342WAT      O13267   0.282   1.853   0.759
 4342WAT     H113268   0.351   1.914   0.797
 4342WAT     H213269   0.325   1.767   0.732
 4343WAT      O13270   1.277   3.965   8.025
 4343WAT     H113271   1.278   4.034   7.952
 4343WAT     H213272   1.295   4.009   8.113
 4344WAT      O13273   1.613   2.510   0.871
 4344WAT     H113274   1.539   2.565   0.833
 4344WAT     H213275   1.593   2.488   0.967
 4345WAT      O13276   7.925   4.557   7.043
 4345WAT     H113277   7.945   4.623   6.972
 4345WAT     H213278   7.913   4.604   7.131
 4346WAT      O13279   4.813   1.713   3.609
 4346WAT     H113280   4.753   1.713   3.689
 4346WAT     H213281   4.877   1.790   3.615
 4347WAT      O13282   6.054   4.094   5.772
 4347WAT     H113283   6.117   4.029   5.816
 4347WAT     H213284   6.107   4.162   5.721
 4348WAT      O13285   5.958   9.515   2.661
 4348WAT     H113286   5.879   9.534   2.603
 4348WAT     H213287   5.987   9.421   2.648
 4349WAT      O13288   2.783   4.912   5.980
 4349WAT     H113289   2.867   4.966   5.982
 4349WAT     H213290   2.763   4.877   6.071
 4350WAT      O13291   9.076   7.883   0.729
 4350WAT     H113292   8.988   7.861   0.772
 4350WAT     H213293   9.086   7.982   0.724
 4351WAT      O13294   8.610   4.064   2.407
 4351WAT     H113295   8.708   4.058   2.427
 4351WAT     H213296   8.594   4.142   2.346
 4352WAT      O13297   5.558   9.825   7.970
 4352WAT     H113298   5.491   9.897   7.989
 4352WAT     H213299   5.644   9.867   7.942
 4353WAT      O13300   3.171   5.222   0.786
 4353WAT     H113301   3.084   5.196   0.745
 4353WAT     H213302   3.155   5.290   0.857
 4354WAT      O13303   7.706   2.821   6.308
 4354WAT     H113304   7.704   2.785   6.401
 4354WAT     H213305   7.739   2.750   6.246
 4355WAT      O13306   7.410   8.464   2.841
 4355WAT     H113307   7.365   8.514   2.767
 4355WAT     H213308   7.506   8.493   2.847
 4356WAT      O13309   1.804   5.763   2.972
 4356WAT     H113310   1.814   5.665   2.986
 4356WAT     H213311   1.707   5.788   2.973
 4357WAT      O13312   4.074   9.101   0.222
 4357WAT     H113313   4.038   9.182   0.269
 4357WAT     H213314   4.017   9.081   0.142
 4358WAT      O13315   2.932   8.912   1.375
 4358WAT     H113316   3.018   8.878   1.336
 4358WAT     H213317   2.860   8.907   1.305
 4359WAT      O13318   9.379   8.284   9.679
 4359WAT     H113319   9.310   8.268   9.749
 4359WAT     H213320   9.448   8.348   9.713
 4360WAT      O13321   0.849   4.204   4.309
 4360WAT     H113322   0.813   4.155   4.388
 4360WAT     H213323   0.898   4.140   4.250
 4361WAT      O13324   7.449   3.552   9.505
 4361WAT     H113325   7.413   3.500   9.428
 4361WAT     H213326   7.465   3.491   9.582
 4362WAT      O13327   7.392   2.575   9.564
 4362WAT     H113328   7.395   2.522   9.649
 4362WAT     H213329   7.426   2.668   9.581
 4363WAT      O13330   2.109   8.021   9.083
 4363WAT     H113331   2.136   7.926   9.098
 4363WAT     H213332   2.059   8.028   8.996
 4364WAT      O13333   9.200   5.718   2.785
 4364WAT     H113334   9.182   5.634   2.733
 4364WAT     H213335   9.250   5.783   2.728
 4365WAT      O13336   2.258   1.143   1.275
 4365WAT     H113337   2.260   1.133   1.375
 4365WAT     H213338   2.231   1.057   1.233
 4366WAT      O13339   0.065   2.557   0.342
 4366WAT     H113340   0.101   2.478   0.294
 4366WAT     H213341  -0.035   2.555   0.339
 4367WAT      O13342   5.795   3.142   5.924
 4367WAT     H113343   5.700   3.112   5.928
 4367WAT     H213344   5.800   3.236   5.891
 4368WAT      O13345   4.998   7.778   2.719
 4368WAT     H113346   4.951   7.810   2.636
 4368WAT     H213347   4.942   7.708   2.763
 4369WAT      O13348   8.449   6.919   8.855
 4369WAT     H113349   8.501   6.863   8.919
 4369WAT     H213350   8.362   6.874   8.836
 4370WAT      O13351   2.775   1.305   4.262
 4370WAT     H113352   2.702   1.262   4.209
 4370WAT     H213353   2.781   1.261   4.352
 4371WAT      O13354   0.012   4.659   9.809
 4371WAT     H113355  -0.027   4.583   9.860
 4371WAT     H213356   0.051   4.625   9.724
 4372WAT      O13357   3.744   7.284   8.286
 4372WAT     H113358   3.812   7.346   8.245
 4372WAT     H213359   3.748   7.292   8.386
 4373WAT      O13360   3.923   8.230   5.630
 4373WAT     H113361   3.980   8.311   5.618
 4373WAT     H213362   3.847   8.233   5.565
 4374WAT      O13363   3.988   6.613   6.405
 4374WAT     H113364   3.948   6.538   6.459
 4374WAT     H213365   4.015   6.578   6.316
 4375WAT      O13366   3.801   8.677   1.035
 4375WAT     H113367   3.788   8.582   1.065
 4375WAT     H213368   3.882   8.683   0.977
 4376WAT      O13369   2.025   9.712   6.889
 4376WAT     H113370   1.957   9.680   6.956
 4376WAT     H213371   2.088   9.775   6.934
 4377WAT      O13372   0.026   3.571   6.409
 4377WAT     H113373  -0.047   3.507   6.386
 4377WAT     H213374  -0.004   3.665   6.389
 4378WAT      O13375   4.986   5.159   3.984
 4378WAT     H113376   5.081   5.183   4.007
 4378WAT     H213377   4.986   5.093   3.909
 4379WAT      O13378   6.687   6.484   2.837
 4379WAT     H113379   6.684   6.422   2.916
 4379WAT     H213380   6.676   6.431   2.753
 4380WAT      O13381   3.041   0.447   9.127
 4380WAT     H113382   3.055   0.350   9.143
 4380WAT     H213383   2.945   0.470   9.143
 4381WAT      O13384   9.452   7.004   9.701
 4381WAT     H113385   9.373   6.943   9.699
 4381WAT     H213386   9.495   7.007   9.611
 4382WAT      O13387   8.742   1.846   1.100
 4382WAT     H113388   8.765   1.849   1.197
 4382WAT     H213389   8.826   1.829   1.047
 4383WAT      O13390   7.176   7.567   5.320
 4383WAT     H113391   7.275   7.565   5.313
 4383WAT     H213392   7.142   7.474   5.332
 4384WAT      O13393   1.548   6.295   2.682
 4384WAT     H113394   1.528   6.324   2.775
 4384WAT     H213395   1.494   6.349   2.617
 4385WAT      O13396   0.109   1.990   9.611
 4385WAT     H113397   0.068   1.989   9.520
 4385WAT     H213398   0.138   1.897   9.636
 4386WAT      O13399   5.377   2.002   3.508
 4386WAT     H113400   5.397   1.906   3.527
 4386WAT     H213401   5.394   2.057   3.590
 4387WAT      O13402   9.504   9.583   2.703
 4387WAT     H113403   9.474   9.492   2.731
 4387WAT     H213404   9.486   9.596   2.606
 4388WAT      O13405   1.812   2.610   1.570
 4388WAT     H113406   1.789   2.513   1.584
 4388WAT     H213407   1.806   2.631   1.472
 4389WAT      O13408   4.259   6.046   0.155
 4389WAT     H113409   4.200   5.965   0.157
 4389WAT     H213410   4.328   6.035   0.084
 4390WAT      O13411   9.711   3.718   3.203
 4390WAT     H113412   9.623   3.698   3.246
 4390WAT     H213413   9.699   3.787   3.132
 4391WAT      O13414   9.749   9.630   1.532
 4391WAT     H113415   9.847   9.609   1.536
 4391WAT     H213416   9.734   9.722   1.569
 4392WAT      O13417   1.525   7.887   4.359
 4392WAT     H113418   1.557   7.814   4.419
 4392WAT     H213419   1.495   7.965   4.413
 4393WAT      O13420   4.629   7.117   0.629
 4393WAT     H113421   4.704   7.054   0.608
 4393WAT     H213422   4.591   7.153   0.544
 4394WAT      O13423   9.695   9.162   9.510
 4394WAT     H113424   9.701   9.136   9.414
 4394WAT     H213425   9.643   9.248   9.518
 4395WAT      O13426   6.087   6.372   2.082
 4395WAT     H113427   6.140   6.291   2.108
 4395WAT     H213428   6.073   6.430   2.162
 4396WAT      O13429   9.867   8.839   8.718
 4396WAT     H113430   9.910   8.759   8.759
 4396WAT     H213431   9.770   8.821   8.702
 4397WAT      O13432   1.590   3.607   3.386
 4397WAT     H113433   1.678   3.655   3.389
 4397WAT     H213434   1.605   3.509   3.377
 4398WAT      O13435   9.497   6.205   2.266
 4398WAT     H113436   9.423   6.255   2.311
 4398WAT     H213437   9.468   6.181   2.173
 4399WAT      O13438   1.986   1.597   9.628
 4399WAT     H113439   2.032   1.615   9.542
 4399WAT     H213440   2.040   1.533   9.682
 4400WAT      O13441   0.063   9.686   3.508
 4400WAT     H113442  -0.025   9.642   3.491
 4400WAT     H213443   0.054   9.785   3.499
 4401WAT      O13444   6.949   3.537   5.246
 4401WAT     H113445   7.007   3.616   5.266
 4401WAT     H213446   6.887   3.521   5.323
 4402WAT      O13447   7.878   9.131   4.622
 4402WAT     H113448   7.809   9.117   4.692
 4402WAT     H213449   7.902   9.228   4.618
 4403WAT      O13450   1.706   3.754   1.709
 4403WAT     H113451   1.805   3.756   1.722
 4403WAT     H213452   1.676   3.842   1.672
 4404WAT      O13453   7.425   1.282   5.379
 4404WAT     H113454   7.407   1.302   5.475
 4404WAT     H213455   7.409   1.185   5.361
 4405WAT      O13456   4.761   4.755   7.412
 4405WAT     H113457   4.674   4.726   7.371
 4405WAT     H213458   4.767   4.855   7.408
 4406WAT      O13459   7.066   4.865   9.829
 4406WAT     H113460   7.116   4.793   9.877
 4406WAT     H213461   7.023   4.926   9.896
 4407WAT      O13462   6.311   0.599   1.086
 4407WAT     H113463   6.262   0.547   1.156
 4407WAT     H213464   6.260   0.683   1.065
 4408WAT      O13465   3.338   3.320   8.907
 4408WAT     H113466   3.403   3.262   8.957
 4408WAT     H213467   3.303   3.391   8.967
 4409WAT      O13468   3.124   3.494   4.821
 4409WAT     H113469   3.036   3.451   4.839
 4409WAT     H213470   3.130   3.518   4.724
 4410WAT      O13471   5.676   8.552   9.205
 4410WAT     H113472   5.660   8.607   9.287
 4410WAT     H213473   5.649   8.457   9.223
 4411WAT      O13474   8.177   3.654   2.145
 4411WAT     H113475   8.081   3.672   2.126
 4411WAT     H213476   8.194   3.662   2.243
 4412WAT      O13477   5.411   8.178   2.595
 4412WAT     H113478   5.386   8.188   2.691
 4412WAT     H213479   5.481   8.245   2.571
 4413WAT      O13480   7.838   2.496   2.141
 4413WAT     H113481   7.898   2.483   2.221
 4413WAT     H213482   7.870   2.439   2.066
 4414WAT      O13483   8.653   1.051   7.400
 4414WAT     H113484   8.645   1.150   7.415
 4414WAT     H213485   8.580   1.021   7.338
 4415WAT      O13486   3.110   3.217   6.196
 4415WAT     H113487   3.046   3.264   6.256
 4415WAT     H213488   3.158   3.284   6.140
 4416WAT      O13489   0.032   9.052   7.468
 4416WAT     H113490   0.107   8.998   7.429
 4416WAT     H213491  -0.042   9.058   7.401
 4417WAT      O13492   1.151   3.553   4.097
 4417WAT     H113493   1.094   3.538   4.178
 4417WAT     H213494   1.245   3.569   4.124
 4418WAT      O13495   6.802   8.314   7.889
 4418WAT     H113496   6.738   8.386   7.916
 4418WAT     H213497   6.805   8.243   7.959
 4419WAT      O13498   8.594   7.662   8.535
 4419WAT     H113499   8.632   7.683   8.625
 4419WAT     H213500   8.495   7.649   8.542
 4420WAT      O13501   7.897   8.004   9.744
 4420WAT     H113502   7.929   7.928   9.800
 4420WAT     H213503   7.806   8.032   9.774
 4421WAT      O13504   6.904   6.167   3.186
 4421WAT     H113505   6.828   6.218   3.227
 4421WAT     H213506   6.966   6.231   3.140
 4422WAT      O13507   8.951   4.342   4.533
 4422WAT     H113508   8.928   4.421   4.475
 4422WAT     H213509   8.870   4.285   4.544
 4423WAT      O13510   9.358   3.021   9.703
 4423WAT     H113511   9.305   3.028   9.619
 4423WAT     H213512   9.316   2.953   9.763
 4424WAT      O13513   1.637   0.676   1.488
 4424WAT     H113514   1.654   0.663   1.585
 4424WAT     H213515   1.673   0.764   1.458
 4425WAT      O13516   6.296   9.135   5.453
 4425WAT     H113517   6.307   9.203   5.525
 4425WAT     H213518   6.229   9.066   5.483
 4426WAT      O13519   0.248   5.162   1.376
 4426WAT     H113520   0.324   5.221   1.403
 4426WAT     H213521   0.199   5.132   1.458
 4427WAT      O13522   6.164   5.451   1.719
 4427WAT     H113523   6.147   5.506   1.637
 4427WAT     H213524   6.158   5.354   1.695
 4428WAT      O13525   4.652   7.046   1.434
 4428WAT     H113526   4.628   7.082   1.344
 4428WAT     H213527   4.738   7.088   1.464
 4429WAT      O13528   3.041   1.948   2.650
 4429WAT     H113529   3.102   1.998   2.712
 4429WAT     H213530   3.083   1.860   2.626
 4430WAT      O13531   1.190   3.786   5.734
 4430WAT     H113532   1.245   3.716   5.689
 4430WAT     H213533   1.250   3.857   5.770
 4431WAT      O13534   5.381   1.666   1.689
 4431WAT     H113535   5.446   1.598   1.655
 4431WAT     H213536   5.308   1.620   1.740
 4432WAT      O13537   2.754   7.519   2.263
 4432WAT     H113538   2.659   7.549   2.279
 4432WAT     H213539   2.759   7.473   2.175
 4433WAT      O13540   6.349   8.869   2.340
 4433WAT     H113541   6.313   8.892   2.431
 4433WAT     H213542   6.324   8.940   2.275
 4434WAT      O13543   3.686   7.603   9.788
 4434WAT     H113544   3.605   7.641   9.745
 4434WAT     H213545   3.764   7.664   9.772
 4435WAT      O13546   3.285   4.848   2.367
 4435WAT     H113547   3.253   4.920   2.428
 4435WAT     H213548   3.350   4.887   2.302
 4436WAT      O13549   3.684   8.340   0.346
 4436WAT     H113550   3.651   8.418   0.292
 4436WAT     H213551   3.736   8.278   0.287
 4437WAT      O13552   0.176   1.213   1.507
 4437WAT     H113553   0.180   1.286   1.438
 4437WAT     H213554   0.091   1.221   1.558
 4438WAT      O13555   9.844   1.032   6.230
 4438WAT     H113556   9.896   0.956   6.270
 4438WAT     H213557   9.899   1.115   6.232
 4439WAT      O13558   2.811   8.457   2.211
 4439WAT     H113559   2.828   8.552   2.237
 4439WAT     H213560   2.754   8.456   2.129
 4440WAT      O13561   9.318   2.140   0.874
 4440WAT     H113562   9.332   2.236   0.853
 4440WAT     H213563   9.362   2.118   0.961
 4441WAT      O13564   6.714   7.119   6.507
 4441WAT     H113565   6.649   7.087   6.577
 4441WAT     H213566   6.716   7.219   6.508
 4442WAT      O13567   3.405   2.900   6.369
 4442WAT     H113568   3.463   2.909   6.451
 4442WAT     H213569   3.413   2.983   6.313
 4443WAT      O13570   3.376   9.811   4.965
 4443WAT     H113571   3.340   9.764   5.045
 4443WAT     H213572   3.370   9.910   4.979
 4444WAT      O13573   2.710   9.792   6.637
 4444WAT     H113574   2.797   9.839   6.625
 4444WAT     H213575   2.702   9.719   6.569
 4445WAT      O13576   0.413   5.429   0.255
 4445WAT     H113577   0.340   5.489   0.287
 4445WAT     H213578   0.373   5.344   0.220
 4446WAT      O13579   0.132   3.138   9.345
 4446WAT     H113580   0.098   3.107   9.434
 4446WAT     H213581   0.054   3.155   9.284
 4447WAT      O13582   5.871   4.539   8.104
 4447WAT     H113583   5.842   4.579   8.191
 4447WAT     H213584   5.847   4.442   8.102
 4448WAT      O13585   3.366   6.099   0.780
 4448WAT     H113586   3.270   6.118   0.759
 4448WAT     H213587   3.424   6.164   0.731
 4449WAT      O13588   8.374   5.450   1.551
 4449WAT     H113589   8.293   5.489   1.508
 4449WAT     H213590   8.404   5.369   1.500
 4450WAT      O13591   4.944   3.927   1.494
 4450WAT     H113592   5.004   3.872   1.552
 4450WAT     H213593   4.884   3.867   1.441
 4451WAT      O13594   6.793   6.928   2.035
 4451WAT     H113595   6.883   6.963   2.059
 4451WAT     H213596   6.784   6.927   1.935
 4452WAT      O13597   1.899   4.330   5.107
 4452WAT     H113598   1.941   4.338   5.016
 4452WAT     H213599   1.970   4.308   5.174
 4453WAT      O13600   7.187   0.169   8.099
 4453WAT     H113601   7.271   0.223   8.113
 4453WAT     H213602   7.211   0.078   8.067
 4454WAT      O13603   6.050   0.829   7.133
 4454WAT     H113604   6.000   0.869   7.210
 4454WAT     H213605   6.148   0.842   7.146
 4455WAT      O13606   5.926   7.738   6.996
 4455WAT     H113607   5.902   7.647   7.030
 4455WAT     H213608   5.846   7.798   7.002
 4456WAT      O13609   3.725   3.497   9.723
 4456WAT     H113610   3.825   3.502   9.718
 4456WAT     H213611   3.697   3.458   9.810
 4457WAT      O13612   6.402   4.986   7.352
 4457WAT     H113613   6.387   4.966   7.448
 4457WAT     H213614   6.401   4.900   7.299
 4458WAT      O13615   2.697   0.243   7.233
 4458WAT     H113616   2.659   0.153   7.214
 4458WAT     H213617   2.693   0.299   7.150
 4459WAT      O13618   2.854   6.630   9.638
 4459WAT     H113619   2.839   6.687   9.719
 4459WAT     H213620   2.815   6.540   9.653
 4460WAT      O13621   6.812   2.749   5.679
 4460WAT     H113622   6.857   2.724   5.593
 4460WAT     H213623   6.789   2.846   5.677
 4461WAT      O13624   8.919   4.599   5.126
 4461WAT     H113625   8.869   4.524   5.170
 4461WAT     H213626   8.945   4.573   5.033
 4462WAT      O13627   7.314   1.182   7.822
 4462WAT     H113628   7.392   1.128   7.790
 4462WAT     H213629   7.328   1.278   7.797
 4463WAT      O13630   0.690   0.474   3.034
 4463WAT     H113631   0.619   0.410   3.064
 4463WAT     H213632   0.653   0.567   3.034
 4464WAT      O13633   6.129   1.445   1.228
 4464WAT     H113634   6.037   1.442   1.188
 4464WAT     H213635   6.137   1.525   1.287
 4465WAT      O13636   5.829   7.382   2.242
 4465WAT     H113637   5.878   7.444   2.182
 4465WAT     H213638   5.755   7.337   2.191
 4466WAT      O13639   6.250   3.013   2.913
 4466WAT     H113640   6.295   2.988   2.999
 4466WAT     H213641   6.312   3.070   2.858
 4467WAT      O13642   3.284   0.632   6.630
 4467WAT     H113643   3.380   0.627   6.658
 4467WAT     H213644   3.273   0.705   6.563
 4468WAT      O13645   5.338   4.138   9.689
 4468WAT     H113646   5.421   4.154   9.635
 4468WAT     H213647   5.273   4.212   9.672
 4469WAT      O13648   3.555   9.197   6.239
 4469WAT     H113649   3.463   9.159   6.246
 4469WAT     H213650   3.566   9.271   6.306
 4470WAT      O13651   3.287   9.260   0.453
 4470WAT     H113652   3.272   9.161   0.454
 4470WAT     H213653   3.372   9.282   0.501
 4471WAT      O13654   1.827   4.947   1.728
 4471WAT     H113655   1.891   5.017   1.761
 4471WAT     H213656   1.830   4.944   1.628
 4472WAT      O13657   9.508   2.108   9.533
 4472WAT     H113658   9.507   2.066   9.623
 4472WAT     H213659   9.591   2.162   9.522
 4473WAT      O13660   8.595   8.698   2.821
 4473WAT     H113661   8.505   8.679   2.860
 4473WAT     H213662   8.585   8.734   2.729
 4474WAT      O13663   4.101   4.579   4.891
 4474WAT     H113664   4.024   4.629   4.850
 4474WAT     H213665   4.069   4.490   4.924
 4475WAT      O13666   3.018   0.722   3.279
 4475WAT     H113667   2.959   0.790   3.233
 4475WAT     H213668   2.960   0.658   3.330
 4476WAT      O13669   8.751   0.747   8.355
 4476WAT     H113670   8.707   0.707   8.274
 4476WAT     H213671   8.845   0.773   8.331
 4477WAT      O13672   8.086   4.169   0.376
 4477WAT     H113673   8.032   4.085   0.388
 4477WAT     H213674   8.039   4.245   0.420
 4478WAT      O13675   5.027   2.213   5.466
 4478WAT     H113676   5.079   2.215   5.380
 4478WAT     H213677   4.943   2.266   5.455
 4479WAT      O13678   5.011   6.503   6.882
 4479WAT     H113679   5.006   6.545   6.792
 4479WAT     H213680   4.936   6.538   6.939
 4480WAT      O13681   4.952   8.059   9.684
 4480WAT     H113682   4.976   8.116   9.762
 4480WAT     H213683   4.910   8.115   9.612
 4481WAT      O13684   2.773   5.953   1.918
 4481WAT     H113685   2.744   5.887   1.988
 4481WAT     H213686   2.859   5.995   1.946
 4482WAT      O13687   8.871   1.637   2.971
 4482WAT     H113688   8.939   1.663   3.039
 4482WAT     H213689   8.876   1.538   2.956
 4483WAT      O13690   3.832   4.669   9.164
 4483WAT     H113691   3.924   4.705   9.177
 4483WAT     H213692   3.768   4.744   9.151
 4484WAT      O13693   7.349   2.953   7.849
 4484WAT     H113694   7.331   3.008   7.768
 4484WAT     H213695   7.389   3.010   7.921
 4485WAT      O13696   5.327   2.523   8.455
 4485WAT     H113697   5.357   2.428   8.457
 4485WAT     H213698   5.228   2.527   8.440
 4486WAT      O13699   0.366   6.121   6.825
 4486WAT     H113700   0.308   6.087   6.898
 4486WAT     H213701   0.360   6.061   6.745
 4487WAT      O13702   2.798   7.538   7.197
 4487WAT     H113703   2.723   7.570   7.254
 4487WAT     H213704   2.849   7.467   7.246
 4488WAT      O13705   6.104   3.012   0.926
 4488WAT     H113706   6.191   3.021   0.974
 4488WAT     H213707   6.083   2.915   0.912
 4489WAT      O13708   3.547   2.267   6.964
 4489WAT     H113709   3.536   2.205   6.887
 4489WAT     H213710   3.498   2.353   6.945
 4490WAT      O13711   2.385   5.794   3.392
 4490WAT     H113712   2.400   5.722   3.460
 4490WAT     H213713   2.362   5.752   3.304
 4491WAT      O13714   2.869   9.462   6.798
 4491WAT     H113715   2.924   9.409   6.734
 4491WAT     H213716   2.775   9.469   6.763
 4492WAT      O13717   9.312   7.158   2.885
 4492WAT     H113718   9.324   7.063   2.854
 4492WAT     H213719   9.398   7.192   2.921
 4493WAT      O13720   5.382   9.581   0.269
 4493WAT     H113721   5.309   9.630   0.315
 4493WAT     H213722   5.379   9.485   0.295
 4494WAT      O13723   5.146   0.679   3.830
 4494WAT     H113724   5.130   0.771   3.865
 4494WAT     H213725   5.070   0.619   3.856
 4495WAT      O13726   2.410   6.960   8.491
 4495WAT     H113727   2.346   6.883   8.487
 4495WAT     H213728   2.387   7.018   8.570
 4496WAT      O13729   7.452   7.269   8.548
 4496WAT     H113730   7.479   7.224   8.463
 4496WAT     H213731   7.503   7.229   8.624
 4497WAT      O13732   7.805   5.305   6.658
 4497WAT     H113733   7.843   5.283   6.568
 4497WAT     H213734   7.866   5.269   6.729
 4498WAT      O13735   8.120   8.518   1.830
 4498WAT     H113736   8.057   8.576   1.778
 4498WAT     H213737   8.164   8.452   1.769
 4499WAT      O13738   7.576   4.675   2.254
 4499WAT     H113739   7.661   4.706   2.296
 4499WAT     H213740   7.501   4.734   2.284
 4500WAT      O13741   1.097   1.420   0.726
 4500WAT     H113742   1.093   1.519   0.733
 4500WAT     H213743   1.064   1.378   0.811
 4501WAT      O13744   6.902   7.378   8.648
 4501WAT     H113745   6.853   7.299   8.613
 4501WAT     H213746   6.841   7.433   8.706
 4502WAT      O13747   6.571   2.409   7.806
 4502WAT     H113748   6.497   2.460   7.850
 4502WAT     H213749   6.540   2.317   7.783
 4503WAT      O13750   2.116   1.219   3.820
 4503WAT     H113751   2.147   1.173   3.737
 4503WAT     H213752   2.189   1.219   3.888
 4504WAT      O13753   0.345   2.980   0.159
 4504WAT     H113754   0.434   2.972   0.206
 4504WAT     H213755   0.295   2.894   0.169
 4505WAT      O13756   1.868   3.718   1.382
 4505WAT     H113757   1.901   3.679   1.468
 4505WAT     H213758   1.946   3.735   1.322
 4506WAT      O13759   6.259   3.388   2.893
 4506WAT     H113760   6.292   3.319   2.828
 4506WAT     H213761   6.165   3.413   2.869
 4507WAT      O13762   6.557   8.104   5.329
 4507WAT     H113763   6.475   8.130   5.277
 4507WAT     H213764   6.575   8.007   5.316
 4508WAT      O13765   6.356   5.078   5.830
 4508WAT     H113766   6.363   4.981   5.805
 4508WAT     H213767   6.294   5.088   5.908
 4509WAT      O13768   0.177   3.546   4.587
 4509WAT     H113769   0.088   3.573   4.550
 4509WAT     H213770   0.162   3.484   4.665
 4510WAT      O13771   6.815   6.687   7.161
 4510WAT     H113772   6.881   6.613   7.148
 4510WAT     H213773   6.791   6.694   7.258
 4511WAT      O13774   1.141   6.796   0.563
 4511WAT     H113775   1.070   6.779   0.632
 4511WAT     H213776   1.110   6.869   0.502
 4512WAT      O13777   6.390   8.710   1.536
 4512WAT     H113778   6.339   8.649   1.596
 4512WAT     H213779   6.362   8.695   1.441
 4513WAT      O13780   6.621   5.799   2.060
 4513WAT     H113781   6.612   5.725   1.993
 4513WAT     H213782   6.664   5.878   2.016
 4514WAT      O13783   5.317   6.403   5.572
 4514WAT     H113784   5.355   6.316   5.603
 4514WAT     H213785   5.297   6.461   5.651
 4515WAT      O13786   2.576   5.221   8.224
 4515WAT     H113787   2.510   5.187   8.291
 4515WAT     H213788   2.547   5.311   8.192
 4516WAT      O13789   6.180   6.590   1.959
 4516WAT     H113790   6.151   6.676   2.001
 4516WAT     H213791   6.147   6.513   2.014
 4517WAT      O13792   0.118   9.743   3.808
 4517WAT     H113793   0.117   9.708   3.715
 4517WAT     H213794   0.108   9.843   3.806
 4518WAT      O13795   6.485   8.094   1.115
 4518WAT     H113796   6.396   8.050   1.107
 4518WAT     H213797   6.555   8.026   1.138
 4519WAT      O13798   6.468   1.554   1.974
 4519WAT     H113799   6.414   1.624   1.928
 4519WAT     H213800   6.542   1.598   2.026
 4520WAT      O13801   8.154   8.786   0.255
 4520WAT     H113802   8.075   8.819   0.203
 4520WAT     H213803   8.165   8.688   0.239
 4521WAT      O13804   6.237   7.893   9.851
 4521WAT     H113805   6.246   7.923   9.945
 4521WAT     H213806   6.295   7.950   9.792
 4522WAT      O13807   2.496   3.338   2.616
 4522WAT     H113808   2.576   3.281   2.600
 4522WAT     H213809   2.416   3.280   2.631
 4523WAT      O13810   4.716   8.132   5.084
 4523WAT     H113811   4.622   8.098   5.087
 4523WAT     H213812   4.715   8.232   5.078
 4524WAT      O13813   3.904   9.132   1.953
 4524WAT     H113814   3.976   9.083   2.001
 4524WAT     H213815   3.883   9.085   1.867
 4525WAT      O13816   1.569   1.541   7.664
 4525WAT     H113817   1.529   1.579   7.581
 4525WAT     H213818   1.497   1.502   7.721
 4526WAT      O13819   3.297   0.002   1.455
 4526WAT     H113820   3.295   0.063   1.375
 4526WAT     H213821   3.292  -0.093   1.424
 4527WAT      O13822   4.888   7.913   8.315
 4527WAT     H113823   4.932   7.878   8.232
 4527WAT     H213824   4.864   7.836   8.374
 4528WAT      O13825   1.136   1.936   8.751
 4528WAT     H113826   1.061   1.883   8.790
 4528WAT     H213827   1.164   1.895   8.665
 4529WAT      O13828   0.045   0.989   4.543
 4529WAT     H113829   0.010   0.922   4.609
 4529WAT     H213830  -0.031   1.042   4.506
 4530WAT      O13831   4.112   7.580   4.052
 4530WAT     H113832   4.201   7.599   4.092
 4530WAT     H213833   4.118   7.585   3.952
 4531WAT      O13834   4.462   6.910   9.623
 4531WAT     H113835   4.511   6.857   9.554
 4531WAT     H213836   4.491   6.880   9.714
 4532WAT      O13837   1.297   5.249   7.269
 4532WAT     H113838   1.202   5.221   7.257
 4532WAT     H213839   1.340   5.262   7.180
 4533WAT      O13840   6.845   3.102   7.611
 4533WAT     H113841   6.769   3.159   7.644
 4533WAT     H213842   6.862   3.029   7.677
 4534WAT      O13843   2.766   8.227   3.667
 4534WAT     H113844   2.700   8.292   3.628
 4534WAT     H213845   2.740   8.204   3.760
 4535WAT      O13846   1.229   2.125   5.893
 4535WAT     H113847   1.254   2.134   5.797
 4535WAT     H213848   1.284   2.052   5.935
 4536WAT      O13849   1.431   7.170   0.341
 4536WAT     H113850   1.440   7.255   0.290
 4536WAT     H213851   1.402   7.097   0.280
 4537WAT      O13852   6.393   1.225   3.894
 4537WAT     H113853   6.406   1.323   3.881
 4537WAT     H213854   6.296   1.203   3.893
 4538WAT      O13855   3.353   0.515   8.443
 4538WAT     H113856   3.265   0.467   8.442
 4538WAT     H213857   3.358   0.576   8.364
 4539WAT      O13858   8.514   2.916   9.672
 4539WAT     H113859   8.465   2.962   9.599
 4539WAT     H213860   8.452   2.903   9.750
 4540WAT      O13861   9.383   6.819   1.107
 4540WAT     H113862   9.447   6.754   1.065
 4540WAT     H213863   9.422   6.911   1.105
 4541WAT      O13864   6.184   6.687   8.713
 4541WAT     H113865   6.091   6.653   8.698
 4541WAT     H213866   6.246   6.645   8.647
 4542WAT      O13867   7.057   7.077   4.134
 4542WAT     H113868   7.090   7.002   4.076
 4542WAT     H213869   7.103   7.162   4.108
 4543WAT      O13870   5.991   3.740   2.890
 4543WAT     H113871   5.900   3.750   2.930
 4543WAT     H213872   5.993   3.657   2.834
 4544WAT      O13873   2.375   4.926   0.237
 4544WAT     H113874   2.474   4.939   0.231
 4544WAT     H213875   2.337   4.986   0.307
 4545WAT      O13876   6.861   7.182   2.642
 4545WAT     H113877   6.805   7.100   2.634
 4545WAT     H213878   6.815   7.258   2.596
 4546WAT      O13879   6.971   7.864   1.479
 4546WAT     H113880   6.956   7.962   1.491
 4546WAT     H213881   7.032   7.831   1.551
 4547WAT      O13882   1.610   2.262   2.587
 4547WAT     H113883   1.701   2.292   2.558
 4547WAT     H213884   1.558   2.230   2.507
 4548WAT      O13885   7.631   6.298   5.556
 4548WAT     H113886   7.708   6.291   5.493
 4548WAT     H213887   7.548   6.323   5.505
 4549WAT      O13888   9.214   6.700   1.791
 4549WAT     H113889   9.273   6.661   1.720
 4549WAT     H213890   9.247   6.673   1.881
 4550WAT      O13891   7.031   4.193   6.425
 4550WAT     H113892   7.071   4.103   6.445
 4550WAT     H213893   6.997   4.195   6.331
 4551WAT      O13894   9.827   3.450   2.492
 4551WAT     H113895   9.777   3.365   2.509
 4551WAT     H213896   9.915   3.429   2.448
 4552WAT      O13897   6.911   8.465   7.187
 4552WAT     H113898   6.873   8.557   7.186
 4552WAT     H213899   6.839   8.399   7.165
 4553WAT      O13900   0.117   2.566   1.221
 4553WAT     H113901   0.155   2.658   1.208
 4553WAT     H213902   0.127   2.514   1.136
 4554WAT      O13903   7.102   9.727   3.678
 4554WAT     H113904   7.026   9.700   3.620
 4554WAT     H213905   7.069   9.791   3.748
 4555WAT      O13906   2.115   1.336   3.141
 4555WAT     H113907   2.028   1.379   3.165
 4555WAT     H213908   2.184   1.406   3.124
 4556WAT      O13909   2.771   3.867   7.802
 4556WAT     H113910   2.699   3.841   7.738
 4556WAT     H213911   2.736   3.865   7.895
 4557WAT      O13912   7.880   2.540   4.273
 4557WAT     H113913   7.967   2.509   4.234
 4557WAT     H213914   7.873   2.510   4.368
 4558WAT      O13915   3.373   3.346   8.636
 4558WAT     H113916   3.346   3.334   8.732
 4558WAT     H213917   3.415   3.262   8.602
 4559WAT      O13918   1.413   3.349   7.499
 4559WAT     H113919   1.345   3.373   7.430
 4559WAT     H213920   1.415   3.419   7.570
 4560WAT      O13921   0.128   8.043   4.870
 4560WAT     H113922   0.038   8.087   4.866
 4560WAT     H213923   0.195   8.109   4.905
 4561WAT      O13924   9.304   8.862   6.844
 4561WAT     H113925   9.234   8.791   6.843
 4561WAT     H213926   9.329   8.885   6.750
 4562WAT      O13927   1.296   2.073   4.763
 4562WAT     H113928   1.230   2.148   4.768
 4562WAT     H213929   1.320   2.044   4.856
 4563WAT      O13930   4.311   5.218   3.047
 4563WAT     H113931   4.275   5.264   3.128
 4563WAT     H213932   4.236   5.181   2.993
 4564WAT      O13933   5.044   1.242   3.592
 4564WAT     H113934   5.101   1.324   3.599
 4564WAT     H213935   5.073   1.174   3.658
 4565WAT      O13936   2.965   3.458   6.980
 4565WAT     H113937   3.000   3.365   6.992
 4565WAT     H213938   2.955   3.502   7.069
 4566WAT      O13939   0.123   2.091   0.729
 4566WAT     H113940   0.032   2.091   0.687
 4566WAT     H213941   0.164   2.000   0.720
 4567WAT      O13942   2.382   9.773   1.686
 4567WAT     H113943   2.455   9.805   1.746
 4567WAT     H213944   2.396   9.677   1.665
 4568WAT      O13945   0.354   0.937   9.262
 4568WAT     H113946   0.302   0.991   9.196
 4568WAT     H213947   0.421   0.881   9.215
 4569WAT      O13948   2.237   0.253   0.701
 4569WAT     H113949   2.230   0.335   0.758
 4569WAT     H213950   2.248   0.173   0.760
 4570WAT      O13951   1.865   3.233   7.611
 4570WAT     H113952   1.795   3.282   7.560
 4570WAT     H213953   1.951   3.285   7.608
 4571WAT      O13954   6.675   8.970   1.510
 4571WAT     H113955   6.697   8.939   1.602
 4571WAT     H213956   6.719   8.910   1.443
 4572WAT      O13957   0.652   1.770   8.161
 4572WAT     H113958   0.561   1.809   8.177
 4572WAT     H213959   0.719   1.844   8.158
 4573WAT      O13960   7.937   2.732   5.853
 4573WAT     H113961   7.864   2.720   5.785
 4573WAT     H213962   7.911   2.805   5.916
 4574WAT      O13963   8.281   9.560   8.203
 4574WAT     H113964   8.296   9.653   8.238
 4574WAT     H213965   8.363   9.505   8.221
 4575WAT      O13966   9.072   6.014   0.541
 4575WAT     H113967   9.068   6.103   0.495
 4575WAT     H213968   8.985   5.967   0.530
 4576WAT      O13969   2.606   1.796   6.949
 4576WAT     H113970   2.623   1.699   6.931
 4576WAT     H213971   2.688   1.838   6.988
 4577WAT      O13972   4.811   9.824   8.490
 4577WAT     H113973   4.796   9.728   8.468
 4577WAT     H213974   4.869   9.866   8.421
 4578WAT      O13975   9.833   5.543   7.791
 4578WAT     H113976   9.829   5.612   7.863
 4578WAT     H213977   9.781   5.463   7.819
 4579WAT      O13978   7.484   3.268   1.239
 4579WAT     H113979   7.480   3.365   1.213
 4579WAT     H213980   7.426   3.252   1.319
 4580WAT      O13981   7.873   7.218   3.430
 4580WAT     H113982   7.786   7.169   3.434
 4580WAT     H213983   7.859   7.306   3.384
 4581WAT      O13984   9.500   2.798   3.031
 4581WAT     H113985   9.582   2.822   3.082
 4581WAT     H213986   9.475   2.703   3.049
 4582WAT      O13987   5.368   5.573   0.911
 4582WAT     H113988   5.450   5.520   0.932
 4582WAT     H213989   5.340   5.556   0.817
 4583WAT      O13990   2.032   6.255   6.720
 4583WAT     H113991   1.949   6.253   6.776
 4583WAT     H213992   2.046   6.348   6.686
 4584WAT      O13993   4.781   0.964   5.686
 4584WAT     H113994   4.872   0.923   5.683
 4584WAT     H213995   4.786   1.051   5.736
 4585WAT      O13996   1.802   8.696   6.494
 4585WAT     H113997   1.710   8.731   6.508
 4585WAT     H213998   1.799   8.598   6.475
 4586WAT      O13999   7.612   3.591   4.046
 4586WAT     H114000   7.586   3.518   4.109
 4586WAT     H214001   7.535   3.614   3.987
 4587WAT      O14002   2.667   3.678   0.748
 4587WAT     H114003   2.704   3.714   0.833
 4587WAT     H214004   2.734   3.616   0.706
 4588WAT      O14005   5.078   8.522   0.305
 4588WAT     H114006   5.127   8.598   0.262
 4588WAT     H214007   5.033   8.555   0.388
 4589WAT      O14008   0.902   0.998   1.846
 4589WAT     H114009   0.979   1.015   1.907
 4589WAT     H214010   0.931   1.011   1.751
 4590WAT      O14011   7.224   6.325   1.507
 4590WAT     H114012   7.224   6.265   1.587
 4590WAT     H214013   7.315   6.366   1.496
 4591WAT      O14014   6.879   9.390   6.590
 4591WAT     H114015   6.839   9.324   6.654
 4591WAT     H214016   6.850   9.366   6.497
 4592WAT      O14017   8.836   7.348   5.789
 4592WAT     H114018   8.833   7.444   5.761
 4592WAT     H214019   8.790   7.337   5.877
 4593WAT      O14020   2.665   4.242   4.020
 4593WAT     H114021   2.655   4.300   3.939
 4593WAT     H214022   2.713   4.158   3.995
 4594WAT      O14023   7.002   5.339   7.110
 4594WAT     H114024   7.077   5.293   7.063
 4594WAT     H214025   7.016   5.333   7.209
 4595WAT      O14026   7.065   3.579   5.640
 4595WAT     H114027   7.023   3.558   5.728
 4595WAT     H214028   7.156   3.539   5.636
 4596WAT      O14029   2.388   6.465   0.844
 4596WAT     H114030   2.418   6.370   0.838
 4596WAT     H214031   2.301   6.471   0.893
 4597WAT      O14032   5.082   1.448   7.803
 4597WAT     H114033   5.019   1.374   7.827
 4597WAT     H214034   5.092   1.452   7.703
 4598WAT      O14035   2.615   2.239   7.101
 4598WAT     H114036   2.578   2.298   7.172
 4598WAT     H214037   2.545   2.221   7.032
 4599WAT      O14038   5.644   7.754   8.433
 4599WAT     H114039   5.725   7.755   8.492
 4599WAT     H214040   5.672   7.732   8.339
 4600WAT      O14041   8.447   7.028   7.684
 4600WAT     H114042   8.395   7.057   7.764
 4600WAT     H214043   8.422   7.084   7.605
 4601WAT      O14044   5.462   6.169   8.485
 4601WAT     H114045   5.543   6.189   8.540
 4601WAT     H214046   5.388   6.137   8.544
 4602WAT      O14047   8.414   6.825   7.385
 4602WAT     H114048   8.470   6.818   7.468
 4602WAT     H214049   8.318   6.811   7.408
 4603WAT      O14050   9.785   0.089   8.669
 4603WAT     H114051   9.693   0.057   8.691
 4603WAT     H214052   9.839   0.094   8.753
 4604WAT      O14053   2.422   0.839   6.752
 4604WAT     H114054   2.457   0.837   6.659
 4604WAT     H214055   2.333   0.885   6.753
 4605WAT      O14056   3.677   6.900   7.089
 4605WAT     H114057   3.584   6.931   7.073
 4605WAT     H214058   3.741   6.964   7.046
 4606WAT      O14059   7.217   0.819   2.893
 4606WAT     H114060   7.215   0.733   2.841
 4606WAT     H214061   7.256   0.891   2.836
 4607WAT      O14062   2.365   3.202   6.767
 4607WAT     H114063   2.405   3.160   6.686
 4607WAT     H214064   2.278   3.245   6.743
 4608WAT      O14065   1.607   1.195   2.014
 4608WAT     H114066   1.704   1.192   2.035
 4608WAT     H214067   1.565   1.273   2.060
 4609WAT      O14068   3.595   5.161   7.539
 4609WAT     H114069   3.536   5.083   7.558
 4609WAT     H214070   3.611   5.212   7.624
 4610WAT      O14071   0.723   1.680   5.989
 4610WAT     H114072   0.760   1.590   6.010
 4610WAT     H214073   0.773   1.719   5.911
 4611WAT      O14074   0.540   6.834   5.930
 4611WAT     H114075   0.571   6.907   5.869
 4611WAT     H214076   0.547   6.865   6.025
 4612WAT      O14077   8.447   3.847   4.259
 4612WAT     H114078   8.426   3.940   4.290
 4612WAT     H214079   8.363   3.795   4.247
 4613WAT      O14080   0.606   2.179   6.867
 4613WAT     H114081   0.646   2.100   6.914
 4613WAT     H214082   0.509   2.162   6.850
 4614WAT      O14083   9.515   3.038   0.977
 4614WAT     H114084   9.503   3.060   0.880
 4614WAT     H214085   9.550   2.945   0.986
 4615WAT      O14086   9.292   5.142   9.040
 4615WAT     H114087   9.322   5.218   9.097
 4615WAT     H214088   9.269   5.176   8.948
 4616WAT      O14089   0.910   4.926   2.425
 4616WAT     H114090   0.967   5.007   2.416
 4616WAT     H214091   0.884   4.892   2.334
 4617WAT      O14092   7.615   6.456   5.779
 4617WAT     H114093   7.623   6.412   5.690
 4617WAT     H214094   7.562   6.397   5.841
 4618WAT      O14095   4.025   0.632   8.741
 4618WAT     H114096   3.925   0.625   8.740
 4618WAT     H214097   4.054   0.675   8.827
 4619WAT      O14098   8.993   6.074   7.249
 4619WAT     H114099   9.075   6.061   7.194
 4619WAT     H214100   8.938   5.990   7.247
 4620WAT      O14101   1.055   0.832   3.858
 4620WAT     H114102   1.049   0.827   3.957
 4620WAT     H214103   1.087   0.923   3.831
 4621WAT      O14104   0.762   3.168   1.509
 4621WAT     H114105   0.748   3.261   1.474
 4621WAT     H214106   0.810   3.114   1.440
 4622WAT      O14107   6.178   6.686   5.420
 4622WAT     H114108   6.139   6.615   5.478
 4622WAT     H214109   6.264   6.719   5.461
 4623WAT      O14110   5.838   6.155   8.918
 4623WAT     H114111   5.801   6.093   8.849
 4623WAT     H214112   5.770   6.227   8.938
 4624WAT      O14113   3.260   8.900   3.923
 4624WAT     H114114   3.238   8.955   3.843
 4624WAT     H214115   3.176   8.882   3.975
 4625WAT      O14116   3.456   4.028   5.063
 4625WAT     H114117   3.509   4.030   4.978
 4625WAT     H214118   3.366   3.987   5.045
 4626WAT      O14119   8.189   7.511   5.037
 4626WAT     H114120   8.188   7.575   4.960
 4626WAT     H214121   8.104   7.519   5.089
 4627WAT      O14122   2.573   0.228   0.607
 4627WAT     H114123   2.486   0.278   0.605
 4627WAT     H214124   2.649   0.292   0.614
 4628WAT      O14125   2.944   3.013   2.345
 4628WAT     H114126   2.979   3.064   2.266
 4628WAT     H214127   2.859   3.054   2.376
 4629WAT      O14128   0.502   3.054   9.619
 4629WAT     H114129   0.587   3.083   9.663
 4629WAT     H214130   0.483   3.113   9.540
 4630WAT      O14131   9.038   2.045   0.912
 4630WAT     H114132   9.130   2.028   0.877
 4630WAT     H214133   9.025   1.994   0.997
 4631WAT      O14134   5.028   6.862   4.604
 4631WAT     H114135   5.046   6.784   4.663
 4631WAT     H214136   4.965   6.835   4.531
 4632WAT      O14137   0.270   4.294   3.741
 4632WAT     H114138   0.274   4.391   3.716
 4632WAT     H214139   0.283   4.285   3.840
 4633WAT      O14140   1.010   4.177   7.297
 4633WAT     H114141   0.987   4.150   7.204
 4633WAT     H214142   0.949   4.250   7.326
 4634WAT      O14143   9.482   5.693   8.292
 4634WAT     H114144   9.429   5.775   8.313
 4634WAT     H214145   9.421   5.617   8.271
 4635WAT      O14146   3.754   8.111   0.232
 4635WAT     H114147   3.810   8.070   0.161
 4635WAT     H214148   3.674   8.054   0.249
 4636WAT      O14149   8.452   1.053   9.074
 4636WAT     H114150   8.487   0.993   9.002
 4636WAT     H214151   8.520   1.124   9.094
 4637WAT      O14152   5.545   4.294   6.381
 4637WAT     H114153   5.452   4.288   6.415
 4637WAT     H214154   5.546   4.350   6.298
 4638WAT      O14155   9.268   2.903   5.243
 4638WAT     H114156   9.260   2.804   5.252
 4638WAT     H214157   9.254   2.946   5.333
 4639WAT      O14158   5.652   4.580   0.277
 4639WAT     H114159   5.621   4.626   0.361
 4639WAT     H214160   5.733   4.627   0.241
 4640WAT      O14161   4.197   3.892   4.434
 4640WAT     H114162   4.221   3.987   4.455
 4640WAT     H214163   4.234   3.832   4.505
 4641WAT      O14164   5.900   3.536   2.501
 4641WAT     H114165   5.833   3.482   2.552
 4641WAT     H214166   5.856   3.620   2.469
 4642WAT      O14167   8.324   1.667   9.665
 4642WAT     H114168   8.415   1.693   9.698
 4642WAT     H214169   8.255   1.727   9.706
 4643WAT      O14170   8.793   1.562   6.870
 4643WAT     H114171   8.737   1.644   6.857
 4643WAT     H214172   8.735   1.488   6.904
 4644WAT      O14173   5.098   8.351   6.482
 4644WAT     H114174   5.094   8.263   6.529
 4644WAT     H214175   5.152   8.342   6.398
 4645WAT      O14176   4.406   0.772   0.679
 4645WAT     H114177   4.382   0.856   0.727
 4645WAT     H214178   4.325   0.714   0.669
 4646WAT      O14179   9.372   4.710   2.879
 4646WAT     H114180   9.452   4.665   2.841
 4646WAT     H214181   9.289   4.676   2.834
 4647WAT      O14182   2.895   6.485   3.966
 4647WAT     H114183   2.837   6.557   3.927
 4647WAT     H214184   2.889   6.403   3.909
 4648WAT      O14185   1.076   1.625   0.998
 4648WAT     H114186   1.134   1.596   1.074
 4648WAT     H214187   1.129   1.625   0.914
 4649WAT      O14188   3.470   5.307   2.661
 4649WAT     H114189   3.538   5.368   2.702
 4649WAT     H214190   3.467   5.322   2.562
 4650WAT      O14191   1.728   9.815   4.394
 4650WAT     H114192   1.678   9.740   4.350
 4650WAT     H214193   1.819   9.823   4.354
 4651WAT      O14194   9.333   5.261   3.175
 4651WAT     H114195   9.417   5.312   3.191
 4651WAT     H214196   9.355   5.166   3.152
 4652WAT      O14197   8.998   8.786   0.363
 4652WAT     H114198   8.942   8.755   0.439
 4652WAT     H214199   8.979   8.729   0.282
 4653WAT      O14200   6.347   1.281   0.705
 4653WAT     H114201   6.312   1.374   0.714
 4653WAT     H214202   6.341   1.252   0.610
 4654WAT      O14203   0.735   0.641   7.228
 4654WAT     H114204   0.654   0.652   7.170
 4654WAT     H214205   0.812   0.690   7.187
 4655WAT      O14206   3.923   0.635   7.916
 4655WAT     H114207   3.977   0.567   7.966
 4655WAT     H214208   3.845   0.662   7.972
 4656WAT      O14209   6.751   2.797   6.096
 4656WAT     H114210   6.735   2.736   6.019
 4656WAT     H214211   6.813   2.753   6.161
 4657WAT      O14212   9.153   0.534   6.384
 4657WAT     H114213   9.154   0.625   6.343
 4657WAT     H214214   9.205   0.470   6.328
 4658WAT      O14215   8.580   4.667   5.655
 4658WAT     H114216   8.561   4.597   5.585
 4658WAT     H214217   8.559   4.757   5.617
 4659WAT      O14218   7.757   7.123   9.566
 4659WAT     H114219   7.666   7.104   9.603
 4659WAT     H214220   7.751   7.198   9.500
 4660WAT      O14221   1.850   8.579   7.896
 4660WAT     H114222   1.881   8.598   7.989
 4660WAT     H214223   1.840   8.665   7.846
 4661WAT      O14224   4.408   3.293   8.081
 4661WAT     H114225   4.440   3.206   8.044
 4661WAT     H214226   4.419   3.364   8.011
 4662WAT      O14227   1.277   0.474   1.834
 4662WAT     H114228   1.223   0.486   1.917
 4662WAT     H214229   1.263   0.552   1.773
 4663WAT      O14230   6.345   9.505   5.481
 4663WAT     H114231   6.406   9.457   5.418
 4663WAT     H214232   6.322   9.595   5.444
 4664WAT      O14233   8.431   0.537   9.449
 4664WAT     H114234   8.501   0.468   9.468
 4664WAT     H214235   8.473   0.615   9.403
 4665WAT      O14236   3.575   9.101   1.856
 4665WAT     H114237   3.485   9.108   1.813
 4665WAT     H214238   3.565   9.098   1.956
 4666WAT      O14239   8.665   0.259   6.391
 4666WAT     H114240   8.575   0.219   6.410
 4666WAT     H214241   8.653   0.345   6.340
 4667WAT      O14242   8.243   9.533   3.826
 4667WAT     H114243   8.241   9.490   3.736
 4667WAT     H214244   8.314   9.604   3.828
 4668WAT      O14245   9.857   7.797   4.343
 4668WAT     H114246   9.775   7.815   4.397
 4668WAT     H214247   9.851   7.846   4.257
 4669WAT      O14248   9.760   1.664   1.716
 4669WAT     H114249   9.685   1.671   1.783
 4669WAT     H214250   9.816   1.746   1.721
 4670WAT      O14251   1.509   8.884   2.018
 4670WAT     H114252   1.569   8.815   1.979
 4670WAT     H214253   1.514   8.968   1.963
 4671WAT      O14254   8.741   0.309   1.708
 4671WAT     H114255   8.809   0.239   1.682
 4671WAT     H214256   8.730   0.308   1.807
 4672WAT      O14257   6.945   8.284   6.756
 4672WAT     H114258   7.005   8.305   6.833
 4672WAT     H214259   6.997   8.237   6.685
 4673WAT      O14260   6.776   6.571   9.607
 4673WAT     H114261   6.873   6.558   9.585
 4673WAT     H214262   6.729   6.484   9.604
 4674WAT      O14263   7.650   5.530   7.077
 4674WAT     H114264   7.629   5.610   7.022
 4674WAT     H214265   7.748   5.525   7.095
 4675WAT      O14266   0.029   4.442   8.224
 4675WAT     H114267  -0.038   4.394   8.280
 4675WAT     H214268  -0.015   4.480   8.143
 4676WAT      O14269   3.129   5.266   3.701
 4676WAT     H114270   3.224   5.248   3.731
 4676WAT     H214271   3.069   5.198   3.742
 4677WAT      O14272   2.968   8.278   6.272
 4677WAT     H114273   2.979   8.372   6.302
 4677WAT     H214274   3.004   8.268   6.179
 4678WAT      O14275   8.513   2.626   0.049
 4678WAT     H114276   8.545   2.718   0.073
 4678WAT     H214277   8.559   2.596  -0.035
 4679WAT      O14278   9.763   3.441   0.528
 4679WAT     H114279   9.723   3.525   0.564
 4679WAT     H214280   9.859   3.458   0.504
 4680WAT      O14281   9.439   1.153   5.629
 4680WAT     H114282   9.358   1.181   5.680
 4680WAT     H214283   9.519   1.156   5.689
 4681WAT      O14284   4.592   4.251   9.638
 4681WAT     H114285   4.634   4.233   9.727
 4681WAT     H214286   4.637   4.330   9.595
 4682WAT      O14287   5.674   0.652   8.225
 4682WAT     H114288   5.644   0.665   8.130
 4682WAT     H214289   5.764   0.608   8.226
 4683WAT      O14290   1.892   3.653   3.761
 4683WAT     H114291   1.872   3.732   3.818
 4683WAT     H214292   1.990   3.652   3.740
 4684WAT      O14293   2.579   8.436   5.841
 4684WAT     H114294   2.515   8.445   5.765
 4684WAT     H214295   2.534   8.393   5.918
 4685WAT      O14296   5.024   8.144   5.237
 4685WAT     H114297   5.020   8.201   5.155
 4685WAT     H214298   5.078   8.190   5.307
 4686WAT      O14299   6.220   3.834   1.785
 4686WAT     H114300   6.172   3.757   1.743
 4686WAT     H214301   6.302   3.854   1.731
 4687WAT      O14302   0.347   0.531   4.704
 4687WAT     H114303   0.331   0.596   4.630
 4687WAT     H214304   0.435   0.486   4.690
 4688WAT      O14305   0.655   3.203   3.931
 4688WAT     H114306   0.667   3.300   3.909
 4688WAT     H214307   0.624   3.194   4.026
 4689WAT      O14308   8.168   4.633   0.936
 4689WAT     H114309   8.186   4.722   0.977
 4689WAT     H214310   8.089   4.591   0.980
 4690WAT      O14311   2.859   3.818   6.513
 4690WAT     H114312   2.939   3.838   6.569
 4690WAT     H214313   2.862   3.872   6.429
 4691WAT      O14314   1.757   2.675   2.000
 4691WAT     H114315   1.725   2.766   1.973
 4691WAT     H214316   1.727   2.655   2.093
 4692WAT      O14317   3.075   1.831   8.817
 4692WAT     H114318   3.031   1.745   8.791
 4692WAT     H214319   3.010   1.906   8.808
 4693WAT      O14320   1.503   1.261   0.039
 4693WAT     H114321   1.601   1.257   0.061
 4693WAT     H214322   1.469   1.354   0.055
 4694WAT      O14323   6.629   6.646   6.023
 4694WAT     H114324   6.676   6.709   5.962
 4694WAT     H214325   6.532   6.641   5.998
 4695WAT      O14326   0.443   2.582   5.511
 4695WAT     H114327   0.428   2.581   5.610
 4695WAT     H214328   0.488   2.667   5.485
 4696WAT      O14329   8.890   0.581   6.427
 4696WAT     H114330   8.982   0.547   6.406
 4696WAT     H214331   8.843   0.516   6.487
 4697WAT      O14332   5.903   2.012   2.409
 4697WAT     H114333   5.984   1.978   2.362
 4697WAT     H214334   5.822   1.992   2.354
 4698WAT      O14335   3.430   4.107   4.296
 4698WAT     H114336   3.427   4.050   4.214
 4698WAT     H214337   3.341   4.151   4.309
 4699WAT      O14338   7.151   5.568   9.720
 4699WAT     H114339   7.218   5.577   9.647
 4699WAT     H214340   7.090   5.647   9.720
 4700WAT      O14341   3.017   8.670   4.180
 4700WAT     H114342   3.098   8.612   4.166
 4700WAT     H214343   2.937   8.613   4.197
 4701WAT      O14344   2.964   1.207   8.108
 4701WAT     H114345   3.061   1.195   8.127
 4701WAT     H214346   2.912   1.190   8.192
 4702WAT      O14347   0.598   8.186   6.434
 4702WAT     H114348   0.671   8.254   6.429
 4702WAT     H214349   0.607   8.133   6.518
 4703WAT      O14350   5.503   0.521   1.971
 4703WAT     H114351   5.513   0.522   1.871
 4703WAT     H214352   5.415   0.561   1.996
 4704WAT      O14353   1.604   1.736   3.941
 4704WAT     H114354   1.588   1.782   4.028
 4704WAT     H214355   1.696   1.697   3.941
 4705WAT      O14356   1.609   7.576   3.763
 4705WAT     H114357   1.676   7.587   3.836
 4705WAT     H214358   1.645   7.615   3.678
 4706WAT      O14359   0.662   7.593   3.041
 4706WAT     H114360   0.591   7.523   3.047
 4706WAT     H214361   0.708   7.601   3.129
 4707WAT      O14362   3.615   6.724   9.292
 4707WAT     H114363   3.551   6.669   9.345
 4707WAT     H214364   3.565   6.791   9.238
 4708WAT      O14365   9.534   9.694   8.801
 4708WAT     H114366   9.486   9.775   8.835
 4708WAT     H214367   9.587   9.719   8.720
 4709WAT      O14368   0.313   3.719   3.217
 4709WAT     H114369   0.355   3.629   3.229
 4709WAT     H214370   0.337   3.756   3.127
 4710WAT      O14371   9.203   2.090   7.849
 4710WAT     H114372   9.291   2.137   7.841
 4710WAT     H214373   9.211   2.014   7.914
 4711WAT      O14374   7.995   7.341   5.306
 4711WAT     H114375   7.940   7.367   5.386
 4711WAT     H214376   8.075   7.400   5.300
 4712WAT      O14377   6.226   8.421   9.711
 4712WAT     H114378   6.307   8.478   9.698
 4712WAT     H214379   6.230   8.343   9.649
 4713WAT      O14380   8.917   3.450   5.638
 4713WAT     H114381   8.851   3.497   5.579
 4713WAT     H214382   8.988   3.408   5.582
 4714WAT      O14383   8.732   0.761   7.551
 4714WAT     H114384   8.821   0.782   7.511
 4714WAT     H214385   8.697   0.841   7.599
 4715WAT      O14386   1.655   6.688   6.780
 4715WAT     H114387   1.695   6.610   6.829
 4715WAT     H214388   1.727   6.752   6.753
 4716WAT      O14389   6.228   2.528   9.295
 4716WAT     H114390   6.292   2.552   9.368
 4716WAT     H214391   6.139   2.569   9.315
 4717WAT      O14392   9.851   0.576   9.419
 4717WAT     H114393   9.828   0.650   9.481
 4717WAT     H214394   9.891   0.500   9.471
 4718WAT      O14395   0.399   7.014   1.807
 4718WAT     H114396   0.328   7.084   1.804
 4718WAT     H214397   0.484   7.053   1.844
 4719WAT      O14398   1.080   8.114   7.245
 4719WAT     H114399   1.090   8.037   7.308
 4719WAT     H214400   1.128   8.094   7.159
 4720WAT      O14401   7.426   8.375   3.770
 4720WAT     H114402   7.400   8.290   3.815
 4720WAT     H214403   7.395   8.374   3.675
 4721WAT      O14404   8.605   6.652   6.522
 4721WAT     H114405   8.678   6.717   6.538
 4721WAT     H214406   8.530   6.669   6.587
 4722WAT      O14407   9.079   3.391   3.418
 4722WAT     H114408   9.160   3.338   3.393
 4722WAT     H214409   9.054   3.451   3.342
 4723WAT      O14410   1.897   2.598   4.992
 4723WAT     H114411   1.844   2.518   4.962
 4723WAT     H214412   1.995   2.579   4.984
 4724WAT      O14413   6.374   0.346   6.180
 4724WAT     H114414   6.427   0.417   6.133
 4724WAT     H214415   6.288   0.385   6.212
 4725WAT      O14416   6.285   2.846   6.501
 4725WAT     H114417   6.196   2.802   6.508
 4725WAT     H214418   6.316   2.844   6.406
 4726WAT      O14419   4.206   9.732   9.638
 4726WAT     H114420   4.251   9.754   9.724
 4726WAT     H214421   4.169   9.816   9.597
 4727WAT      O14422   7.649   2.624   1.747
 4727WAT     H114423   7.651   2.531   1.712
 4727WAT     H214424   7.636   2.622   1.846
 4728WAT      O14425   5.342   9.814   3.318
 4728WAT     H114426   5.306   9.857   3.402
 4728WAT     H214427   5.316   9.718   3.317
 4729WAT      O14428   4.065   1.155   1.093
 4729WAT     H114429   4.069   1.055   1.099
 4729WAT     H214430   4.088   1.183   0.999
 4730WAT      O14431   4.017   6.948   7.735
 4730WAT     H114432   4.058   6.957   7.644
 4730WAT     H214433   4.021   7.035   7.783
 4731WAT      O14434   6.244   2.574   5.782
 4731WAT     H114435   6.232   2.571   5.683
 4731WAT     H214436   6.341   2.591   5.803
 4732WAT      O14437   8.476   7.975   9.335
 4732WAT     H114438   8.516   8.065   9.346
 4732WAT     H214439   8.431   7.948   9.420
 4733WAT      O14440   9.684   0.597   0.562
 4733WAT     H114441   9.642   0.678   0.602
 4733WAT     H214442   9.634   0.516   0.590
 4734WAT      O14443   8.654   4.220   6.478
 4734WAT     H114444   8.558   4.224   6.503
 4734WAT     H214445   8.664   4.176   6.389
 4735WAT      O14446   2.700   3.567   7.475
 4735WAT     H114447   2.712   3.588   7.378
 4735WAT     H214448   2.757   3.628   7.529
 4736WAT      O14449   8.081   3.583   6.695
 4736WAT     H114450   8.081   3.529   6.779
 4736WAT     H214451   8.008   3.652   6.700
 4737WAT      O14452   0.236   8.970   6.249
 4737WAT     H114453   0.180   8.921   6.316
 4737WAT     H214454   0.176   9.027   6.192
 4738WAT      O14455   3.027   5.738   7.844
 4738WAT     H114456   3.101   5.695   7.896
 4738WAT     H214457   2.950   5.758   7.904
 4739WAT      O14458   4.275   4.295   0.892
 4739WAT     H114459   4.218   4.354   0.948
 4739WAT     H214460   4.254   4.310   0.795
 4740WAT      O14461   7.023   0.973   0.397
 4740WAT     H114462   6.937   1.025   0.391
 4740WAT     H214463   7.099   1.036   0.408
 4741WAT      O14464   3.509   7.371   6.583
 4741WAT     H114465   3.475   7.338   6.670
 4741WAT     H214466   3.559   7.297   6.536
 4742WAT      O14467   0.003   1.205   1.170
 4742WAT     H114468  -0.036   1.128   1.218
 4742WAT     H214469   0.049   1.266   1.235
 4743WAT      O14470   0.615   1.490   4.459
 4743WAT     H114471   0.548   1.451   4.522
 4743WAT     H214472   0.589   1.584   4.436
 4744WAT      O14473   5.622   8.828   6.951
 4744WAT     H114474   5.665   8.847   6.863
 4744WAT     H214475   5.580   8.911   6.986
 4745WAT      O14476   8.877   4.026   3.423
 4745WAT     H114477   8.839   4.117   3.402
 4745WAT     H214478   8.877   4.013   3.522
 4746WAT      O14479   3.152   8.263   6.564
 4746WAT     H114480   3.159   8.184   6.503
 4746WAT     H214481   3.243   8.298   6.584
 4747WAT      O14482   6.092   7.933   4.007
 4747WAT     H114483   6.033   7.965   4.081
 4747WAT     H214484   6.040   7.934   3.921
 4748WAT      O14485   8.830   5.388   5.711
 4748WAT     H114486   8.907   5.361   5.769
 4748WAT     H214487   8.747   5.397   5.767
 4749WAT      O14488   8.199   4.885   1.036
 4749WAT     H114489   8.200   4.985   1.046
 4749WAT     H214490   8.179   4.843   1.125
 4750WAT      O14491   8.726   4.686   6.551
 4750WAT     H114492   8.660   4.716   6.483
 4750WAT     H214493   8.677   4.658   6.634
 4751WAT      O14494   0.950   5.500   5.901
 4751WAT     H114495   0.853   5.517   5.883
 4751WAT     H214496   1.006   5.559   5.842
 4752WAT      O14497   8.338   4.063   8.962
 4752WAT     H114498   8.401   3.994   9.000
 4752WAT     H214499   8.289   4.023   8.885
 4753WAT      O14500   6.788   0.465   8.025
 4753WAT     H114501   6.834   0.526   7.961
 4753WAT     H214502   6.705   0.429   7.984
 4754WAT      O14503   5.057   2.204   8.346
 4754WAT     H114504   5.092   2.126   8.294
 4754WAT     H214505   5.069   2.288   8.293
 4755WAT      O14506   4.133   4.818   7.672
 4755WAT     H114507   4.161   4.722   7.671
 4755WAT     H214508   4.079   4.839   7.591
 4756WAT      O14509   8.011   3.985   5.352
 4756WAT     H114510   8.000   3.954   5.257
 4756WAT     H214511   8.005   3.906   5.413
 4757WAT      O14512   6.601   3.676   1.211
 4757WAT     H114513   6.587   3.762   1.260
 4757WAT     H214514   6.619   3.694   1.115
 4758WAT      O14515   6.928   9.175   7.851
 4758WAT     H114516   6.956   9.101   7.912
 4758WAT     H214517   6.897   9.253   7.905
 4759WAT      O14518   9.610   1.403   3.816
 4759WAT     H114519   9.544   1.381   3.888
 4759WAT     H214520   9.614   1.328   3.750
 4760WAT      O14521   0.460   5.365   5.173
 4760WAT     H114522   0.525   5.406   5.237
 4760WAT     H214523   0.381   5.330   5.223
 4761WAT      O14524   1.372   6.106   6.470
 4761WAT     H114525   1.317   6.084   6.551
 4761WAT     H214526   1.350   6.198   6.439
 4762WAT      O14527   6.719   2.243   0.880
 4762WAT     H114528   6.805   2.194   0.867
 4762WAT     H214529   6.681   2.221   0.970
 4763WAT      O14530   9.260   6.040   4.778
 4763WAT     H114531   9.204   5.972   4.729
 4763WAT     H214532   9.200   6.099   4.832
 4764WAT      O14533   7.777   8.838   8.993
 4764WAT     H114534   7.838   8.823   8.915
 4764WAT     H214535   7.823   8.895   9.061
 4765WAT      O14536   7.238   9.797   8.643
 4765WAT     H114537   7.330   9.824   8.672
 4765WAT     H214538   7.172   9.824   8.713
 4766WAT      O14539   8.732   3.659   5.187
 4766WAT     H114540   8.666   3.590   5.217
 4766WAT     H214541   8.688   3.724   5.126
 4767WAT      O14542   7.265   1.074   3.791
 4767WAT     H114543   7.265   1.077   3.691
 4767WAT     H214544   7.257   0.979   3.821
 4768WAT      O14545   2.305   1.260   4.006
 4768WAT     H114546   2.342   1.349   4.033
 4768WAT     H214547   2.254   1.220   4.082
 4769WAT      O14548   0.257   3.514   7.083
 4769WAT     H114549   0.321   3.442   7.057
 4769WAT     H214550   0.184   3.520   7.015
 4770WAT      O14551   8.955   0.869   8.248
 4770WAT     H114552   9.022   0.814   8.198
 4770WAT     H214553   8.942   0.957   8.202
 4771WAT      O14554   2.081   3.015   7.353
 4771WAT     H114555   2.151   3.062   7.301
 4771WAT     H214556   2.085   3.045   7.449
 4772WAT      O14557   5.505   1.298   5.169
 4772WAT     H114558   5.420   1.315   5.119
 4772WAT     H214559   5.558   1.383   5.174
 4773WAT      O14560   6.037   4.812   4.853
 4773WAT     H114561   5.967   4.854   4.912
 4773WAT     H214562   6.046   4.866   4.769
 4774WAT      O14563   9.665   2.025   5.320
 4774WAT     H114564   9.649   2.071   5.408
 4774WAT     H214565   9.580   1.982   5.289
 4775WAT      O14566   9.764   5.278   7.037
 4775WAT     H114567   9.853   5.316   7.063
 4775WAT     H214568   9.776   5.207   6.968
 4776WAT      O14569   1.356   1.247   6.068
 4776WAT     H114570   1.395   1.233   5.977
 4776WAT     H214571   1.273   1.302   6.060
 4777WAT      O14572   9.175   9.549   0.957
 4777WAT     H114573   9.106   9.582   1.022
 4777WAT     H214574   9.195   9.622   0.891
 4778WAT      O14575   1.258   2.277   6.318
 4778WAT     H114576   1.223   2.184   6.330
 4778WAT     H214577   1.273   2.295   6.221
 4779WAT      O14578   9.696   0.228   7.136
 4779WAT     H114579   9.711   0.203   7.232
 4779WAT     H214580   9.772   0.286   7.105
 4780WAT      O14581   7.235   8.694   3.641
 4780WAT     H114582   7.157   8.631   3.636
 4780WAT     H214583   7.308   8.661   3.580
 4781WAT      O14584   4.929   6.537   2.530
 4781WAT     H114585   4.950   6.443   2.556
 4781WAT     H214586   4.830   6.553   2.540
 4782WAT      O14587   3.045   1.224   2.686
 4782WAT     H114588   3.056   1.134   2.728
 4782WAT     H214589   2.962   1.224   2.631
 4783WAT      O14590   1.275   3.111   0.340
 4783WAT     H114591   1.304   3.192   0.290
 4783WAT     H214592   1.261   3.135   0.436
 4784WAT      O14593   3.823   1.988   3.402
 4784WAT     H114594   3.868   2.069   3.363
 4784WAT     H214595   3.837   1.910   3.342
 4785WAT      O14596   9.272   0.754   7.064
 4785WAT     H114597   9.336   0.686   7.028
 4785WAT     H214598   9.319   0.842   7.074
 4786WAT      O14599   2.327   8.953   5.308
 4786WAT     H114600   2.367   9.045   5.309
 4786WAT     H214601   2.359   8.904   5.227
 4787WAT      O14602   7.728   0.268   0.342
 4787WAT     H114603   7.812   0.298   0.296
 4787WAT     H214604   7.708   0.329   0.418
 4788WAT      O14605   6.467   8.452   8.404
 4788WAT     H114606   6.562   8.453   8.375
 4788WAT     H214607   6.463   8.455   8.504
 4789WAT      O14608   0.343   4.450   1.363
 4789WAT     H114609   0.298   4.506   1.294
 4789WAT     H214610   0.441   4.471   1.365
 4790WAT      O14611   2.249   2.433   6.886
 4790WAT     H114612   2.309   2.364   6.924
 4790WAT     H214613   2.303   2.511   6.855
 4791WAT      O14614   7.295   2.190   0.205
 4791WAT     H114615   7.251   2.279   0.214
 4791WAT     H214616   7.253   2.140   0.129
 4792WAT      O14617   9.188   8.876   2.626
 4792WAT     H114618   9.112   8.927   2.585
 4792WAT     H214619   9.154   8.821   2.702
 4793WAT      O14620   7.657   4.512   6.164
 4793WAT     H114621   7.642   4.414   6.170
 4793WAT     H214622   7.628   4.545   6.074
 4794WAT      O14623   3.513   8.124   7.479
 4794WAT     H114624   3.575   8.110   7.556
 4794WAT     H214625   3.566   8.120   7.394
 4795WAT      O14626   8.326   6.708   5.974
 4795WAT     H114627   8.296   6.755   6.056
 4795WAT     H214628   8.332   6.610   5.991
 4796WAT      O14629   6.870   6.556   4.987
 4796WAT     H114630   6.852   6.470   5.035
 4796WAT     H214631   6.964   6.558   4.955
 4797WAT      O14632   5.129   4.336   7.679
 4797WAT     H114633   5.147   4.376   7.589
 4797WAT     H214634   5.206   4.278   7.705
 4798WAT      O14635   5.373   7.758   9.808
 4798WAT     H114636   5.424   7.828   9.758
 4798WAT     H214637   5.411   7.747   9.900
 4799WAT      O14638   5.545   1.506   3.442
 4799WAT     H114639   5.486   1.575   3.482
 4799WAT     H214640   5.491   1.446   3.382
 4800WAT      O14641   5.913   4.224   2.970
 4800WAT     H114642   5.822   4.267   2.972
 4800WAT     H214643   5.941   4.202   3.063
 4801WAT      O14644   5.697   7.048   5.952
 4801WAT     H114645   5.735   6.980   5.890
 4801WAT     H214646   5.772   7.098   5.996
 4802WAT      O14647   5.104   1.420   4.720
 4802WAT     H114648   5.006   1.438   4.726
 4802WAT     H214649   5.152   1.478   4.787
 4803WAT      O14650   8.524   7.103   5.186
 4803WAT     H114651   8.505   7.145   5.098
 4803WAT     H214652   8.448   7.119   5.248
 4804WAT      O14653   1.042   8.924   4.798
 4804WAT     H114654   1.115   8.936   4.866
 4804WAT     H214655   1.082   8.916   4.707
 4805WAT      O14656   0.953   4.324   6.988
 4805WAT     H114657   1.041   4.278   6.973
 4805WAT     H214658   0.890   4.301   6.914
 4806WAT      O14659   1.775   4.681   3.728
 4806WAT     H114660   1.848   4.654   3.790
 4806WAT     H214661   1.812   4.696   3.636
 4807WAT      O14662   5.363   6.028   7.103
 4807WAT     H114663   5.312   6.042   7.018
 4807WAT     H214664   5.337   6.098   7.170
 4808WAT      O14665   7.470   4.278   6.652
 4808WAT     H114666   7.462   4.259   6.555
 4808WAT     H214667   7.379   4.294   6.691
 4809WAT      O14668   9.341   9.586   0.523
 4809WAT     H114669   9.243   9.574   0.536
 4809WAT     H214670   9.390   9.538   0.596
 4810WAT      O14671   4.891   3.224   4.308
 4810WAT     H114672   4.851   3.133   4.302
 4810WAT     H214673   4.817   3.292   4.314
 4811WAT      O14674   6.018   4.890   5.707
 4811WAT     H114675   6.108   4.849   5.724
 4811WAT     H214676   5.968   4.896   5.793
 4812WAT      O14677   3.096   6.707   1.104
 4812WAT     H114678   3.034   6.748   1.170
 4812WAT     H214679   3.187   6.748   1.113
 4813WAT      O14680   1.229   3.365   4.411
 4813WAT     H114681   1.148   3.383   4.356
 4813WAT     H214682   1.285   3.296   4.367
 4814WAT      O14683   6.739   3.609   4.863
 4814WAT     H114684   6.835   3.631   4.843
 4814WAT     H214685   6.699   3.561   4.784
 4815WAT      O14686   0.857   2.950   8.996
 4815WAT     H114687   0.828   2.925   8.904
 4815WAT     H214688   0.876   2.868   9.049
 4816WAT      O14689   1.328   7.662   0.947
 4816WAT     H114690   1.299   7.568   0.926
 4816WAT     H214691   1.379   7.699   0.870
 4817WAT      O14692   1.937   0.766   1.556
 4817WAT     H114693   1.875   0.844   1.550
 4817WAT     H214694   1.981   0.751   1.468
 4818WAT      O14695   9.801   3.813   3.447
 4818WAT     H114696   9.768   3.768   3.364
 4818WAT     H214697   9.768   3.908   3.449
 4819WAT      O14698   0.745   3.965   3.316
 4819WAT     H114699   0.796   3.920   3.390
 4819WAT     H214700   0.662   4.005   3.354
 4820WAT      O14701   5.225   9.505   4.731
 4820WAT     H114702   5.205   9.503   4.829
 4820WAT     H214703   5.187   9.424   4.687
 4821WAT      O14704   7.404   9.682   1.046
 4821WAT     H114705   7.354   9.760   1.084
 4821WAT     H214706   7.340   9.606   1.032
 4822WAT      O14707   3.972   0.113   6.459
 4822WAT     H114708   3.984   0.015   6.478
 4822WAT     H214709   4.055   0.162   6.485
 4823WAT      O14710   8.927   7.828   7.116
 4823WAT     H114711   8.843   7.837   7.170
 4823WAT     H214712   8.906   7.842   7.019
 4824WAT      O14713   5.767   1.694   2.974
 4824WAT     H114714   5.822   1.659   2.899
 4824WAT     H214715   5.752   1.620   3.041
 4825WAT      O14716   5.661   6.619   7.167
 4825WAT     H114717   5.717   6.652   7.243
 4825WAT     H214718   5.684   6.524   7.147
 4826WAT      O14719   8.650   9.376   4.515
 4826WAT     H114720   8.585   9.308   4.483
 4826WAT     H214721   8.704   9.411   4.438
 4827WAT      O14722   4.689   7.362   8.642
 4827WAT     H114723   4.616   7.316   8.691
 4827WAT     H214724   4.752   7.294   8.604
 4828WAT      O14725   8.199   6.585   3.874
 4828WAT     H114726   8.201   6.684   3.861
 4828WAT     H214727   8.215   6.563   3.970
 4829WAT      O14728   3.957   6.041   2.127
 4829WAT     H114729   3.920   6.120   2.175
 4829WAT     H214730   3.983   5.971   2.194
 4830WAT      O14731   4.147   3.655   6.107
 4830WAT     H114732   4.111   3.630   6.017
 4830WAT     H214733   4.245   3.674   6.099
 4831WAT      O14734   8.126   8.963   1.804
 4831WAT     H114735   8.222   8.956   1.833
 4831WAT     H214736   8.071   9.000   1.878
 4832WAT      O14737   0.102   1.092   5.090
 4832WAT     H114738   0.050   1.128   5.167
 4832WAT     H214739   0.053   1.015   5.049
 4833WAT      O14740   0.171   5.613   8.212
 4833WAT     H114741   0.145   5.684   8.278
 4833WAT     H214742   0.234   5.652   8.145
 4834WAT      O14743   4.628   6.214   6.197
 4834WAT     H114744   4.535   6.199   6.231
 4834WAT     H214745   4.692   6.156   6.248
 4835WAT      O14746   0.588   4.061   6.907
 4835WAT     H114747   0.593   4.092   7.002
 4835WAT     H214748   0.599   3.962   6.903
 4836WAT      O14749   1.360   4.130   4.513
 4836WAT     H114750   1.359   4.216   4.564
 4836WAT     H214751   1.382   4.054   4.575
 4837WAT      O14752   4.318   9.427   1.281
 4837WAT     H114753   4.345   9.510   1.329
 4837WAT     H214754   4.381   9.353   1.306
 4838WAT      O14755   6.491   2.076   3.462
 4838WAT     H114756   6.516   2.157   3.515
 4838WAT     H214757   6.532   1.995   3.504
 4839WAT      O14758   6.768   8.166   0.961
 4839WAT     H114759   6.794   8.070   0.949
 4839WAT     H214760   6.753   8.184   1.058
 4840WAT      O14761   7.179   2.590   2.710
 4840WAT     H114762   7.110   2.620   2.644
 4840WAT     H214763   7.251   2.539   2.662
 4841WAT      O14764   2.151   8.632   3.421
 4841WAT     H114765   2.198   8.693   3.358
 4841WAT     H214766   2.136   8.679   3.508
 4842WAT      O14767   5.355   9.400   6.636
 4842WAT     H114768   5.283   9.470   6.638
 4842WAT     H214769   5.438   9.440   6.595
 4843WAT      O14770   6.200   0.841   9.750
 4843WAT     H114771   6.238   0.930   9.777
 4843WAT     H214772   6.168   0.846   9.655
 4844WAT      O14773   2.562   9.205   1.922
 4844WAT     H114774   2.498   9.137   1.887
 4844WAT     H214775   2.655   9.184   1.892
 4845WAT      O14776   2.028   9.711   8.502
 4845WAT     H114777   2.038   9.633   8.441
 4845WAT     H214778   2.057   9.794   8.455
 4846WAT      O14779   1.240   6.146   7.255
 4846WAT     H114780   1.189   6.061   7.262
 4846WAT     H214781   1.334   6.127   7.224
 4847WAT      O14782   7.370   4.034   9.590
 4847WAT     H114783   7.433   4.105   9.560
 4847WAT     H214784   7.364   3.963   9.520
 4848WAT      O14785   0.191   2.965   3.124
 4848WAT     H114786   0.205   3.020   3.041
 4848WAT     H214787   0.166   3.026   3.200
 4849WAT      O14788   7.169   1.385   8.079
 4849WAT     H114789   7.103   1.439   8.027
 4849WAT     H214790   7.262   1.405   8.046
 4850WAT      O14791   6.658   2.138   1.981
 4850WAT     H114792   6.694   2.224   1.944
 4850WAT     H214793   6.606   2.091   1.910
 4851WAT      O14794   3.532   4.845   4.772
 4851WAT     H114795   3.455   4.781   4.772
 4851WAT     H214796   3.530   4.900   4.689
 4852WAT      O14797   1.027   1.001   0.935
 4852WAT     H114798   1.121   0.976   0.914
 4852WAT     H214799   0.965   0.954   0.872
 4853WAT      O14800   4.614   0.875   8.562
 4853WAT     H114801   4.565   0.923   8.489
 4853WAT     H214802   4.602   0.923   8.648
 4854WAT      O14803   6.112   0.296   5.475
 4854WAT     H114804   6.061   0.375   5.508
 4854WAT     H214805   6.062   0.252   5.400
 4855WAT      O14806   0.119   4.809   8.694
 4855WAT     H114807   0.151   4.902   8.714
 4855WAT     H214808   0.198   4.748   8.687
 4856WAT      O14809   7.968   9.411   4.772
 4856WAT     H114810   7.936   9.381   4.862
 4856WAT     H214811   8.068   9.399   4.767
 4857WAT      O14812   5.228   2.901   7.647
 4857WAT     H114813   5.182   2.817   7.617
 4857WAT     H214814   5.160   2.974   7.659
 4858WAT      O14815   3.860   3.375   4.607
 4858WAT     H114816   3.883   3.411   4.697
 4858WAT     H214817   3.901   3.284   4.596
 4859WAT      O14818   1.150   1.426   0.149
 4859WAT     H114819   1.245   1.450   0.170
 4859WAT     H214820   1.091   1.450   0.226
 4860WAT      O14821   0.127   8.421   5.454
 4860WAT     H114822   0.186   8.494   5.420
 4860WAT     H214823   0.069   8.456   5.528
 4861WAT      O14824   1.422   6.314   6.811
 4861WAT     H114825   1.371   6.400   6.812
 4861WAT     H214826   1.474   6.306   6.726
 4862WAT      O14827   1.939   8.249   2.152
 4862WAT     H114828   1.844   8.269   2.178
 4862WAT     H214829   1.997   8.250   2.233
 4863WAT      O14830   7.895   1.699   9.413
 4863WAT     H114831   7.976   1.758   9.419
 4863WAT     H214832   7.925   1.604   9.402
 4864WAT      O14833   3.042   5.912   9.524
 4864WAT     H114834   2.976   5.846   9.489
 4864WAT     H214835   3.020   5.934   9.619
 4865WAT      O14836   6.959   3.558   2.395
 4865WAT     H114837   7.010   3.530   2.313
 4865WAT     H214838   6.934   3.654   2.388
 4866WAT      O14839   5.009   0.657   0.154
 4866WAT     H114840   4.974   0.568   0.185
 4866WAT     H214841   5.093   0.643   0.102
 4867WAT      O14842   4.484   8.355   4.380
 4867WAT     H114843   4.579   8.344   4.350
 4867WAT     H214844   4.456   8.272   4.429
 4868WAT      O14845   5.181   4.073   3.022
 4868WAT     H114846   5.203   3.985   2.980
 4868WAT     H214847   5.206   4.071   3.118
 4869WAT      O14848   9.060   6.786   8.487
 4869WAT     H114849   8.984   6.845   8.460
 4869WAT     H214850   9.092   6.734   8.408
 4870WAT      O14851   0.419   7.785   4.260
 4870WAT     H114852   0.402   7.819   4.168
 4870WAT     H214853   0.357   7.830   4.325
 4871WAT      O14854   6.708   0.929   5.868
 4871WAT     H114855   6.785   0.920   5.805
 4871WAT     H214856   6.722   1.010   5.925
 4872WAT      O14857   8.502   2.672   3.961
 4872WAT     H114858   8.507   2.710   3.868
 4872WAT     H214859   8.500   2.572   3.957
 4873WAT      O14860   4.116   0.859   5.880
 4873WAT     H114861   4.136   0.905   5.967
 4873WAT     H214862   4.023   0.823   5.882
 4874WAT      O14863   8.301   7.447   9.117
 4874WAT     H114864   8.339   7.367   9.162
 4874WAT     H214865   8.321   7.529   9.171
 4875WAT      O14866   7.679   1.735   0.136
 4875WAT     H114867   7.616   1.807   0.107
 4875WAT     H214868   7.773   1.763   0.115
 4876WAT      O14869   3.323   1.352   6.869
 4876WAT     H114870   3.332   1.315   6.776
 4876WAT     H214871   3.277   1.284   6.926
 4877WAT      O14872   1.508   2.536   9.338
 4877WAT     H114873   1.467   2.616   9.382
 4877WAT     H214874   1.585   2.566   9.282
 4878WAT      O14875   6.894   4.075   6.652
 4878WAT     H114876   6.950   4.145   6.606
 4878WAT     H214877   6.943   4.043   6.733
 4879WAT      O14878   8.005   5.346   7.940
 4879WAT     H114879   8.004   5.412   8.015
 4879WAT     H214880   8.058   5.383   7.863
 4880WAT      O14881   6.876   3.109   9.718
 4880WAT     H114882   6.936   3.184   9.748
 4880WAT     H214883   6.812   3.144   9.649
 4881WAT      O14884   9.423   6.547   4.218
 4881WAT     H114885   9.386   6.454   4.213
 4881WAT     H214886   9.353   6.612   4.187
 4882WAT      O14887   4.509   5.869   9.010
 4882WAT     H114888   4.602   5.887   9.043
 4882WAT     H214889   4.512   5.843   8.914
 4883WAT      O14890   6.413   5.724   1.565
 4883WAT     H114891   6.467   5.686   1.489
 4883WAT     H214892   6.343   5.657   1.592
 4884WAT      O14893   3.329   5.909   3.117
 4884WAT     H114894   3.360   5.983   3.176
 4884WAT     H214895   3.233   5.924   3.092
 4885WAT      O14896   1.111   8.089   4.077
 4885WAT     H114897   1.203   8.059   4.103
 4885WAT     H214898   1.073   8.025   4.011
 4886WAT      O14899   6.940   5.024   1.419
 4886WAT     H114900   6.903   4.931   1.420
 4886WAT     H214901   7.034   5.021   1.386
 4887WAT      O14902   7.186   5.832   7.959
 4887WAT     H114903   7.264   5.786   8.001
 4887WAT     H214904   7.212   5.924   7.931
 4888WAT      O14905   1.023   6.388   3.356
 4888WAT     H114906   1.117   6.357   3.350
 4888WAT     H214907   0.979   6.346   3.436
 4889WAT      O14908   5.823   6.508   0.115
 4889WAT     H114909   5.798   6.486   0.209
 4889WAT     H214910   5.751   6.564   0.073
 4890WAT      O14911   4.476   0.575   4.252
 4890WAT     H114912   4.377   0.581   4.251
 4890WAT     H214913   4.510   0.565   4.158
 4891WAT      O14914   2.471   7.561   2.276
 4891WAT     H114915   2.451   7.631   2.345
 4891WAT     H214916   2.426   7.587   2.190
 4892WAT      O14917   5.768   6.382   1.723
 4892WAT     H114918   5.850   6.431   1.755
 4892WAT     H214919   5.771   6.374   1.624
 4893WAT      O14920   7.563   0.839   6.681
 4893WAT     H114921   7.576   0.901   6.603
 4893WAT     H214922   7.652   0.802   6.709
 4894WAT      O14923   7.383   6.842   9.285
 4894WAT     H114924   7.482   6.842   9.297
 4894WAT     H214925   7.338   6.858   9.373
 4895WAT      O14926   9.737   7.521   5.636
 4895WAT     H114927   9.783   7.568   5.710
 4895WAT     H214928   9.667   7.580   5.596
 4896WAT      O14929   7.766   0.445   8.733
 4896WAT     H114930   7.703   0.523   8.730
 4896WAT     H214931   7.743   0.381   8.659
 4897WAT      O14932   8.418   5.870   3.687
 4897WAT     H114933   8.499   5.819   3.715
 4897WAT     H214934   8.383   5.923   3.764
 4898WAT      O14935   2.710   8.846   1.794
 4898WAT     H114936   2.776   8.785   1.838
 4898WAT     H214937   2.638   8.870   1.860
 4899WAT      O14938   0.513   2.066   1.723
 4899WAT     H114939   0.545   2.042   1.815
 4899WAT     H214940   0.591   2.092   1.667
 4900WAT      O14941   5.243   2.898   1.560
 4900WAT     H114942   5.269   2.918   1.465
 4900WAT     H214943   5.263   2.977   1.617
 4901WAT      O14944   9.144   5.483   9.399
 4901WAT     H114945   9.158   5.484   9.498
 4901WAT     H214946   9.223   5.439   9.355
 4902WAT      O14947   3.379   7.315   6.918
 4902WAT     H114948   3.468   7.358   6.933
 4902WAT     H214949   3.341   7.284   7.005
 4903WAT      O14950   5.455   4.697   6.419
 4903WAT     H114951   5.528   4.677   6.484
 4903WAT     H214952   5.467   4.789   6.382
 4904WAT      O14953   6.721   4.266   6.828
 4904WAT     H114954   6.644   4.229   6.879
 4904WAT     H214955   6.745   4.203   6.754
 4905WAT      O14956   3.514   0.756   5.984
 4905WAT     H114957   3.419   0.742   6.012
 4905WAT     H214958   3.564   0.670   5.991
 4906WAT      O14959   6.921   4.127   7.955
 4906WAT     H114960   6.919   4.110   8.053
 4906WAT     H214961   6.852   4.196   7.931
 4907WAT      O14962   9.505   3.937   0.518
 4907WAT     H114963   9.520   3.967   0.424
 4907WAT     H214964   9.420   3.883   0.523
 4908WAT      O14965   5.010   3.540   6.684
 4908WAT     H114966   4.988   3.443   6.684
 4908WAT     H214967   4.956   3.588   6.615
 4909WAT      O14968   2.788   6.432   1.585
 4909WAT     H114969   2.841   6.355   1.622
 4909WAT     H214970   2.765   6.414   1.489
 4910WAT      O14971   0.985   7.880   2.861
 4910WAT     H114972   1.002   7.875   2.959
 4910WAT     H214973   0.926   7.804   2.833
 4911WAT      O14974   8.539   0.197   9.800
 4911WAT     H114975   8.458   0.255   9.805
 4911WAT     H214976   8.620   0.250   9.824
 4912WAT      O14977   8.878   0.345   2.363
 4912WAT     H114978   8.863   0.444   2.358
 4912WAT     H214979   8.812   0.304   2.426
 4913WAT      O14980   4.910   6.950   6.372
 4913WAT     H114981   4.970   6.870   6.361
 4913WAT     H214982   4.942   7.006   6.448
 4914WAT      O14983   1.423   2.334   7.726
 4914WAT     H114984   1.517   2.356   7.701
 4914WAT     H214985   1.421   2.249   7.779
 4915WAT      O14986   6.240   6.144   9.230
 4915WAT     H114987   6.159   6.176   9.181
 4915WAT     H214988   6.301   6.097   9.165
 4916WAT      O14989   2.108   0.649   2.813
 4916WAT     H114990   2.077   0.738   2.844
 4916WAT     H214991   2.180   0.661   2.745
 4917WAT      O14992   0.091   6.808   3.942
 4917WAT     H114993   0.074   6.841   4.035
 4917WAT     H214994   0.186   6.777   3.935
 4918WAT      O14995   0.769   5.657   0.429
 4918WAT     H114996   0.868   5.672   0.427
 4918WAT     H214997   0.725   5.729   0.482
 4919WAT      O14998   3.802   7.544   6.864
 4919WAT     H114999   3.863   7.468   6.844
 4919WAT     H215000   3.824   7.621   6.804
 4920WAT      O15001   3.726   1.465   0.846
 4920WAT     H115002   3.707   1.527   0.770
 4920WAT     H215003   3.703   1.371   0.819
 4921WAT      O15004   3.030   5.382   1.885
 4921WAT     H115005   3.117   5.412   1.844
 4921WAT     H215006   2.977   5.332   1.817
 4922WAT      O15007   1.811   6.019   2.285
 4922WAT     H115008   1.909   6.037   2.293
 4922WAT     H215009   1.796   5.945   2.220
 4923WAT      O15010   1.398   9.152   9.884
 4923WAT     H115011   1.300   9.143   9.904
 4923WAT     H215012   1.438   9.222   9.943
 4924WAT      O15013   8.802   1.814   7.144
 4924WAT     H115014   8.749   1.793   7.062
 4924WAT     H215015   8.841   1.729   7.181
 4925WAT      O15016   3.211   4.239   2.847
 4925WAT     H115017   3.149   4.209   2.920
 4925WAT     H215018   3.210   4.171   2.773
 4926WAT      O15019   0.466   5.727   4.327
 4926WAT     H115020   0.393   5.753   4.391
 4926WAT     H215021   0.425   5.686   4.245
 4927WAT      O15022   6.555   0.161   5.116
 4927WAT     H115023   6.575   0.168   5.214
 4927WAT     H215024   6.574   0.068   5.085
 4928WAT      O15025   0.771   1.139   9.081
 4928WAT     H115026   0.748   1.163   8.987
 4928WAT     H215027   0.818   1.051   9.083
 4929WAT      O15028   3.571   8.122   3.981
 4929WAT     H115029   3.475   8.146   3.969
 4929WAT     H215030   3.605   8.163   4.066
 4930WAT      O15031   6.012   7.091   5.348
 4930WAT     H115032   6.030   7.161   5.279
 4930WAT     H215033   6.054   7.005   5.320
 4931WAT      O15034   7.840   4.458   9.853
 4931WAT     H115035   7.780   4.434   9.929
 4931WAT     H215036   7.784   4.483   9.773
 4932WAT      O15037   0.295   1.357   7.011
 4932WAT     H115038   0.372   1.296   7.031
 4932WAT     H215039   0.321   1.451   7.035
 4933WAT      O15040   6.400   9.139   5.810
 4933WAT     H115041   6.335   9.193   5.863
 4933WAT     H215042   6.351   9.070   5.756
 4934WAT      O15043   1.448   2.312   0.088
 4934WAT     H115044   1.410   2.219   0.092
 4934WAT     H215045   1.422   2.361   0.171
 4935WAT      O15046   2.465   2.669   4.724
 4935WAT     H115047   2.429   2.618   4.646
 4935WAT     H215048   2.417   2.757   4.732
 4936WAT      O15049   6.245   3.251   5.924
 4936WAT     H115050   6.343   3.271   5.914
 4936WAT     H215051   6.234   3.166   5.975
 4937WAT      O15052   4.628   7.308   9.425
 4937WAT     H115053   4.618   7.256   9.340
 4937WAT     H215054   4.554   7.376   9.430
 4938WAT      O15055   3.134   6.388   4.788
 4938WAT     H115056   3.053   6.442   4.813
 4938WAT     H215057   3.201   6.394   4.862
 4939WAT      O15058   7.240   3.319   2.334
 4939WAT     H115059   7.158   3.304   2.277
 4939WAT     H215060   7.260   3.236   2.385
 4940WAT      O15061   6.258   8.526   2.588
 4940WAT     H115062   6.279   8.565   2.678
 4940WAT     H215063   6.329   8.553   2.523
 4941WAT      O15064   3.098   9.205   0.090
 4941WAT     H115065   3.031   9.211   0.164
 4941WAT     H215066   3.190   9.219   0.128
 4942WAT      O15067   1.661   5.950   2.647
 4942WAT     H115068   1.603   6.026   2.619
 4942WAT     H215069   1.608   5.885   2.702
 4943WAT      O15070   6.152   3.786   5.328
 4943WAT     H115071   6.234   3.730   5.316
 4943WAT     H215072   6.178   3.881   5.342
 4944WAT      O15073   5.061   9.511   6.379
 4944WAT     H115074   4.963   9.525   6.388
 4944WAT     H215075   5.103   9.508   6.470
 4945WAT      O15076   3.662   9.163   5.734
 4945WAT     H115077   3.651   9.250   5.686
 4945WAT     H215078   3.647   9.177   5.832
 4946WAT      O15079   4.543   5.242   1.798
 4946WAT     H115080   4.451   5.212   1.822
 4946WAT     H215081   4.606   5.164   1.800
 4947WAT      O15082   4.826   5.176   7.012
 4947WAT     H115083   4.736   5.138   6.991
 4947WAT     H215084   4.897   5.113   6.978
 4948WAT      O15085   7.700   2.529   5.408
 4948WAT     H115086   7.755   2.577   5.477
 4948WAT     H215087   7.759   2.498   5.334
 4949WAT      O15088   5.606   2.176   6.503
 4949WAT     H115089   5.509   2.154   6.515
 4949WAT     H215090   5.656   2.092   6.481
 4950WAT      O15091   0.334   3.903   9.386
 4950WAT     H115092   0.282   3.986   9.407
 4950WAT     H215093   0.390   3.919   9.305
 4951WAT      O15094   0.628   4.177   7.171
 4951WAT     H115095   0.572   4.184   7.254
 4951WAT     H215096   0.673   4.265   7.154
 4952WAT      O15097   7.953   1.196   8.142
 4952WAT     H115098   7.889   1.123   8.166
 4952WAT     H215099   7.913   1.284   8.167
 4953WAT      O15100   3.402   5.519   1.054
 4953WAT     H115101   3.355   5.488   1.137
 4953WAT     H215102   3.498   5.489   1.057
 4954WAT      O15103   9.354   2.823   6.634
 4954WAT     H115104   9.324   2.834   6.729
 4954WAT     H215105   9.274   2.826   6.574
 4955WAT      O15106   9.540   1.056   4.602
 4955WAT     H115107   9.593   1.061   4.517
 4955WAT     H215108   9.472   0.983   4.593
 4956WAT      O15109   8.985   9.077   2.573
 4956WAT     H115110   9.009   9.090   2.669
 4956WAT     H215111   8.886   9.071   2.564
 4957WAT      O15112   3.570   6.236   1.982
 4957WAT     H115113   3.616   6.171   1.921
 4957WAT     H215114   3.513   6.297   1.927
 4958WAT      O15115   5.843   9.209   2.435
 4958WAT     H115116   5.792   9.281   2.389
 4958WAT     H215117   5.892   9.154   2.366
 4959WAT      O15118   0.931   3.982   9.816
 4959WAT     H115119   0.841   3.976   9.774
 4959WAT     H215120   0.950   3.899   9.867
 4960WAT      O15121   0.447   5.243   7.728
 4960WAT     H115122   0.385   5.210   7.657
 4960WAT     H215123   0.469   5.169   7.791
 4961WAT      O15124   3.033   2.582   8.011
 4961WAT     H115125   3.027   2.670   7.964
 4961WAT     H215126   3.105   2.526   7.968
 4962WAT      O15127   4.459   5.150   0.696
 4962WAT     H115128   4.433   5.062   0.736
 4962WAT     H215129   4.389   5.218   0.716
 4963WAT      O15130   8.132   0.250   4.494
 4963WAT     H115131   8.109   0.303   4.575
 4963WAT     H215132   8.051   0.237   4.438
 4964WAT      O15133   3.269   6.687   4.630
 4964WAT     H115134   3.348   6.702   4.689
 4964WAT     H215135   3.209   6.618   4.671
 4965WAT      O15136   6.214   1.124   1.065
 4965WAT     H115137   6.260   1.104   0.979
 4965WAT     H215138   6.117   1.099   1.057
 4966WAT      O15139   9.045   9.802   6.172
 4966WAT     H115140   9.023   9.841   6.083
 4966WAT     H215141   8.973   9.824   6.238
 4967WAT      O15142   0.020   4.750   7.208
 4967WAT     H115143   0.116   4.741   7.185
 4967WAT     H215144   0.003   4.839   7.250
 4968WAT      O15145   0.727   3.295   8.838
 4968WAT     H115146   0.647   3.266   8.891
 4968WAT     H215147   0.765   3.378   8.879
 4969WAT      O15148   3.035   4.602   3.197
 4969WAT     H115149   2.968   4.584   3.125
 4969WAT     H215150   3.019   4.540   3.274
 4970WAT      O15151   2.537   7.970   0.186
 4970WAT     H115152   2.500   8.038   0.123
 4970WAT     H215153   2.513   7.878   0.155
 4971WAT      O15154   1.036   0.189   5.656
 4971WAT     H115155   1.040   0.155   5.562
 4971WAT     H215156   0.968   0.136   5.708
 4972WAT      O15157   0.693   0.248   8.977
 4972WAT     H115158   0.600   0.232   8.945
 4972WAT     H215159   0.733   0.162   9.010
 4973WAT      O15160   5.151   3.734   0.945
 4973WAT     H115161   5.242   3.705   0.977
 4973WAT     H215162   5.131   3.691   0.857
 4974WAT      O15163   6.875   4.920   3.084
 4974WAT     H115164   6.873   4.823   3.060
 4974WAT     H215165   6.969   4.952   3.087
 4975WAT      O15166   9.890   8.124   0.962
 4975WAT     H115167   9.873   8.182   1.042
 4975WAT     H215168   9.825   8.147   0.890
 4976WAT      O15169   6.846   6.728   4.587
 4976WAT     H115170   6.898   6.642   4.584
 4976WAT     H215171   6.782   6.726   4.664
 4977WAT      O15172   2.982   6.997   3.785
 4977WAT     H115173   3.029   7.066   3.840
 4977WAT     H215174   3.032   6.911   3.791
 4978WAT      O15175   3.581   2.511   7.830
 4978WAT     H115176   3.506   2.574   7.848
 4978WAT     H215177   3.659   2.535   7.888
 4979WAT      O15178   2.332   9.800   8.074
 4979WAT     H115179   2.379   9.845   8.149
 4979WAT     H215180   2.272   9.728   8.110
 4980WAT      O15181   4.132   3.559   9.262
 4980WAT     H115182   4.177   3.645   9.284
 4980WAT     H215183   4.033   3.572   9.258
 4981WAT      O15184   2.919   1.488   9.135
 4981WAT     H115185   2.986   1.549   9.178
 4981WAT     H215186   2.949   1.393   9.145
 4982WAT      O15187   8.914   7.432   2.684
 4982WAT     H115188   8.944   7.469   2.597
 4982WAT     H215189   8.994   7.409   2.740
 4983WAT      O15190   5.804   6.125   2.997
 4983WAT     H115191   5.713   6.102   3.031
 4983WAT     H215192   5.872   6.104   3.067
 4984WAT      O15193   5.045   0.946   0.699
 4984WAT     H115194   5.031   0.943   0.798
 4984WAT     H215195   4.967   0.993   0.656
 4985WAT      O15196   0.562   9.279   3.193
 4985WAT     H115197   0.602   9.187   3.192
 4985WAT     H215198   0.496   9.288   3.119
 4986WAT      O15199   4.673   0.729   4.331
 4986WAT     H115200   4.737   0.692   4.399
 4986WAT     H215201   4.591   0.672   4.329
 4987WAT      O15202   1.981   1.262   7.780
 4987WAT     H115203   1.909   1.309   7.729
 4987WAT     H215204   1.987   1.301   7.872
 4988WAT      O15205   7.838   6.544   4.334
 4988WAT     H115206   7.798   6.459   4.368
 4988WAT     H215207   7.766   6.601   4.294
 4989WAT      O15208   5.312   2.844   9.717
 4989WAT     H115209   5.380   2.856   9.790
 4989WAT     H215210   5.227   2.807   9.756
 4990WAT      O15211   9.573   7.570   8.285
 4990WAT     H115212   9.565   7.519   8.371
 4990WAT     H215213   9.507   7.534   8.220
 4991WAT      O15214   1.470   9.505   6.671
 4991WAT     H115215   1.417   9.554   6.601
 4991WAT     H215216   1.537   9.446   6.628
 4992WAT      O15217   4.928   4.468   7.885
 4992WAT     H115218   4.981   4.432   7.809
 4992WAT     H215219   4.830   4.453   7.869
 4993WAT      O15220   5.672   7.102   0.779
 4993WAT     H115221   5.737   7.028   0.759
 4993WAT     H215222   5.716   7.169   0.839
 4994WAT      O15223   8.636   9.836   4.703
 4994WAT     H115224   8.569   9.909   4.694
 4994WAT     H215225   8.595   9.750   4.674
 4995WAT      O15226   9.622   8.784   1.502
 4995WAT     H115227   9.559   8.767   1.578
 4995WAT     H215228   9.582   8.751   1.417
 4996WAT      O15229   2.044   0.928   6.889
 4996WAT     H115230   2.055   0.831   6.866
 4996WAT     H215231   1.956   0.961   6.854
 4997WAT      O15232   1.114   6.601   4.694
 4997WAT     H115233   1.052   6.645   4.759
 4997WAT     H215234   1.110   6.648   4.606
 4998WAT      O15235   3.943   5.110   5.424
 4998WAT     H115236   3.909   5.199   5.393
 4998WAT     H215237   4.019   5.124   5.487
 4999WAT      O15238   8.479   9.047   9.007
 4999WAT     H115239   8.505   9.062   9.103
 4999WAT     H215240   8.497   9.130   8.954
 5000WAT      O15241   6.870   0.233   4.139
 5000WAT     H115242   6.927   0.153   4.121
 5000WAT     H215243   6.774   0.207   4.130
 5001WAT      O15244   8.866   6.382   3.448
 5001WAT     H115245   8.890   6.385   3.351
 5001WAT     H215246   8.933   6.435   3.500
 5002WAT      O15247   0.504   5.079   5.343
 5002WAT     H115248   0.424   5.139   5.337
 5002WAT     H215249   0.586   5.135   5.354
 5003WAT      O15250   3.652   7.211   2.204
 5003WAT     H115251   3.632   7.206   2.302
 5003WAT     H215252   3.696   7.298   2.184
 5004WAT      O15253   4.809   8.877   4.149
 5004WAT     H115254   4.794   8.792   4.198
 5004WAT     H215255   4.885   8.927   4.191
 5005WAT      O15256   5.747   3.637   5.041
 5005WAT     H115257   5.726   3.680   5.129
 5005WAT     H215258   5.696   3.551   5.034
 5006WAT      O15259   5.328   5.370   6.900
 5006WAT     H115260   5.240   5.351   6.943
 5006WAT     H215261   5.315   5.396   6.805
 5007WAT      O15262   1.216   5.769   7.017
 5007WAT     H115263   1.181   5.713   6.941
 5007WAT     H215264   1.277   5.839   6.981
 5008WAT      O15265   4.507   1.207   2.459
 5008WAT     H115266   4.596   1.247   2.480
 5008WAT     H215267   4.496   1.121   2.509
 5009WAT      O15268   1.821   8.759   4.178
 5009WAT     H115269   1.917   8.741   4.161
 5009WAT     H215270   1.768   8.675   4.167
 5010WAT      O15271   7.644   5.386   3.676
 5010WAT     H115272   7.565   5.447   3.672
 5010WAT     H215273   7.726   5.435   3.645
 5011WAT      O15274   1.237   3.890   4.045
 5011WAT     H115275   1.143   3.923   4.058
 5011WAT     H215276   1.237   3.790   4.049
 5012WAT      O15277   0.986   3.653   3.645
 5012WAT     H115278   1.085   3.646   3.654
 5012WAT     H215279   0.943   3.608   3.724
 5013WAT      O15280   2.802   6.124   9.755
 5013WAT     H115281   2.814   6.221   9.735
 5013WAT     H215282   2.713   6.110   9.798
 5014WAT      O15283   3.172   8.637   4.945
 5014WAT     H115284   3.227   8.668   4.867
 5014WAT     H215285   3.089   8.593   4.912
 5015WAT      O15286   4.463   1.776   5.717
 5015WAT     H115287   4.477   1.747   5.811
 5015WAT     H215288   4.366   1.765   5.693
 5016WAT      O15289   7.804   3.700   8.201
 5016WAT     H115290   7.709   3.728   8.188
 5016WAT     H215291   7.836   3.733   8.289
 5017WAT      O15292   1.539   7.913   3.709
 5017WAT     H115293   1.459   7.872   3.752
 5017WAT     H215294   1.556   7.868   3.621
 5018WAT      O15295   8.548   7.324   6.263
 5018WAT     H115296   8.557   7.414   6.220
 5018WAT     H215297   8.586   7.328   6.356
 5019WAT      O15298   5.440   3.006   4.491
 5019WAT     H115299   5.528   3.014   4.537
 5019WAT     H215300   5.430   3.079   4.424
 5020WAT      O15301   9.369   4.516   4.887
 5020WAT     H115302   9.355   4.447   4.817
 5020WAT     H215303   9.367   4.607   4.845
 5021WAT      O15304   2.468   0.352   1.420
 5021WAT     H115305   2.466   0.257   1.451
 5021WAT     H215306   2.405   0.364   1.343
 5022WAT      O15307   9.239   2.521   2.465
 5022WAT     H115308   9.274   2.612   2.444
 5022WAT     H215309   9.305   2.452   2.435
 5023WAT      O15310   7.987   2.468   2.926
 5023WAT     H115311   7.980   2.431   2.834
 5023WAT     H215312   7.896   2.480   2.965
 5024WAT      O15313   3.388   2.131   0.520
 5024WAT     H115314   3.412   2.081   0.437
 5024WAT     H215315   3.467   2.135   0.581
 5025WAT      O15316   7.270   5.140   6.168
 5025WAT     H115317   7.288   5.196   6.249
 5025WAT     H215318   7.245   5.199   6.091
 5026WAT      O15319   0.679   2.434   7.668
 5026WAT     H115320   0.691   2.341   7.633
 5026WAT     H215321   0.694   2.435   7.767
 5027WAT      O15322   1.937   6.370   6.104
 5027WAT     H115323   2.009   6.378   6.034
 5027WAT     H215324   1.978   6.379   6.195
 5028WAT      O15325   8.373   8.563   4.390
 5028WAT     H115326   8.439   8.524   4.455
 5028WAT     H215327   8.343   8.492   4.326
 5029WAT      O15328   9.856   0.632   6.464
 5029WAT     H115329   9.801   0.594   6.390
 5029WAT     H215330   9.803   0.704   6.510
 5030WAT      O15331   9.183   8.831   8.651
 5030WAT     H115332   9.217   8.911   8.700
 5030WAT     H215333   9.237   8.816   8.568
 5031WAT      O15334   3.218   7.332   4.387
 5031WAT     H115335   3.175   7.419   4.412
 5031WAT     H215336   3.304   7.350   4.338
 5032WAT      O15337   0.564   5.326   1.900
 5032WAT     H115338   0.616   5.265   1.959
 5032WAT     H215339   0.626   5.393   1.859
 5033WAT      O15340   7.925   8.448   9.863
 5033WAT     H115341   7.880   8.410   9.782
 5033WAT     H215342   7.920   8.548   9.860
 5034WAT      O15343   4.293   3.892   4.171
 5034WAT     H115344   4.391   3.901   4.188
 5034WAT     H215345   4.244   3.892   4.259
 5035WAT      O15346   2.106   8.079   8.556
 5035WAT     H115347   2.041   8.095   8.631
 5035WAT     H215348   2.101   7.984   8.527
 5036WAT      O15349   4.727   2.324   9.082
 5036WAT     H115350   4.662   2.263   9.037
 5036WAT     H215351   4.697   2.341   9.176
 5037WAT      O15352   5.877   9.827   5.475
 5037WAT     H115353   5.924   9.892   5.415
 5037WAT     H215354   5.941   9.790   5.542
 5038WAT      O15355   5.573   3.459   6.587
 5038WAT     H115356   5.488   3.442   6.637
 5038WAT     H215357   5.560   3.535   6.524
 5039WAT      O15358   2.057   4.067   3.827
 5039WAT     H115359   1.980   4.060   3.890
 5039WAT     H215360   2.129   4.122   3.869
 5040WAT      O15361   7.899   4.340   0.506
 5040WAT     H115362   7.803   4.367   0.513
 5040WAT     H215363   7.928   4.298   0.592
 5041WAT      O15364   6.565   0.821   5.663
 5041WAT     H115365   6.621   0.863   5.734
 5041WAT     H215366   6.560   0.881   5.584
 5042WAT      O15367   7.332   0.255   6.275
 5042WAT     H115368   7.327   0.157   6.257
 5042WAT     H215369   7.255   0.282   6.332
 5043WAT      O15370   6.037   0.013   0.842
 5043WAT     H115371   6.098   0.009   0.921
 5043WAT     H215372   6.066   0.086   0.781
 5044WAT      O15373   3.998   5.727   2.669
 5044WAT     H115374   3.932   5.745   2.742
 5044WAT     H215375   3.948   5.716   2.582
 5045WAT      O15376   1.129   1.252   8.309
 5045WAT     H115377   1.033   1.279   8.302
 5045WAT     H215378   1.140   1.157   8.278
 5046WAT      O15379   9.140   6.177   1.768
 5046WAT     H115380   9.202   6.126   1.709
 5046WAT     H215381   9.113   6.120   1.846
 5047WAT      O15382   9.426   2.550   6.570
 5047WAT     H115383   9.389   2.638   6.600
 5047WAT     H215384   9.421   2.485   6.646
 5048WAT      O15385   6.443   9.472   9.394
 5048WAT     H115386   6.538   9.502   9.406
 5048WAT     H215387   6.388   9.502   9.471
 5049WAT      O15388   5.237   6.781   6.038
 5049WAT     H115389   5.308   6.714   6.060
 5049WAT     H215390   5.147   6.742   6.060
 5050WAT      O15391   6.714   8.626   6.879
 5050WAT     H115392   6.751   8.658   6.967
 5050WAT     H215393   6.638   8.564   6.895
 5051WAT      O15394   8.236   9.165   0.411
 5051WAT     H115395   8.178   9.160   0.491
 5051WAT     H215396   8.269   9.258   0.398
 5052WAT      O15397   0.637   8.775   9.868
 5052WAT     H115398   0.593   8.691   9.839
 5052WAT     H215399   0.577   8.853   9.850
 5053WAT      O15400   1.390   5.296   3.375
 5053WAT     H115401   1.430   5.364   3.437
 5053WAT     H215402   1.291   5.307   3.373
 5054WAT      O15403   3.060   5.950   9.239
 5054WAT     H115404   3.074   5.934   9.336
 5054WAT     H215405   3.053   5.863   9.191
 5055WAT      O15406   9.022   2.852   6.246
 5055WAT     H115407   8.925   2.875   6.249
 5055WAT     H215408   9.036   2.776   6.181
 5056WAT      O15409   0.351   0.490   5.122
 5056WAT     H115410   0.374   0.490   5.219
 5056WAT     H215411   0.377   0.402   5.081
 5057WAT      O15412   8.796   2.975   2.252
 5057WAT     H115413   8.716   2.941   2.202
 5057WAT     H215414   8.811   2.918   2.333
 5058WAT      O15415   8.040   5.541   4.088
 5058WAT     H115416   8.045   5.601   4.168
 5058WAT     H215417   8.108   5.468   4.097
 5059WAT      O15418   1.525   3.620   0.460
 5059WAT     H115419   1.545   3.539   0.404
 5059WAT     H215420   1.499   3.591   0.552
 5060WAT      O15421   3.175   5.752   0.718
 5060WAT     H115422   3.085   5.788   0.742
 5060WAT     H215423   3.205   5.794   0.633
 5061WAT      O15424   1.177   5.898   2.191
 5061WAT     H115425   1.219   5.928   2.105
 5061WAT     H215426   1.167   5.799   2.191
 5062WAT      O15427   9.857   1.352   8.812
 5062WAT     H115428   9.906   1.423   8.760
 5062WAT     H215429   9.769   1.389   8.844
 5063WAT      O15430   8.060   4.101   2.460
 5063WAT     H115431   8.156   4.094   2.431
 5063WAT     H215432   8.046   4.186   2.510
 5064WAT      O15433   9.549   0.695   5.654
 5064WAT     H115434   9.624   0.640   5.692
 5064WAT     H215435   9.583   0.787   5.634
 5065WAT      O15436   7.180   0.947   4.079
 5065WAT     H115437   7.246   0.914   4.011
 5065WAT     H215438   7.168   1.046   4.068
 5066WAT      O15439   0.936   9.688   8.102
 5066WAT     H115440   0.888   9.653   8.183
 5066WAT     H215441   1.008   9.750   8.131
 5067WAT      O15442   9.315   0.102   2.769
 5067WAT     H115443   9.226   0.113   2.726
 5067WAT     H215444   9.372   0.182   2.749
 5068WAT      O15445   4.589   0.914   9.269
 5068WAT     H115446   4.683   0.896   9.242
 5068WAT     H215447   4.581   1.008   9.303
 5069WAT      O15448   2.535   9.784   7.512
 5069WAT     H115449   2.506   9.708   7.569
 5069WAT     H215450   2.635   9.789   7.511
 5070WAT      O15451   9.472   6.618   2.610
 5070WAT     H115452   9.382   6.657   2.633
 5070WAT     H215453   9.469   6.519   2.622
 5071WAT      O15454   8.691   8.910   4.506
 5071WAT     H115455   8.746   8.982   4.463
 5071WAT     H215456   8.641   8.860   4.435
 5072WAT      O15457   7.520   8.348   7.483
 5072WAT     H115458   7.549   8.438   7.516
 5072WAT     H215459   7.596   8.283   7.493
 5073WAT      O15460   8.775   4.627   0.314
 5073WAT     H115461   8.687   4.667   0.338
 5073WAT     H215462   8.781   4.534   0.350
 5074WAT      O15463   7.398   3.701   6.292
 5074WAT     H115464   7.319   3.715   6.233
 5074WAT     H215465   7.443   3.615   6.267
 5075WAT      O15466   7.498   8.984   6.485
 5075WAT     H115467   7.563   8.986   6.561
 5075WAT     H215468   7.480   9.078   6.454
 5076WAT      O15469   8.183   0.102   0.958
 5076WAT     H115470   8.103   0.160   0.944
 5076WAT     H215471   8.260   0.138   0.906
 5077WAT      O15472   7.399   5.569   3.328
 5077WAT     H115473   7.390   5.484   3.276
 5077WAT     H215474   7.456   5.634   3.278
 5078WAT      O15475   7.485   7.795   5.744
 5078WAT     H115476   7.505   7.738   5.823
 5078WAT     H215477   7.421   7.868   5.769
 5079WAT      O15478   5.007   3.411   8.855
 5079WAT     H115479   5.015   3.328   8.911
 5079WAT     H215480   5.033   3.390   8.761
 5080WAT      O15481   0.879   5.848   7.688
 5080WAT     H115482   0.896   5.940   7.725
 5080WAT     H215483   0.798   5.850   7.629
 5081WAT      O15484   6.259   2.694   3.178
 5081WAT     H115485   6.268   2.639   3.095
 5081WAT     H215486   6.302   2.783   3.165
 5082WAT      O15487   2.516   2.415   7.280
 5082WAT     H115488   2.522   2.364   7.366
 5082WAT     H215489   2.425   2.454   7.270
 5083WAT      O15490   5.997   7.321   8.412
 5083WAT     H115491   6.023   7.279   8.500
 5083WAT     H215492   6.053   7.282   8.339
 5084WAT      O15493   5.715   1.873   9.330
 5084WAT     H115494   5.721   1.851   9.427
 5084WAT     H215495   5.736   1.791   9.276
 5085WAT      O15496   8.924   1.306   8.697
 5085WAT     H115497   8.848   1.249   8.727
 5085WAT     H215498   8.981   1.255   8.633
 5086WAT      O15499   5.641   4.805   0.479
 5086WAT     H115500   5.725   4.835   0.435
 5086WAT     H215501   5.662   4.770   0.571
 5087WAT      O15502   5.290   7.668   3.343
 5087WAT     H115503   5.367   7.611   3.374
 5087WAT     H215504   5.307   7.763   3.367
 5088WAT      O15505   9.526   5.449   4.109
 5088WAT     H115506   9.439   5.439   4.158
 5088WAT     H215507   9.538   5.373   4.046
 5089WAT      O15508   8.413   9.146   3.597
 5089WAT     H115509   8.504   9.105   3.596
 5089WAT     H215510   8.346   9.077   3.622
 5090WAT      O15511   3.331   1.109   0.598
 5090WAT     H115512   3.398   1.141   0.666
 5090WAT     H215513   3.318   1.180   0.529
 5091WAT      O15514   3.430   0.964   1.859
 5091WAT     H115515   3.447   0.967   1.958
 5091WAT     H215516   3.335   0.988   1.841
 5092WAT      O15517   9.252   3.839   6.695
 5092WAT     H115518   9.184   3.905   6.726
 5092WAT     H215519   9.270   3.853   6.598
 5093WAT      O15520   1.487   0.007   3.853
 5093WAT     H115521   1.519   0.029   3.945
 5093WAT     H215522   1.560   0.026   3.787
 5094WAT      O15523   2.511   5.054   2.029
 5094WAT     H115524   2.589   5.070   1.968
 5094WAT     H215525   2.497   5.135   2.087
 5095WAT      O15526   0.452   0.792   6.951
 5095WAT     H115527   0.519   0.720   6.935
 5095WAT     H215528   0.403   0.774   7.036
 5096WAT      O15529   0.126   4.064   3.651
 5096WAT     H115530   0.092   4.071   3.558
 5096WAT     H215531   0.180   4.146   3.673
 5097WAT      O15532   4.338   6.926   0.431
 5097WAT     H115533   4.377   6.931   0.339
 5097WAT     H215534   4.305   7.017   0.458
 5098WAT      O15535   9.140   9.162   9.192
 5098WAT     H115536   9.222   9.208   9.158
 5098WAT     H215537   9.136   9.069   9.156
 5099WAT      O15538   3.321   5.526   4.611
 5099WAT     H115539   3.354   5.431   4.615
 5099WAT     H215540   3.400   5.588   4.615
 5100WAT      O15541   8.385   2.885   0.989
 5100WAT     H115542   8.417   2.805   1.040
 5100WAT     H215543   8.434   2.966   1.021
 5101WAT      O15544   3.278   2.774   1.801
 5101WAT     H115545   3.343   2.702   1.777
 5101WAT     H215546   3.292   2.853   1.740
 5102WAT      O15547   5.245   0.560   6.788
 5102WAT     H115548   5.272   0.652   6.814
 5102WAT     H215549   5.310   0.524   6.720
 5103WAT      O15550   4.883   8.679   4.911
 5103WAT     H115551   4.868   8.672   4.812
 5103WAT     H215552   4.803   8.718   4.954
 5104WAT      O15553   3.532   4.020   5.924
 5104WAT     H115554   3.534   3.952   5.851
 5104WAT     H215555   3.526   4.112   5.885
 5105WAT      O15556   7.506   8.088   7.905
 5105WAT     H115557   7.520   8.083   7.806
 5105WAT     H215558   7.579   8.036   7.951
 5106WAT      O15559   1.252   3.638   8.584
 5106WAT     H115560   1.309   3.620   8.504
 5106WAT     H215561   1.276   3.727   8.622
 5107WAT      O15562   9.698   7.636   2.790
 5107WAT     H115563   9.750   7.578   2.728
 5107WAT     H215564   9.687   7.590   2.878
 5108WAT      O15565   2.550   6.899   0.181
 5108WAT     H115566   2.498   6.938   0.257
 5108WAT     H215567   2.586   6.973   0.124
 5109WAT      O15568   7.099   8.203   5.352
 5109WAT     H115569   7.029   8.153   5.402
 5109WAT     H215570   7.064   8.294   5.328
 5110WAT      O15571   8.939   0.967   1.417
 5110WAT     H115572   8.868   0.905   1.450
 5110WAT     H215573   9.010   0.915   1.370
 5111WAT      O15574   6.611   4.873   1.835
 5111WAT     H115575   6.700   4.846   1.797
 5111WAT     H215576   6.622   4.955   1.891
 5112WAT      O15577   8.974   0.270   4.639
 5112WAT     H115578   8.930   0.236   4.555
 5112WAT     H215579   8.990   0.368   4.631
 5113WAT      O15580   5.556   0.222   1.666
 5113WAT     H115581   5.596   0.314   1.674
 5113WAT     H215582   5.457   0.230   1.655
 5114WAT      O15583   6.835   2.378   9.231
 5114WAT     H115584   6.856   2.352   9.325
 5114WAT     H215585   6.766   2.450   9.230
 5115WAT      O15586   1.829   3.835   7.478
 5115WAT     H115587   1.883   3.919   7.487
 5115WAT     H215588   1.885   3.757   7.508
 5116WAT      O15589   4.162   4.140   2.615
 5116WAT     H115590   4.242   4.098   2.571
 5116WAT     H215591   4.080   4.086   2.594
 5117WAT      O15592   7.729   4.584   7.738
 5117WAT     H115593   7.700   4.511   7.676
 5117WAT     H215594   7.809   4.554   7.789
 5118WAT      O15595   7.594   2.963   0.877
 5118WAT     H115596   7.580   2.982   0.780
 5118WAT     H215597   7.687   2.989   0.903
 5119WAT      O15598   2.346   0.435   2.917
 5119WAT     H115599   2.385   0.345   2.899
 5119WAT     H215600   2.247   0.427   2.928
 5120WAT      O15601   1.129   5.606   6.819
 5120WAT     H115602   1.117   5.516   6.861
 5120WAT     H215603   1.070   5.612   6.738
 5121WAT      O15604   6.876   6.353   2.192
 5121WAT     H115605   6.925   6.274   2.229
 5121WAT     H215606   6.878   6.428   2.258
 5122WAT      O15607   5.838   5.777   5.709
 5122WAT     H115608   5.830   5.692   5.658
 5122WAT     H215609   5.894   5.842   5.658
 5123WAT      O15610   0.969   1.934   6.747
 5123WAT     H115611   1.050   1.934   6.688
 5123WAT     H215612   0.928   1.842   6.746
 5124WAT      O15613   2.878   9.372   2.607
 5124WAT     H115614   2.868   9.402   2.512
 5124WAT     H215615   2.844   9.278   2.616
 5125WAT      O15616   1.253   1.110   8.549
 5125WAT     H115617   1.195   1.178   8.504
 5125WAT     H215618   1.277   1.144   8.640
 5126WAT      O15619   7.297   7.156   0.703
 5126WAT     H115620   7.273   7.069   0.660
 5126WAT     H215621   7.339   7.139   0.792
 5127WAT      O15622   0.303   7.332   1.254
 5127WAT     H115623   0.394   7.363   1.282
 5127WAT     H215624   0.284   7.361   1.161
 5128WAT      O15625   1.576   3.668   5.955
 5128WAT     H115626   1.511   3.591   5.953
 5128WAT     H215627   1.525   3.754   5.960
 5129WAT      O15628   0.137   5.001   2.967
 5129WAT     H115629   0.183   4.913   2.976
 5129WAT     H215630   0.202   5.075   2.985
 5130WAT      O15631   7.051   7.500   4.240
 5130WAT     H115632   6.972   7.443   4.263
 5130WAT     H215633   7.132   7.465   4.287
 5131WAT      O15634   2.473   8.383   1.597
 5131WAT     H115635   2.453   8.340   1.686
 5131WAT     H215636   2.414   8.343   1.527
 5132WAT      O15637   0.602   2.854   9.186
 5132WAT     H115638   0.694   2.890   9.203
 5132WAT     H215639   0.583   2.779   9.250
 5133WAT      O15640   3.523   1.166   1.238
 5133WAT     H115641   3.602   1.112   1.267
 5133WAT     H215642   3.447   1.104   1.217
 5134WAT      O15643   9.276   6.895   5.542
 5134WAT     H115644   9.224   6.850   5.615
 5134WAT     H215645   9.344   6.832   5.506
 5135WAT      O15646   2.416   7.025   0.384
 5135WAT     H115647   2.460   7.067   0.463
 5135WAT     H215648   2.373   7.095   0.328
 5136WAT      O15649   9.854   9.357   6.457
 5136WAT     H115650   9.863   9.262   6.485
 5136WAT     H215651   9.865   9.364   6.358
 5137WAT      O15652   7.788   4.045   8.956
 5137WAT     H115653   7.695   4.013   8.938
 5137WAT     H215654   7.854   3.979   8.922
 5138WAT      O15655   3.232   7.164   7.541
 5138WAT     H115656   3.240   7.104   7.621
 5138WAT     H215657   3.324   7.191   7.510
 5139WAT      O15658   7.075   5.143   3.456
 5139WAT     H115659   6.983   5.180   3.469
 5139WAT     H215660   7.071   5.043   3.456
 5140WAT      O15661   5.600   2.091   5.832
 5140WAT     H115662   5.657   2.061   5.908
 5140WAT     H215663   5.545   2.169   5.861
 5141WAT      O15664   6.827   6.982   0.777
 5141WAT     H115665   6.741   6.959   0.731
 5141WAT     H215666   6.842   6.920   0.854
 5142WAT      O15667   3.382   9.268   0.193
 5142WAT     H115668   3.342   9.295   0.281
 5142WAT     H215669   3.406   9.350   0.141
 5143WAT      O15670   6.788   3.398   1.241
 5143WAT     H115671   6.711   3.452   1.277
 5143WAT     H215672   6.866   3.458   1.227
 5144WAT      O15673   9.597   7.014   8.008
 5144WAT     H115674   9.502   7.044   7.998
 5144WAT     H215675   9.602   6.915   7.996
 5145WAT      O15676   3.380   5.677   7.911
 5145WAT     H115677   3.376   5.750   7.980
 5145WAT     H215678   3.313   5.606   7.935
 5146WAT      O15679   1.160   2.929   2.112
 5146WAT     H115680   1.130   2.834   2.103
 5146WAT     H215681   1.237   2.934   2.175
 5147WAT      O15682   3.705   4.218   1.581
 5147WAT     H115683   3.732   4.255   1.670
 5147WAT     H215684   3.606   4.230   1.569
 5148WAT      O15685   4.933   3.723   5.831
 5148WAT     H115686   4.997   3.757   5.762
 5148WAT     H215687   4.846   3.699   5.788
 5149WAT      O15688   8.721   8.322   2.728
 5149WAT     H115689   8.638   8.374   2.711
 5149WAT     H215690   8.698   8.233   2.766
 5150WAT      O15691   5.515   6.326   9.890
 5150WAT     H115692   5.611   6.303   9.902
 5150WAT     H215693   5.475   6.269   9.819
 5151WAT      O15694   1.816   0.962   7.440
 5151WAT     H115695   1.805   1.061   7.434
 5151WAT     H215696   1.912   0.938   7.430
 5152WAT      O15697   2.056   8.453   7.809
 5152WAT     H115698   2.119   8.530   7.812
 5152WAT     H215699   1.969   8.479   7.851
 5153WAT      O15700   6.121   1.061   3.971
 5153WAT     H115701   6.162   0.999   4.037
 5153WAT     H215702   6.027   1.032   3.951
 5154WAT      O15703   6.089   6.379   5.823
 5154WAT     H115704   6.150   6.332   5.760
 5154WAT     H215705   6.051   6.314   5.888
 5155WAT      O15706   9.093   0.776   1.671
 5155WAT     H115707   9.050   0.833   1.742
 5155WAT     H215708   9.024   0.749   1.604
 5156WAT      O15709   6.303   1.780   5.623
 5156WAT     H115710   6.398   1.748   5.618
 5156WAT     H215711   6.289   1.853   5.556
 5157WAT      O15712   5.555   4.193   9.532
 5157WAT     H115713   5.602   4.171   9.617
 5157WAT     H215714   5.605   4.264   9.483
 5158WAT      O15715   1.662   3.356   3.356
 5158WAT     H115716   1.641   3.298   3.434
 5158WAT     H215717   1.755   3.336   3.323
 5159WAT      O15718   9.702   2.163   3.192
 5159WAT     H115719   9.735   2.085   3.244
 5159WAT     H215720   9.733   2.157   3.098
 5160WAT      O15721   8.088   8.460   2.086
 5160WAT     H115722   8.089   8.532   2.156
 5160WAT     H215723   8.098   8.501   1.995
 5161WAT      O15724   5.786   2.920   4.360
 5161WAT     H115725   5.752   2.989   4.424
 5161WAT     H215726   5.870   2.879   4.396
 5162WAT      O15727   9.153   0.110   8.543
 5162WAT     H115728   9.201   0.034   8.500
 5162WAT     H215729   9.070   0.132   8.491
 5163WAT      O15730   5.161   7.946   3.268
 5163WAT     H115731   5.173   8.045   3.258
 5163WAT     H215732   5.206   7.915   3.352
 5164WAT      O15733   2.280   2.991   5.672
 5164WAT     H115734   2.317   3.026   5.586
 5164WAT     H215735   2.318   2.901   5.691
 5165WAT      O15736   1.950   6.829   5.897
 5165WAT     H115737   1.867   6.829   5.841
 5165WAT     H215738   1.941   6.763   5.971
 5166WAT      O15739   2.841   9.531   3.157
 5166WAT     H115740   2.777   9.606   3.140
 5166WAT     H215741   2.931   9.568   3.180
 5167WAT      O15742   7.838   6.002   8.774
 5167WAT     H115743   7.774   6.077   8.789
 5167WAT     H215744   7.794   5.915   8.797
 5168WAT      O15745   5.859   2.491   6.042
 5168WAT     H115746   5.895   2.398   6.053
 5168WAT     H215747   5.935   2.553   6.021
 5169WAT      O15748   4.159   4.178   4.871
 5169WAT     H115749   4.192   4.200   4.962
 5169WAT     H215750   4.066   4.213   4.859
 5170WAT      O15751   4.640   4.520   6.989
 5170WAT     H115752   4.682   4.609   7.008
 5170WAT     H215753   4.545   4.520   7.022
 5171WAT      O15754   0.977   0.797   6.019
 5171WAT     H115755   0.905   0.861   6.045
 5171WAT     H215756   0.968   0.774   5.922
 5172WAT      O15757   7.464   2.255   5.782
 5172WAT     H115758   7.435   2.316   5.856
 5172WAT     H215759   7.465   2.306   5.696
 5173WAT      O15760   4.511   8.044   1.833
 5173WAT     H115761   4.512   7.963   1.892
 5173WAT     H215762   4.598   8.050   1.784
 5174WAT      O15763   9.366   2.077   4.101
 5174WAT     H115764   9.368   2.174   4.124
 5174WAT     H215765   9.317   2.064   4.015
 5175WAT      O15766   3.198   2.418   9.642
 5175WAT     H115767   3.214   2.508   9.601
 5175WAT     H215768   3.108   2.417   9.684
 5176WAT      O15769   8.816   1.840   5.486
 5176WAT     H115770   8.855   1.764   5.434
 5176WAT     H215771   8.888   1.903   5.512
 5177WAT      O15772   3.143   0.176   2.600
 5177WAT     H115773   3.231   0.178   2.646
 5177WAT     H215774   3.105   0.083   2.604
 5178WAT      O15775   3.931   9.561   3.232
 5178WAT     H115776   3.870   9.483   3.248
 5178WAT     H215777   3.905   9.606   3.147
 5179WAT      O15778   6.255   5.115   1.396
 5179WAT     H115779   6.330   5.107   1.462
 5179WAT     H215780   6.177   5.161   1.439
 5180WAT      O15781   1.721   3.078   0.985
 5180WAT     H115782   1.659   3.125   0.924
 5180WAT     H215783   1.687   3.085   1.079
 5181WAT      O15784   0.728   8.225   3.544
 5181WAT     H115785   0.711   8.154   3.476
 5181WAT     H215786   0.803   8.284   3.512
 5182WAT      O15787   0.609   7.975   1.760
 5182WAT     H115788   0.577   8.010   1.848
 5182WAT     H215789   0.544   8.000   1.688
 5183WAT      O15790   9.439   5.404   9.574
 5183WAT     H115791   9.516   5.357   9.618
 5183WAT     H215792   9.426   5.368   9.482
 5184WAT      O15793   8.379   3.716   1.746
 5184WAT     H115794   8.374   3.769   1.831
 5184WAT     H215795   8.288   3.708   1.707
 5185WAT      O15796   3.150   2.965   6.289
 5185WAT     H115797   3.246   2.937   6.281
 5185WAT     H215798   3.144   3.064   6.277
 5186WAT      O15799   5.146   5.099   0.406
 5186WAT     H115800   5.142   5.020   0.345
 5186WAT     H215801   5.235   5.101   0.453
 5187WAT      O15802   8.265   7.798   9.502
 5187WAT     H115803   8.269   7.738   9.582
 5187WAT     H215804   8.173   7.837   9.495
 5188WAT      O15805   3.062   9.082   1.552
 5188WAT     H115806   3.028   8.994   1.520
 5188WAT     H215807   3.028   9.100   1.644
 5189WAT      O15808   1.061   0.101   5.401
 5189WAT     H115809   1.052   0.161   5.321
 5189WAT     H215810   1.148   0.052   5.396
 5190WAT      O15811   6.048   6.994   0.873
 5190WAT     H115812   6.123   6.943   0.914
 5190WAT     H215813   5.962   6.970   0.918
 5191WAT      O15814   0.897   8.327   2.271
 5191WAT     H115815   0.938   8.385   2.201
 5191WAT     H215816   0.797   8.338   2.268
 5192WAT      O15817   1.384   6.198   1.956
 5192WAT     H115818   1.357   6.239   1.870
 5192WAT     H215819   1.360   6.101   1.956
 5193WAT      O15820   0.609   3.868   4.407
 5193WAT     H115821   0.620   3.967   4.420
 5193WAT     H215822   0.512   3.846   4.401
 5194WAT      O15823   1.050   2.798   8.238
 5194WAT     H115824   0.983   2.746   8.185
 5194WAT     H215825   1.008   2.831   8.322
 5195WAT      O15826   0.149   7.154   4.857
 5195WAT     H115827   0.201   7.206   4.789
 5195WAT     H215828   0.112   7.218   4.925
 5196WAT      O15829   5.844   0.478   3.725
 5196WAT     H115830   5.789   0.406   3.682
 5196WAT     H215831   5.941   0.458   3.712
 5197WAT      O15832   3.645   6.493   4.537
 5197WAT     H115833   3.736   6.488   4.577
 5197WAT     H215834   3.578   6.462   4.604
 5198WAT      O15835   4.460   1.582   2.882
 5198WAT     H115836   4.550   1.625   2.874
 5198WAT     H215837   4.445   1.522   2.803
 5199WAT      O15838   5.312   8.741   9.339
 5199WAT     H115839   5.322   8.715   9.435
 5199WAT     H215840   5.377   8.814   9.317
 5200WAT      O15841   1.841   9.551   5.902
 5200WAT     H115842   1.876   9.632   5.856
 5200WAT     H215843   1.914   9.484   5.913
 5201WAT      O15844   7.571   7.595   6.255
 5201WAT     H115845   7.546   7.502   6.284
 5201WAT     H215846   7.569   7.600   6.155
 5202WAT      O15847   3.549   5.952   7.608
 5202WAT     H115848   3.470   5.899   7.637
 5202WAT     H215849   3.573   6.018   7.680
 5203WAT      O15850   7.189   8.372   0.130
 5203WAT     H115851   7.194   8.406   0.224
 5203WAT     H215852   7.133   8.434   0.075
 5204WAT      O15853   1.929   8.535   6.025
 5204WAT     H115854   1.900   8.467   5.958
 5204WAT     H215855   1.934   8.493   6.116
 5205WAT      O15856   5.649   3.264   6.781
 5205WAT     H115857   5.559   3.223   6.767
 5205WAT     H215858   5.672   3.322   6.703
 5206WAT      O15859   2.819   0.731   7.057
 5206WAT     H115860   2.856   0.809   7.108
 5206WAT     H215861   2.759   0.765   6.984
 5207WAT      O15862   2.747   0.169   9.402
 5207WAT     H115863   2.662   0.217   9.381
 5207WAT     H215864   2.761   0.094   9.337
 5208WAT      O15865   3.596   2.049   2.727
 5208WAT     H115866   3.618   1.984   2.800
 5208WAT     H215867   3.543   2.124   2.765
 5209WAT      O15868   2.887   9.162   0.297
 5209WAT     H115869   2.794   9.126   0.300
 5209WAT     H215870   2.943   9.117   0.365
 5210WAT      O15871   7.197   3.947   3.470
 5210WAT     H115872   7.112   3.980   3.429
 5210WAT     H215873   7.237   4.020   3.525
 5211WAT      O15874   7.272   7.700   3.067
 5211WAT     H115875   7.333   7.763   3.115
 5211WAT     H215876   7.220   7.750   2.998
 5212WAT      O15877   7.189   7.850   2.794
 5212WAT     H115878   7.263   7.885   2.736
 5212WAT     H215879   7.169   7.756   2.768
 5213WAT      O15880   8.986   0.064   0.971
 5213WAT     H115881   8.993  -0.026   1.015
 5213WAT     H215882   8.890   0.087   0.958
 5214WAT      O15883   9.693   7.277   5.739
 5214WAT     H115884   9.720   7.262   5.834
 5214WAT     H215885   9.740   7.357   5.703
 5215WAT      O15886   2.247   1.244   7.188
 5215WAT     H115887   2.301   1.252   7.272
 5215WAT     H215888   2.291   1.295   7.114
 5216WAT      O15889   7.093   3.769   3.654
 5216WAT     H115890   7.114   3.836   3.583
 5216WAT     H215891   7.105   3.810   3.744
 5217WAT      O15892   3.143   9.208   2.666
 5217WAT     H115893   3.062   9.263   2.646
 5217WAT     H215894   3.174   9.163   2.582
 5218WAT      O15895   4.684   8.644   3.747
 5218WAT     H115896   4.741   8.573   3.705
 5218WAT     H215897   4.738   8.694   3.815
 5219WAT      O15898   8.034   1.655   8.241
 5219WAT     H115899   7.938   1.677   8.262
 5219WAT     H215900   8.057   1.567   8.282
 5220WAT      O15901   0.121   4.582   1.272
 5220WAT     H115902   0.084   4.532   1.193
 5220WAT     H215903   0.106   4.529   1.355
 5221WAT      O15904   7.298   0.428   9.646
 5221WAT     H115905   7.357   0.349   9.630
 5221WAT     H215906   7.306   0.492   9.570
 5222WAT      O15907   2.544   7.994   4.211
 5222WAT     H115908   2.561   7.896   4.201
 5222WAT     H215909   2.457   8.018   4.169
 5223WAT      O15910   0.596   8.749   1.511
 5223WAT     H115911   0.671   8.687   1.489
 5223WAT     H215912   0.629   8.843   1.504
 5224WAT      O15913   9.697   1.983   0.757
 5224WAT     H115914   9.712   2.045   0.680
 5224WAT     H215915   9.658   1.897   0.724
 5225WAT      O15916   6.702   6.289   3.626
 5225WAT     H115917   6.635   6.274   3.554
 5225WAT     H215918   6.658   6.328   3.706
 5226WAT      O15919   0.297   0.076   9.858
 5226WAT     H115920   0.197   0.089   9.858
 5226WAT     H215921   0.318  -0.018   9.830
 5227WAT      O15922   2.975   8.304   8.969
 5227WAT     H115923   2.972   8.244   8.889
 5227WAT     H215924   3.055   8.363   8.963
 5228WAT      O15925   7.523   2.792   8.284
 5228WAT     H115926   7.511   2.707   8.232
 5228WAT     H215927   7.598   2.844   8.245
 5229WAT      O15928   1.264   3.603   3.697
 5229WAT     H115929   1.235   3.517   3.655
 5229WAT     H215930   1.338   3.585   3.762
 5230WAT      O15931   5.893   4.718   3.566
 5230WAT     H115932   5.860   4.806   3.598
 5230WAT     H215933   5.840   4.689   3.487
 5231WAT      O15934   4.729   8.515   5.706
 5231WAT     H115935   4.757   8.499   5.612
 5231WAT     H215936   4.693   8.608   5.715
 5232WAT      O15937   2.270   3.058   8.815
 5232WAT     H115938   2.243   3.154   8.803
 5232WAT     H215939   2.331   3.050   8.893
 5233WAT      O15940   1.184   4.248   2.827
 5233WAT     H115941   1.124   4.172   2.849
 5233WAT     H215942   1.277   4.227   2.859
 5234WAT      O15943   6.464   0.733   5.310
 5234WAT     H115944   6.421   0.644   5.328
 5234WAT     H215945   6.563   0.721   5.305
 5235WAT      O15946   8.696   3.557   3.913
 5235WAT     H115947   8.643   3.488   3.863
 5235WAT     H215948   8.674   3.553   4.010
 5236WAT      O15949   2.537   9.262   4.094
 5236WAT     H115950   2.442   9.235   4.080
 5236WAT     H215951   2.576   9.291   4.007
 5237WAT      O15952   7.746   7.982   1.809
 5237WAT     H115953   7.782   8.054   1.751
 5237WAT     H215954   7.707   7.909   1.753
 5238WAT      O15955   9.350   0.135   7.194
 5238WAT     H115956   9.285   0.094   7.129
 5238WAT     H215957   9.440   0.092   7.182
 5239WAT      O15958   7.882   9.795   8.034
 5239WAT     H115959   7.959   9.800   8.098
 5239WAT     H215960   7.864   9.700   8.010
 5240WAT      O15961   3.159   8.891   9.092
 5240WAT     H115962   3.094   8.841   9.149
 5240WAT     H215963   3.251   8.853   9.105
 5241WAT      O15964   4.441   5.081   0.424
 5241WAT     H115965   4.451   5.113   0.518
 5241WAT     H215966   4.508   5.128   0.365
 5242WAT      O15967   7.430   6.701   6.090
 5242WAT     H115968   7.338   6.685   6.053
 5242WAT     H215969   7.497   6.696   6.016
 5243WAT      O15970   5.742   2.674   8.421
 5243WAT     H115971   5.818   2.726   8.459
 5243WAT     H215972   5.677   2.651   8.493
 5244WAT      O15973   1.805   8.689   0.075
 5244WAT     H115974   1.884   8.664   0.131
 5244WAT     H215975   1.835   8.747  -0.001
 5245WAT      O15976   8.088   6.785   9.464
 5245WAT     H115977   8.101   6.689   9.439
 5245WAT     H215978   8.145   6.843   9.405
 5246WAT      O15979   3.004   6.563   5.829
 5246WAT     H115980   3.008   6.562   5.729
 5246WAT     H215981   2.968   6.651   5.860
 5247WAT      O15982   7.267   9.202   5.322
 5247WAT     H115983   7.312   9.196   5.233
 5247WAT     H215984   7.335   9.222   5.393
 5248WAT      O15985   9.696   8.830   3.214
 5248WAT     H115986   9.703   8.733   3.187
 5248WAT     H215987   9.721   8.888   3.136
 5249WAT      O15988   7.856   5.478   9.690
 5249WAT     H115989   7.776   5.534   9.669
 5249WAT     H215990   7.930   5.500   9.626
 5250WAT      O15991   5.264   7.013   5.343
 5250WAT     H115992   5.342   7.062   5.302
 5250WAT     H215993   5.254   7.042   5.438
 5251WAT      O15994   2.984   2.046   6.722
 5251WAT     H115995   3.010   2.079   6.813
 5251WAT     H215996   2.884   2.045   6.715
 5252WAT      O15997   7.175   0.196   8.867
 5252WAT     H115998   7.227   0.190   8.952
 5252WAT     H215999   7.115   0.117   8.858
 5253WAT      O16000   5.740   6.101   9.701
 5253WAT     H116001   5.763   6.007   9.725
 5253WAT     H216002   5.769   6.163   9.774
 5254WAT      O16003   6.127   3.232   0.403
 5254WAT     H116004   6.221   3.237   0.438
 5254WAT     H216005   6.081   3.320   0.420
 5255WAT      O16006   1.979   2.539   8.267
 5255WAT     H116007   2.026   2.546   8.178
 5255WAT     H216008   2.040   2.496   8.333
 5256WAT      O16009   0.622   7.254   9.739
 5256WAT     H116010   0.708   7.254   9.688
 5256WAT     H216011   0.582   7.346   9.736
 5257WAT      O16012   5.549   3.629   1.769
 5257WAT     H116013   5.610   3.593   1.699
 5257WAT     H216014   5.603   3.673   1.841
 5258WAT      O16015   1.370   5.021   5.212
 5258WAT     H116016   1.414   4.936   5.185
 5258WAT     H216017   1.328   5.010   5.302
 5259WAT      O16018   2.076   6.075   9.611
 5259WAT     H116019   2.110   5.990   9.651
 5259WAT     H216020   2.153   6.127   9.573
 5260WAT      O16021   2.477   9.502   3.176
 5260WAT     H116022   2.494   9.480   3.272
 5260WAT     H216023   2.549   9.461   3.119
 5261WAT      O16024   4.963   7.073   9.204
 5261WAT     H116025   5.040   7.027   9.249
 5261WAT     H216026   4.877   7.043   9.245
 5262WAT      O16027   5.711   3.081   4.570
 5262WAT     H116028   5.794   3.071   4.624
 5262WAT     H216029   5.663   3.165   4.597
 5263WAT      O16030   6.902   6.030   9.093
 5263WAT     H116031   6.998   6.014   9.118
 5263WAT     H216032   6.879   6.125   9.110
 5264WAT      O16033   1.272   5.472   3.061
 5264WAT     H116034   1.225   5.509   2.981
 5264WAT     H216035   1.207   5.458   3.135
 5265WAT      O16036   8.766   3.198   9.049
 5265WAT     H116037   8.784   3.295   9.067
 5265WAT     H216038   8.668   3.181   9.056
 5266WAT      O16039   8.690   7.393   1.858
 5266WAT     H116040   8.644   7.344   1.932
 5266WAT     H216041   8.788   7.400   1.878
 5267WAT      O16042   4.206   2.802   0.668
 5267WAT     H116043   4.239   2.713   0.698
 5267WAT     H216044   4.232   2.817   0.572
 5268WAT      O16045   2.822   2.748   6.477
 5268WAT     H116046   2.917   2.724   6.498
 5268WAT     H216047   2.814   2.847   6.469
 5269WAT      O16048   1.339   8.623   3.792
 5269WAT     H116049   1.347   8.613   3.693
 5269WAT     H216050   1.244   8.643   3.816
 5270WAT      O16051   9.845   2.824   2.544
 5270WAT     H116052   9.911   2.813   2.619
 5270WAT     H216053   9.895   2.834   2.458
 5271WAT      O16054   6.243   0.979   3.513
 5271WAT     H116055   6.158   0.957   3.464
 5271WAT     H216056   6.229   0.964   3.611
 5272WAT      O16057   2.667   2.322   8.223
 5272WAT     H116058   2.731   2.398   8.239
 5272WAT     H216059   2.640   2.321   8.127
 5273WAT      O16060   8.997   9.111   0.687
 5273WAT     H116061   8.963   9.018   0.676
 5273WAT     H216062   9.095   9.114   0.667
 5274WAT      O16063   6.252   8.219   0.518
 5274WAT     H116064   6.326   8.190   0.458
 5274WAT     H216065   6.201   8.138   0.549
 5275WAT      O16066   5.513   9.296   2.173
 5275WAT     H116067   5.414   9.282   2.176
 5275WAT     H216068   5.559   9.208   2.161
 5276WAT      O16069   2.039   5.076   5.344
 5276WAT     H116070   1.994   4.988   5.359
 5276WAT     H216071   1.999   5.145   5.403
 5277WAT      O16072   0.253   9.391   1.927
 5277WAT     H116073   0.242   9.303   1.882
 5277WAT     H216074   0.165   9.422   1.963
 5278WAT      O16075   1.267   1.309   4.975
 5278WAT     H116076   1.360   1.286   5.005
 5278WAT     H216077   1.237   1.242   4.907
 5279WAT      O16078   7.902   6.658   2.790
 5279WAT     H116079   7.822   6.598   2.792
 5279WAT     H216080   7.892   6.728   2.861
 5280WAT      O16081   0.965   2.321   9.662
 5280WAT     H116082   1.061   2.343   9.680
 5280WAT     H216083   0.913   2.326   9.747
 5281WAT      O16084   0.300   7.889   6.492
 5281WAT     H116085   0.232   7.963   6.492
 5281WAT     H216086   0.314   7.857   6.586
 5282WAT      O16087   2.738   4.311   4.330
 5282WAT     H116088   2.687   4.273   4.253
 5282WAT     H216089   2.674   4.353   4.394
 5283WAT      O16090   6.335   7.870   3.089
 5283WAT     H116091   6.303   7.870   2.995
 5283WAT     H216092   6.259   7.888   3.151
 5284WAT      O16093   3.551   6.113   3.672
 5284WAT     H116094   3.480   6.183   3.667
 5284WAT     H216095   3.640   6.154   3.650
 5285WAT      O16096   5.378   2.853   2.897
 5285WAT     H116097   5.369   2.800   2.813
 5285WAT     H216098   5.432   2.935   2.878
 5286WAT      O16099   7.685   8.146   8.289
 5286WAT     H116100   7.749   8.069   8.291
 5286WAT     H216101   7.725   8.221   8.236
 5287WAT      O16102   7.148   8.049   8.812
 5287WAT     H116103   7.073   8.073   8.874
 5287WAT     H216104   7.227   8.019   8.865
 5288WAT      O16105   5.916   5.561   4.925
 5288WAT     H116106   5.970   5.529   5.003
 5288WAT     H216107   5.840   5.617   4.958
 5289WAT      O16108   5.737   1.957   6.392
 5289WAT     H116109   5.760   1.897   6.469
 5289WAT     H216110   5.677   1.908   6.329
 5290WAT      O16111   2.324   3.592   3.485
 5290WAT     H116112   2.297   3.688   3.494
 5290WAT     H216113   2.347   3.555   3.575
 5291WAT      O16114   8.694   3.359   2.900
 5291WAT     H116115   8.672   3.282   2.840
 5291WAT     H216116   8.613   3.381   2.955
 5292WAT      O16117   6.691   4.026   7.802
 5292WAT     H116118   6.724   4.002   7.893
 5292WAT     H216119   6.766   4.065   7.749
 5293WAT      O16120   7.957   1.801   0.067
 5293WAT     H116121   8.042   1.749   0.070
 5293WAT     H216122   7.946   1.843  -0.024
 5294WAT      O16123   4.352   6.065   3.047
 5294WAT     H116124   4.428   6.126   3.025
 5294WAT     H216125   4.342   6.060   3.147
 5295WAT      O16126   8.584   6.904   1.881
 5295WAT     H116127   8.663   6.903   1.820
 5295WAT     H216128   8.521   6.977   1.855
 5296WAT      O16129   9.455   0.265   6.001
 5296WAT     H116130   9.541   0.242   6.047
 5296WAT     H216131   9.464   0.245   5.903
 5297WAT      O16132   4.006   2.156   2.859
 5297WAT     H116133   3.939   2.149   2.785
 5297WAT     H216134   4.098   2.157   2.820
 5298WAT      O16135   9.760   6.306   9.481
 5298WAT     H116136   9.769   6.316   9.382
 5298WAT     H216137   9.672   6.263   9.503
 5299WAT      O16138   0.503   0.341   5.739
 5299WAT     H116139   0.534   0.386   5.823
 5299WAT     H216140   0.566   0.266   5.716
 5300WAT      O16141   1.786   5.754   6.072
 5300WAT     H116142   1.697   5.709   6.058
 5300WAT     H216143   1.785   5.803   6.159
 5301WAT      O16144   3.675   4.213   5.296
 5301WAT     H116145   3.743   4.141   5.285
 5301WAT     H216146   3.622   4.196   5.379
 5302WAT      O16147   3.694   6.876   8.550
 5302WAT     H116148   3.649   6.789   8.572
 5302WAT     H216149   3.632   6.932   8.495
 5303WAT      O16150   6.604   2.719   0.399
 5303WAT     H116151   6.626   2.817   0.398
 5303WAT     H216152   6.505   2.707   0.386
 5304WAT      O16153   3.618   7.503   5.974
 5304WAT     H116154   3.609   7.523   6.071
 5304WAT     H216155   3.604   7.405   5.959
 5305WAT      O16156   1.520   0.662   7.680
 5305WAT     H116157   1.592   0.697   7.621
 5305WAT     H216158   1.482   0.737   7.735
 5306WAT      O16159   6.669   6.208   2.077
 5306WAT     H116160   6.725   6.271   2.131
 5306WAT     H216161   6.578   6.201   2.119
 5307WAT      O16162   9.685   3.015   8.256
 5307WAT     H116163   9.718   2.923   8.275
 5307WAT     H216164   9.735   3.053   8.177
 5308WAT      O16165   5.347   3.892   0.253
 5308WAT     H116166   5.313   3.908   0.161
 5308WAT     H216167   5.307   3.959   0.316
 5309WAT      O16168   3.061   1.634   7.911
 5309WAT     H116169   3.116   1.683   7.844
 5309WAT     H216170   3.031   1.547   7.872
 5310WAT      O16171   3.335   3.925   1.684
 5310WAT     H116172   3.257   3.941   1.745
 5310WAT     H216173   3.305   3.930   1.589
 5311WAT      O16174   0.790   3.048   0.467
 5311WAT     H116175   0.841   2.982   0.523
 5311WAT     H216176   0.845   3.130   0.453
 5312WAT      O16177   5.800   6.107   8.211
 5312WAT     H116178   5.709   6.116   8.253
 5312WAT     H216179   5.851   6.034   8.257
 5313WAT      O16180   8.245   8.401   5.117
 5313WAT     H116181   8.330   8.427   5.162
 5313WAT     H216182   8.172   8.392   5.186
 5314WAT      O16183   8.824   9.637   9.369
 5314WAT     H116184   8.858   9.570   9.435
 5314WAT     H216185   8.841   9.603   9.276
 5315WAT      O16186   6.672   9.484   9.725
 5315WAT     H116187   6.672   9.456   9.629
 5315WAT     H216188   6.713   9.574   9.733
 5316WAT      O16189   3.807   4.403   1.783
 5316WAT     H116190   3.903   4.425   1.798
 5316WAT     H216191   3.779   4.331   1.847
 5317WAT      O16192   8.600   6.422   6.365
 5317WAT     H116193   8.668   6.356   6.395
 5317WAT     H216194   8.621   6.512   6.401
 5318WAT      O16195   4.524   0.394   9.656
 5318WAT     H116196   4.532   0.388   9.755
 5318WAT     H216197   4.474   0.314   9.622
 5319WAT      O16198   3.242   1.620   6.037
 5319WAT     H116199   3.222   1.636   5.940
 5319WAT     H216200   3.184   1.680   6.093
 5320WAT      O16201   6.160   3.641   1.606
 5320WAT     H116202   6.259   3.629   1.599
 5320WAT     H216203   6.116   3.551   1.612
 5321WAT      O16204   7.501   2.211   6.149
 5321WAT     H116205   7.554   2.150   6.207
 5321WAT     H216206   7.405   2.183   6.149
 5322WAT      O16207   4.220   9.066   6.868
 5322WAT     H116208   4.235   9.065   6.967
 5322WAT     H216209   4.307   9.082   6.821
 5323WAT      O16210   3.201   6.644   4.257
 5323WAT     H116211   3.183   6.561   4.310
 5323WAT     H216212   3.183   6.724   4.315
 5324WAT      O16213   7.707   4.731   0.385
 5324WAT     H116214   7.719   4.645   0.335
 5324WAT     H216215   7.757   4.804   0.339
 5325WAT      O16216   9.120   7.635   1.644
 5325WAT     H116217   9.206   7.666   1.603
 5325WAT     H216218   9.116   7.536   1.643
 5326WAT      O16219   7.366   6.258   0.775
 5326WAT     H116220   7.436   6.210   0.721
 5326WAT     H216221   7.395   6.352   0.789
 5327WAT      O16222   0.563   6.780   1.775
 5327WAT     H116223   0.501   6.702   1.769
 5327WAT     H216224   0.514   6.858   1.815
 5328WAT      O16225   1.889   0.270   8.245
 5328WAT     H116226   1.805   0.294   8.196
 5328WAT     H216227   1.941   0.204   8.191
 5329WAT      O16228   0.040   4.090   4.544
 5329WAT     H116229   0.133   4.072   4.511
 5329WAT     H216230   0.004   4.172   4.499
 5330WAT      O16231   0.429   0.267   1.850
 5330WAT     H116232   0.431   0.168   1.863
 5330WAT     H216233   0.500   0.294   1.785
 5331WAT      O16234   6.722   1.745   7.513
 5331WAT     H116235   6.733   1.821   7.577
 5331WAT     H216236   6.625   1.733   7.492
 5332WAT      O16237   4.553   3.981   1.587
 5332WAT     H116238   4.507   3.985   1.675
 5332WAT     H216239   4.629   4.046   1.586
 5333WAT      O16240   5.946   2.571   3.222
 5333WAT     H116241   6.036   2.527   3.214
 5333WAT     H216242   5.923   2.615   3.136
 5334WAT      O16243   2.978   5.826   8.373
 5334WAT     H116244   2.974   5.744   8.315
 5334WAT     H216245   3.029   5.898   8.326
 5335WAT      O16246   4.456   4.027   3.235
 5335WAT     H116247   4.543   4.074   3.225
 5335WAT     H216248   4.416   4.010   3.145
 5336WAT      O16249   5.222   7.833   4.682
 5336WAT     H116250   5.196   7.757   4.623
 5336WAT     H216251   5.172   7.915   4.655
 5337WAT      O16252   8.003   8.305   6.765
 5337WAT     H116253   8.093   8.270   6.741
 5337WAT     H216254   7.963   8.351   6.685
 5338WAT      O16255   2.521   9.494   5.605
 5338WAT     H116256   2.506   9.410   5.656
 5338WAT     H216257   2.602   9.540   5.640
 5339WAT      O16258   8.489   5.559   9.587
 5339WAT     H116259   8.568   5.615   9.559
 5339WAT     H216260   8.520   5.467   9.610
 5340WAT      O16261   0.837   6.224   5.157
 5340WAT     H116262   0.766   6.245   5.224
 5340WAT     H216263   0.809   6.257   5.067
 5341WAT      O16264   9.883   6.783   6.897
 5341WAT     H116265   9.791   6.772   6.934
 5341WAT     H216266   9.878   6.820   6.804
 5342WAT      O16267   8.480   2.316   5.669
 5342WAT     H116268   8.417   2.270   5.606
 5342WAT     H216269   8.520   2.396   5.623
 5343WAT      O16270   4.697   6.424   6.029
 5343WAT     H116271   4.638   6.441   5.950
 5343WAT     H216272   4.661   6.347   6.082
 5344WAT      O16273   2.732   2.163   9.821
 5344WAT     H116274   2.740   2.251   9.869
 5344WAT     H216275   2.823   2.134   9.790
 5345WAT      O16276   4.384   9.338   4.710
 5345WAT     H116277   4.351   9.433   4.709
 5345WAT     H216278   4.410   9.311   4.617
 5346WAT      O16279   8.288   0.926   9.464
 5346WAT     H116280   8.343   0.877   9.397
 5346WAT     H216281   8.309   1.024   9.458
 5347WAT      O16282   1.780   0.384   5.366
 5347WAT     H116283   1.707   0.366   5.431
 5347WAT     H216284   1.848   0.444   5.407
 5348WAT      O16285   1.752   8.349   8.015
 5348WAT     H116286   1.654   8.371   8.016
 5348WAT     H216287   1.800   8.415   7.958
 5349WAT      O16288   8.206   2.291   2.162
 5349WAT     H116289   8.269   2.214   2.152
 5349WAT     H216290   8.214   2.351   2.083
 5350WAT      O16291   4.750   0.305   9.535
 5350WAT     H116292   4.723   0.220   9.490
 5350WAT     H216293   4.669   0.349   9.573
 5351WAT      O16294   9.803   7.342   3.417
 5351WAT     H116295   9.784   7.341   3.319
 5351WAT     H216296   9.732   7.393   3.465
 5352WAT      O16297   8.305   1.539   0.431
 5352WAT     H116298   8.207   1.552   0.421
 5352WAT     H216299   8.328   1.443   0.414
 5353WAT      O16300   8.869   3.413   2.536
 5353WAT     H116301   8.856   3.465   2.621
 5353WAT     H216302   8.782   3.409   2.486
 5354WAT      O16303   6.852   5.464   0.702
 5354WAT     H116304   6.775   5.423   0.752
 5354WAT     H216305   6.822   5.548   0.657
 5355WAT      O16306   8.921   1.109   0.604
 5355WAT     H116307   9.005   1.057   0.593
 5355WAT     H216308   8.899   1.157   0.519
 5356WAT      O16309   1.670   4.058   2.368
 5356WAT     H116310   1.629   3.994   2.303
 5356WAT     H216311   1.638   4.037   2.460
 5357WAT      O16312   0.147   9.013   5.639
 5357WAT     H116313   0.131   9.100   5.687
 5357WAT     H216314   0.121   9.024   5.543
 5358WAT      O16315   3.748   7.203   2.807
 5358WAT     H116316   3.727   7.149   2.726
 5358WAT     H216317   3.664   7.222   2.858
 5359WAT      O16318   0.798   7.404   8.289
 5359WAT     H116319   0.863   7.363   8.225
 5359WAT     H216320   0.705   7.384   8.258
 5360WAT      O16321   9.441   0.039   4.996
 5360WAT     H116322   9.455   0.103   5.072
 5360WAT     H216323   9.372   0.077   4.934
 5361WAT      O16324   1.933   7.754   6.115
 5361WAT     H116325   1.978   7.827   6.063
 5361WAT     H216326   1.882   7.794   6.191
 5362WAT      O16327   1.402   1.176   2.917
 5362WAT     H116328   1.452   1.257   2.885
 5362WAT     H216329   1.415   1.166   3.016
 5363WAT      O16330   9.487   5.414   6.632
 5363WAT     H116331   9.568   5.406   6.689
 5363WAT     H216332   9.487   5.503   6.586
 5364WAT      O16333   7.355   5.398   6.217
 5364WAT     H116334   7.284   5.450   6.264
 5364WAT     H216335   7.320   5.368   6.128
 5365WAT      O16336   5.363   0.778   4.570
 5365WAT     H116337   5.462   0.763   4.567
 5365WAT     H216338   5.343   0.873   4.545
 5366WAT      O16339   2.142   7.252   0.497
 5366WAT     H116340   2.133   7.155   0.520
 5366WAT     H216341   2.211   7.293   0.556
 5367WAT      O16342   0.668   3.230   9.186
 5367WAT     H116343   0.765   3.203   9.188
 5367WAT     H216344   0.656   3.315   9.238
 5368WAT      O16345   3.773   3.217   5.759
 5368WAT     H116346   3.717   3.218   5.676
 5368WAT     H216347   3.822   3.303   5.767
 5369WAT      O16348   9.302   4.354   1.272
 5369WAT     H116349   9.327   4.260   1.294
 5369WAT     H216350   9.378   4.415   1.292
 5370WAT      O16351   6.939   4.335   1.093
 5370WAT     H116352   6.976   4.249   1.130
 5370WAT     H216353   7.012   4.384   1.045
 5371WAT      O16354   2.518   1.603   4.494
 5371WAT     H116355   2.559   1.681   4.446
 5371WAT     H216356   2.497   1.531   4.428
 5372WAT      O16357   2.055   8.199   4.057
 5372WAT     H116358   2.121   8.212   3.984
 5372WAT     H216359   2.021   8.287   4.089
 5373WAT      O16360   6.554   0.848   3.200
 5373WAT     H116361   6.485   0.780   3.223
 5373WAT     H216362   6.556   0.862   3.101
 5374WAT      O16363   7.036   9.825   7.665
 5374WAT     H116364   7.024   9.840   7.567
 5374WAT     H216365   7.127   9.788   7.682
 5375WAT      O16366   4.514   8.465   4.641
 5375WAT     H116367   4.567   8.408   4.704
 5375WAT     H216368   4.521   8.428   4.548
 5376WAT      O16369   9.543   7.013   3.468
 5376WAT     H116370   9.557   7.111   3.482
 5376WAT     H216371   9.509   6.998   3.375
 5377WAT      O16372   8.898   3.899   2.242
 5377WAT     H116373   8.913   3.801   2.252
 5377WAT     H216374   8.874   3.939   2.330
 5378WAT      O16375   2.533   6.829   1.445
 5378WAT     H116376   2.444   6.872   1.457
 5378WAT     H216377   2.605   6.898   1.456
 5379WAT      O16378   7.655   8.849   3.613
 5379WAT     H116379   7.654   8.856   3.712
 5379WAT     H216380   7.749   8.831   3.582
 5380WAT      O16381   7.199   7.920   4.458
 5380WAT     H116382   7.118   7.922   4.515
 5380WAT     H216383   7.180   7.868   4.374
 5381WAT      O16384   3.934   5.240   2.581
 5381WAT     H116385   3.969   5.159   2.534
 5381WAT     H216386   3.886   5.298   2.515
 5382WAT      O16387   4.952   4.840   1.143
 5382WAT     H116388   4.916   4.751   1.113
 5382WAT     H216389   4.886   4.911   1.121
 5383WAT      O16390   0.525   4.104   0.370
 5383WAT     H116391   0.470   4.047   0.309
 5383WAT     H216392   0.476   4.116   0.457
 5384WAT      O16393   7.565   8.123   3.489
 5384WAT     H116394   7.596   8.136   3.395
 5384WAT     H216395   7.642   8.096   3.547
 5385WAT      O16396   4.394   7.020   7.313
 5385WAT     H116397   4.410   7.037   7.216
 5385WAT     H216398   4.377   6.922   7.327
 5386WAT      O16399   6.483   0.865   2.894
 5386WAT     H116400   6.557   0.931   2.904
 5386WAT     H216401   6.395   0.909   2.910
 5387WAT      O16402   0.618   7.720   7.051
 5387WAT     H116403   0.698   7.662   7.038
 5387WAT     H216404   0.544   7.668   7.094
 5388WAT      O16405   2.091   0.448   0.540
 5388WAT     H116406   2.024   0.426   0.610
 5388WAT     H216407   2.141   0.366   0.513
 5389WAT      O16408   6.244   7.805   4.564
 5389WAT     H116409   6.202   7.785   4.653
 5389WAT     H216410   6.177   7.852   4.506
 5390WAT      O16411   0.500   5.150   0.448
 5390WAT     H116412   0.521   5.115   0.357
 5390WAT     H216413   0.547   5.095   0.517
 5391WAT      O16414   3.777   3.860   4.136
 5391WAT     H116415   3.822   3.926   4.076
 5391WAT     H216416   3.842   3.827   4.205
 5392WAT      O16417   4.969   4.427   1.017
 5392WAT     H116418   4.930   4.360   1.081
 5392WAT     H216419   4.900   4.497   0.998
 5393WAT      O16420   8.938   1.572   1.272
 5393WAT     H116421   8.991   1.604   1.194
 5393WAT     H216422   8.987   1.497   1.317
 5394WAT      O16423   2.172   5.544   0.660
 5394WAT     H116424   2.202   5.600   0.738
 5394WAT     H216425   2.122   5.601   0.595
 5395WAT      O16426   8.838   2.710   9.793
 5395WAT     H116427   8.875   2.694   9.701
 5395WAT     H216428   8.891   2.658   9.860
 5396WAT      O16429   4.032   4.757   8.959
 5396WAT     H116430   4.127   4.744   8.932
 5396WAT     H216431   4.028   4.787   9.055
 5397WAT      O16432   9.396   0.255   8.252
 5397WAT     H116433   9.377   0.325   8.183
 5397WAT     H216434   9.375   0.290   8.343
 5398WAT      O16435   7.846   6.921   4.225
 5398WAT     H116436   7.801   6.927   4.136
 5398WAT     H216437   7.902   6.839   4.229
 5399WAT      O16438   3.835   0.190   4.692
 5399WAT     H116439   3.752   0.245   4.706
 5399WAT     H216440   3.835   0.114   4.758
 5400WAT      O16441   5.528   0.877   9.487
 5400WAT     H116442   5.607   0.830   9.449
 5400WAT     H216443   5.459   0.892   9.416
 5401WAT      O16444   7.182   7.005   1.852
 5401WAT     H116445   7.200   6.907   1.866
 5401WAT     H216446   7.269   7.053   1.840
 5402WAT      O16447   8.596   2.228   8.286
 5402WAT     H116448   8.521   2.169   8.258
 5402WAT     H216449   8.627   2.282   8.208
 5403WAT      O16450   5.788   6.231   0.047
 5403WAT     H116451   5.846   6.311   0.062
 5403WAT     H216452   5.778   6.180   0.133
 5404WAT      O16453   7.229   8.005   0.411
 5404WAT     H116454   7.297   8.052   0.468
 5404WAT     H216455   7.243   7.906   0.418
 5405WAT      O16456   1.487   4.440   9.560
 5405WAT     H116457   1.405   4.445   9.617
 5405WAT     H216458   1.518   4.532   9.538
 5406WAT      O16459   9.497   9.022   1.272
 5406WAT     H116460   9.528   8.947   1.214
 5406WAT     H216461   9.423   8.990   1.331
 5407WAT      O16462   9.026   1.993   7.524
 5407WAT     H116463   9.116   1.951   7.528
 5407WAT     H216464   9.002   2.029   7.614
 5408WAT      O16465   7.872   6.107   9.741
 5408WAT     H116466   7.776   6.086   9.762
 5408WAT     H216467   7.918   6.137   9.825
 5409WAT      O16468   6.589   8.943   6.463
 5409WAT     H116469   6.643   8.926   6.546
 5409WAT     H216470   6.500   8.898   6.471
 5410WAT      O16471   6.294   4.909   6.925
 5410WAT     H116472   6.241   4.971   6.866
 5410WAT     H216473   6.334   4.837   6.869
 5411WAT      O16474   7.285   8.821   0.489
 5411WAT     H116475   7.344   8.805   0.568
 5411WAT     H216476   7.190   8.802   0.513
 5412WAT      O16477   6.483   5.616   9.279
 5412WAT     H116478   6.569   5.585   9.238
 5412WAT     H216479   6.407   5.564   9.241
 5413WAT      O16480   4.148   2.171   1.573
 5413WAT     H116481   4.237   2.212   1.553
 5413WAT     H216482   4.156   2.071   1.573
 5414WAT      O16483   8.332   0.942   8.106
 5414WAT     H116484   8.367   0.868   8.163
 5414WAT     H216485   8.389   1.024   8.119
 5415WAT      O16486   2.871   1.785   3.476
 5415WAT     H116487   2.873   1.685   3.474
 5415WAT     H216488   2.938   1.821   3.412
 5416WAT      O16489   1.916   5.416   2.342
 5416WAT     H116490   1.841   5.471   2.304
 5416WAT     H216491   1.980   5.391   2.270
 5417WAT      O16492   2.855   1.564   7.533
 5417WAT     H116493   2.917   1.531   7.605
 5417WAT     H216494   2.870   1.661   7.517
 5418WAT      O16495   5.363   4.229   7.399
 5418WAT     H116496   5.277   4.279   7.404
 5418WAT     H216497   5.350   4.136   7.434
 5419WAT      O16498   7.376   3.107   7.644
 5419WAT     H116499   7.286   3.134   7.612
 5419WAT     H216500   7.443   3.177   7.619
 5420WAT      O16501   5.154   3.301   5.321
 5420WAT     H116502   5.229   3.321   5.383
 5420WAT     H216503   5.083   3.249   5.369
 5421WAT      O16504   4.500   2.723   2.358
 5421WAT     H116505   4.545   2.633   2.356
 5421WAT     H216506   4.533   2.775   2.436
 5422WAT      O16507   4.963   7.189   6.167
 5422WAT     H116508   4.892   7.214   6.102
 5422WAT     H216509   4.922   7.146   6.247
 5423WAT      O16510   7.272   3.918   6.995
 5423WAT     H116511   7.361   3.928   6.951
 5423WAT     H216512   7.262   3.987   7.067
 5424WAT      O16513   6.973   9.521   5.370
 5424WAT     H116514   6.884   9.487   5.399
 5424WAT     H216515   7.043   9.491   5.436
 5425WAT      O16516   6.984   9.347   9.436
 5425WAT     H116517   6.999   9.248   9.444
 5425WAT     H216518   7.058   9.388   9.383
 5426WAT      O16519   5.261   6.823   9.792
 5426WAT     H116520   5.216   6.735   9.774
 5426WAT     H216521   5.315   6.816   9.876
 5427WAT      O16522   0.491   2.779   9.663
 5427WAT     H116523   0.538   2.775   9.751
 5427WAT     H216524   0.464   2.874   9.644
 5428WAT      O16525   9.609   9.428   9.499
 5428WAT     H116526   9.511   9.421   9.479
 5428WAT     H216527   9.661   9.414   9.416
 5429WAT      O16528   5.662   3.389   5.333
 5429WAT     H116529   5.634   3.427   5.421
 5429WAT     H216530   5.619   3.441   5.259
 5430WAT      O16531   1.033   4.414   4.385
 5430WAT     H116532   0.961   4.369   4.332
 5430WAT     H216533   1.118   4.412   4.333
 5431WAT      O16534   8.532   0.614   7.124
 5431WAT     H116535   8.458   0.665   7.168
 5431WAT     H216536   8.506   0.593   7.030
 5432WAT      O16537   9.153   5.885   0.751
 5432WAT     H116538   9.132   5.950   0.678
 5432WAT     H216539   9.229   5.920   0.806
 5433WAT      O16540   2.390   8.619   5.193
 5433WAT     H116541   2.366   8.645   5.099
 5433WAT     H216542   2.387   8.520   5.202
 5434WAT      O16543   0.518   6.022   7.384
 5434WAT     H116544   0.502   6.070   7.298
 5434WAT     H216545   0.478   5.930   7.378
 5435WAT      O16546   9.811   7.905   4.109
 5435WAT     H116547   9.840   7.893   4.014
 5435WAT     H216548   9.797   8.002   4.128
 5436WAT      O16549   0.954   5.841   5.050
 5436WAT     H116550   0.961   5.896   5.133
 5436WAT     H216551   1.046   5.813   5.020
 5437WAT      O16552   6.413   1.854   1.011
 5437WAT     H116553   6.379   1.891   0.924
 5437WAT     H216554   6.370   1.766   1.029
 5438WAT      O16555   4.512   5.159   5.550
 5438WAT     H116556   4.548   5.122   5.464
 5438WAT     H216557   4.511   5.259   5.546
 5439WAT      O16558   3.131   6.994   3.071
 5439WAT     H116559   3.133   6.905   3.118
 5439WAT     H216560   3.166   6.983   2.978
 5440WAT      O16561   8.700   7.932   1.664
 5440WAT     H116562   8.791   7.971   1.680
 5440WAT     H216563   8.699   7.837   1.695
 5441WAT      O16564   2.555   0.946   1.571
 5441WAT     H116565   2.485   1.011   1.599
 5441WAT     H216566   2.513   0.857   1.556
 5442WAT      O16567   8.300   4.912   3.366
 5442WAT     H116568   8.357   4.970   3.425
 5442WAT     H216569   8.216   4.888   3.415
 5443WAT      O16570   8.036   7.451   2.147
 5443WAT     H116571   8.075   7.371   2.101
 5443WAT     H216572   7.956   7.483   2.096
 5444WAT      O16573   3.250   0.026   4.555
 5444WAT     H116574   3.254  -0.035   4.476
 5444WAT     H216575   3.335   0.080   4.560
 5445WAT      O16576   7.043   4.412   7.601
 5445WAT     H116577   7.125   4.445   7.555
 5445WAT     H216578   7.035   4.313   7.587
 5446WAT      O16579   5.490   2.396   0.472
 5446WAT     H116580   5.497   2.471   0.407
 5446WAT     H216581   5.439   2.321   0.431
 5447WAT      O16582   2.077   3.171   3.781
 5447WAT     H116583   2.105   3.236   3.852
 5447WAT     H216584   2.102   3.078   3.809
 5448WAT      O16585   6.082   0.299   8.967
 5448WAT     H116586   6.130   0.249   8.895
 5448WAT     H216587   6.029   0.235   9.022
 5449WAT      O16588   8.396   0.880   0.014
 5449WAT     H116589   8.307   0.876  -0.031
 5449WAT     H216590   8.466   0.902  -0.053
 5450WAT      O16591   4.713   0.646   2.000
 5450WAT     H116592   4.687   0.676   2.091
 5450WAT     H216593   4.781   0.708   1.961
 5451WAT      O16594   0.839   1.254   6.464
 5451WAT     H116595   0.747   1.215   6.455
 5451WAT     H216596   0.904   1.181   6.484
 5452WAT      O16597   5.450   2.896   7.802
 5452WAT     H116598   5.371   2.905   7.740
 5452WAT     H216599   5.446   2.807   7.847
 5453WAT      O16600   8.436   8.456   1.373
 5453WAT     H116601   8.524   8.409   1.363
 5453WAT     H216602   8.414   8.503   1.287
 5454WAT      O16603   4.617   2.446   3.742
 5454WAT     H116604   4.647   2.378   3.809
 5454WAT     H216605   4.530   2.485   3.771
 5455WAT      O16606   7.488   2.997   2.699
 5455WAT     H116607   7.575   3.043   2.715
 5455WAT     H216608   7.502   2.898   2.696
 5456WAT      O16609   1.367   7.117   1.602
 5456WAT     H116610   1.341   7.026   1.570
 5456WAT     H216611   1.289   7.159   1.650
 5457WAT      O16612   8.572   1.634   8.511
 5457WAT     H116613   8.561   1.590   8.421
 5457WAT     H216614   8.489   1.619   8.565
 5458WAT      O16615   9.850   5.691   2.302
 5458WAT     H116616   9.882   5.600   2.330
 5458WAT     H216617   9.900   5.721   2.221
 5459WAT      O16618   2.270   3.899   4.847
 5459WAT     H116619   2.286   3.809   4.887
 5459WAT     H216620   2.305   3.969   4.909
 5460WAT      O16621   5.319   6.474   8.770
 5460WAT     H116622   5.273   6.397   8.812
 5460WAT     H216623   5.412   6.482   8.807
 5461WAT      O16624   7.956   7.038   0.121
 5461WAT     H116625   7.923   7.056   0.214
 5461WAT     H216626   7.965   6.939   0.108
 5462WAT      O16627   3.129   3.849   7.000
 5462WAT     H116628   3.032   3.824   7.002
 5462WAT     H216629   3.155   3.889   7.088
 5463WAT      O16630   4.307   8.679   4.111
 5463WAT     H116631   4.217   8.694   4.072
 5463WAT     H216632   4.306   8.596   4.166
 5464WAT      O16633   0.689   7.498   9.466
 5464WAT     H116634   0.697   7.399   9.462
 5464WAT     H216635   0.671   7.534   9.375
 5465WAT      O16636   3.059   4.446   2.528
 5465WAT     H116637   3.001   4.474   2.452
 5465WAT     H216638   3.153   4.436   2.496
 5466WAT      O16639   8.337   0.296   5.063
 5466WAT     H116640   8.310   0.337   5.150
 5466WAT     H216641   8.436   0.285   5.061
 5467WAT      O16642   3.465   5.572   9.225
 5467WAT     H116643   3.376   5.545   9.260
 5467WAT     H216644   3.469   5.557   9.127
 5468WAT      O16645   8.163   5.266   0.816
 5468WAT     H116646   8.230   5.193   0.821
 5468WAT     H216647   8.111   5.259   0.731
 5469WAT      O16648   1.961   2.448   0.397
 5469WAT     H116649   1.902   2.370   0.376
 5469WAT     H216650   1.983   2.447   0.495
 5470WAT      O16651   5.452   5.788   5.166
 5470WAT     H116652   5.413   5.825   5.082
 5470WAT     H216653   5.420   5.841   5.245
 5471WAT      O16654   4.007   5.809   1.669
 5471WAT     H116655   4.059   5.726   1.690
 5471WAT     H216656   3.951   5.834   1.748
 5472WAT      O16657   6.071   3.293   4.201
 5472WAT     H116658   5.994   3.230   4.191
 5472WAT     H216659   6.138   3.276   4.129
 5473WAT      O16660   7.913   1.962   1.986
 5473WAT     H116661   7.979   1.901   2.030
 5473WAT     H216662   7.827   1.913   1.973
 5474WAT      O16663   6.242   5.685   5.083
 5474WAT     H116664   6.160   5.630   5.098
 5474WAT     H216665   6.319   5.626   5.062
 5475WAT      O16666   9.679   8.291   6.682
 5475WAT     H116667   9.679   8.235   6.598
 5475WAT     H216668   9.689   8.388   6.657
 5476WAT      O16669   9.478   8.493   6.334
 5476WAT     H116670   9.521   8.556   6.269
 5476WAT     H216671   9.472   8.402   6.294
 5477WAT      O16672   8.048   4.030   6.630
 5477WAT     H116673   8.076   4.121   6.599
 5477WAT     H216674   8.103   4.003   6.708
 5478WAT      O16675   8.523   9.349   8.032
 5478WAT     H116676   8.569   9.261   8.041
 5478WAT     H216677   8.557   9.412   8.102
 5479WAT      O16678   4.187   3.412   6.248
 5479WAT     H116679   4.174   3.489   6.185
 5479WAT     H216680   4.203   3.447   6.341
 5480WAT      O16681   4.573   0.214   7.424
 5480WAT     H116682   4.671   0.198   7.420
 5480WAT     H216683   4.525   0.128   7.439
 5481WAT      O16684   7.351   8.088   3.772
 5481WAT     H116685   7.346   8.067   3.869
 5481WAT     H216686   7.408   8.019   3.726
 5482WAT      O16687   2.272   1.792   8.794
 5482WAT     H116688   2.271   1.851   8.875
 5482WAT     H216689   2.319   1.706   8.816
 5483WAT      O16690   5.795   6.902   5.737
 5483WAT     H116691   5.856   6.867   5.667
 5483WAT     H216692   5.746   6.827   5.780
 5484WAT      O16693   8.077   9.445   9.043
 5484WAT     H116694   8.046   9.512   8.975
 5484WAT     H216695   8.141   9.381   8.999
 5485WAT      O16696   1.621   3.330   1.736
 5485WAT     H116697   1.718   3.306   1.726
 5485WAT     H216698   1.568   3.249   1.757
 5486WAT      O16699   6.741   5.628   2.464
 5486WAT     H116700   6.795   5.660   2.542
 5486WAT     H216701   6.784   5.548   2.424
 5487WAT      O16702   4.794   2.048   1.487
 5487WAT     H116703   4.836   1.979   1.428
 5487WAT     H216704   4.707   2.076   1.448
 5488WAT      O16705   0.321   1.570   3.686
 5488WAT     H116706   0.401   1.534   3.735
 5488WAT     H216707   0.256   1.496   3.669
 5489WAT      O16708   5.499   3.158   8.130
 5489WAT     H116709   5.512   3.107   8.215
 5489WAT     H216710   5.574   3.137   8.067
 5490WAT      O16711   5.991   8.388   7.479
 5490WAT     H116712   6.035   8.395   7.569
 5490WAT     H216713   5.896   8.360   7.491
 5491WAT      O16714   5.213   9.384   3.748
 5491WAT     H116715   5.123   9.380   3.704
 5491WAT     H216716   5.247   9.291   3.764
 5492WAT      O16717   4.076   3.152   0.850
 5492WAT     H116718   4.011   3.218   0.888
 5492WAT     H216719   4.064   3.063   0.895
 5493WAT      O16720   8.193   9.421   5.313
 5493WAT     H116721   8.181   9.418   5.214
 5493WAT     H216722   8.178   9.330   5.351
 5494WAT      O16723   8.586   5.338   2.309
 5494WAT     H116724   8.487   5.329   2.318
 5494WAT     H216725   8.628   5.247   2.312
 5495WAT      O16726   5.638   9.783   2.450
 5495WAT     H116727   5.613   9.786   2.353
 5495WAT     H216728   5.598   9.860   2.498
 5496WAT      O16729   2.386   9.130   2.775
 5496WAT     H116730   2.424   9.102   2.864
 5496WAT     H216731   2.291   9.101   2.770
 5497WAT      O16732   9.814   1.417   4.707
 5497WAT     H116733   9.747   1.489   4.728
 5497WAT     H216734   9.824   1.410   4.608
 5498WAT      O16735   2.508   0.125   5.319
 5498WAT     H116736   2.554   0.135   5.407
 5498WAT     H216737   2.547   0.190   5.254
 5499WAT      O16738   4.826   3.989   2.005
 5499WAT     H116739   4.838   4.077   2.052
 5499WAT     H216740   4.872   3.992   1.916
 5500WAT      O16741   0.745   6.470   1.181
 5500WAT     H116742   0.832   6.506   1.146
 5500WAT     H216743   0.761   6.425   1.269
 5501WAT      O16744   0.706   4.683   9.225
 5501WAT     H116745   0.721   4.740   9.306
 5501WAT     H216746   0.787   4.626   9.209
 5502WAT      O16747   3.878   6.301   4.326
 5502WAT     H116748   3.830   6.389   4.323
 5502WAT     H216749   3.903   6.273   4.234
 5503WAT      O16750   8.103   3.346   6.558
 5503WAT     H116751   8.061   3.433   6.582
 5503WAT     H216752   8.102   3.334   6.459
 5504WAT      O16753   2.355   3.653   0.782
 5504WAT     H116754   2.451   3.671   0.762
 5504WAT     H216755   2.302   3.659   0.697
 5505WAT      O16756   3.330   4.899   9.400
 5505WAT     H116757   3.362   4.943   9.484
 5505WAT     H216758   3.405   4.894   9.335
 5506WAT      O16759   3.131   4.870   0.874
 5506WAT     H116760   3.139   4.923   0.958
 5506WAT     H216761   3.174   4.921   0.799
 5507WAT      O16762   0.214   7.794   4.732
 5507WAT     H116763   0.152   7.869   4.753
 5507WAT     H216764   0.298   7.804   4.787
 5508WAT      O16765   5.823   6.944   1.044
 5508WAT     H116766   5.774   7.014   1.096
 5508WAT     H216767   5.866   6.880   1.108
 5509WAT      O16768   8.794   8.071   5.897
 5509WAT     H116769   8.741   8.077   5.982
 5509WAT     H216770   8.807   8.162   5.859
 5510WAT      O16771   1.405   8.907   3.655
 5510WAT     H116772   1.401   8.964   3.573
 5510WAT     H216773   1.457   8.954   3.726
 5511WAT      O16774   6.643   2.518   3.715
 5511WAT     H116775   6.669   2.592   3.777
 5511WAT     H216776   6.637   2.554   3.621
 5512WAT      O16777   5.616   3.903   1.472
 5512WAT     H116778   5.561   3.951   1.403
 5512WAT     H216779   5.711   3.934   1.466
 5513WAT      O16780   0.743   6.102   5.477
 5513WAT     H116781   0.687   6.052   5.411
 5513WAT     H216782   0.683   6.149   5.542
 5514WAT      O16783   0.111   8.159   4.450
 5514WAT     H116784   0.074   8.220   4.521
 5514WAT     H216785   0.131   8.069   4.490
 5515WAT      O16786   2.586   1.625   0.754
 5515WAT     H116787   2.594   1.672   0.842
 5515WAT     H216788   2.550   1.687   0.686
 5516WAT      O16789   2.531   8.081   6.376
 5516WAT     H116790   2.475   8.142   6.433
 5516WAT     H216791   2.474   8.009   6.338
 5517WAT      O16792   7.468   3.600   6.796
 5517WAT     H116793   7.407   3.565   6.867
 5517WAT     H216794   7.535   3.530   6.773
 5518WAT      O16795   4.849   6.995   8.812
 5518WAT     H116796   4.788   6.957   8.881
 5518WAT     H216797   4.883   7.084   8.843
 5519WAT      O16798   7.467   0.191   6.667
 5519WAT     H116799   7.522   0.241   6.733
 5519WAT     H216800   7.527   0.155   6.595
 5520WAT      O16801   4.556   5.711   0.718
 5520WAT     H116802   4.494   5.765   0.774
 5520WAT     H216803   4.558   5.617   0.752
 5521WAT      O16804   2.899   1.754   5.958
 5521WAT     H116805   2.847   1.726   6.039
 5521WAT     H216806   2.933   1.673   5.910
 5522WAT      O16807   1.408   3.017   8.457
 5522WAT     H116808   1.386   3.086   8.387
 5522WAT     H216809   1.490   3.046   8.507
 5523WAT      O16810   8.606   6.662   7.551
 5523WAT     H116811   8.680   6.605   7.587
 5523WAT     H216812   8.550   6.695   7.628
 5524WAT      O16813   6.394   8.905   7.343
 5524WAT     H116814   6.307   8.872   7.307
 5524WAT     H216815   6.379   8.952   7.429
 5525WAT      O16816   8.073   6.602   2.455
 5525WAT     H116817   8.086   6.537   2.531
 5525WAT     H216818   8.035   6.688   2.491
 5526WAT      O16819   3.340   6.307   1.074
 5526WAT     H116820   3.325   6.211   1.051
 5526WAT     H216821   3.257   6.346   1.115
 5527WAT      O16822   1.610   2.730   6.358
 5527WAT     H116823   1.647   2.764   6.271
 5527WAT     H216824   1.677   2.744   6.430
 5528WAT      O16825   7.927   6.642   6.732
 5528WAT     H116826   7.916   6.727   6.681
 5528WAT     H216827   7.959   6.663   6.824
 5529WAT      O16828   0.122   2.120   2.169
 5529WAT     H116829   0.140   2.058   2.092
 5529WAT     H216830   0.086   2.068   2.246
 5530WAT      O16831   2.987   1.548   5.765
 5530WAT     H116832   2.941   1.613   5.704
 5530WAT     H216833   3.076   1.523   5.725
 5531WAT      O16834   4.847   3.431   8.182
 5531WAT     H116835   4.864   3.497   8.255
 5531WAT     H216836   4.788   3.474   8.113
 5532WAT      O16837   3.596   3.026   2.958
 5532WAT     H116838   3.505   2.986   2.947
 5532WAT     H216839   3.587   3.118   2.998
 5533WAT      O16840   1.636   8.964   6.671
 5533WAT     H116841   1.641   8.988   6.574
 5533WAT     H216842   1.638   9.048   6.725
 5534WAT      O16843   9.556   1.073   9.599
 5534WAT     H116844   9.497   1.088   9.678
 5534WAT     H216845   9.582   1.162   9.560
 5535WAT      O16846   7.855   3.245   6.181
 5535WAT     H116847   7.857   3.303   6.263
 5535WAT     H216848   7.787   3.173   6.193
 5536WAT      O16849   0.480   2.206   6.019
 5536WAT     H116850   0.573   2.230   5.990
 5536WAT     H216851   0.414   2.252   5.961
 5537WAT      O16852   8.303   3.081   8.797
 5537WAT     H116853   8.322   3.014   8.869
 5537WAT     H216854   8.207   3.074   8.770
 5538WAT      O16855   4.245   9.075   8.721
 5538WAT     H116856   4.313   9.127   8.772
 5538WAT     H216857   4.176   9.040   8.784
 5539WAT      O16858   1.603   7.083   3.626
 5539WAT     H116859   1.592   7.011   3.558
 5539WAT     H216860   1.573   7.170   3.588
 5540WAT      O16861   4.706   2.184   7.332
 5540WAT     H116862   4.690   2.283   7.339
 5540WAT     H216863   4.801   2.168   7.304
 5541WAT      O16864   5.855   8.061   3.193
 5541WAT     H116865   5.772   8.049   3.247
 5541WAT     H216866   5.842   8.023   3.102
 5542WAT      O16867   6.144   0.162   8.470
 5542WAT     H116868   6.107   0.161   8.563
 5542WAT     H216869   6.240   0.135   8.472
 5543WAT      O16870   7.268   6.631   3.352
 5543WAT     H116871   7.350   6.687   3.350
 5543WAT     H216872   7.284   6.546   3.302
 5544WAT      O16873   4.732   9.270   8.935
 5544WAT     H116874   4.691   9.326   9.007
 5544WAT     H216875   4.829   9.255   8.956
 5545WAT      O16876   7.348   8.002   6.530
 5545WAT     H116877   7.445   8.004   6.509
 5545WAT     H216878   7.313   7.909   6.521
 5546WAT      O16879   8.561   9.630   1.271
 5546WAT     H116880   8.507   9.628   1.186
 5546WAT     H216881   8.619   9.711   1.271
 5547WAT      O16882   1.596   2.204   2.881
 5547WAT     H116883   1.625   2.249   2.796
 5547WAT     H216884   1.528   2.134   2.859
 5548WAT      O16885   6.129   9.781   7.758
 5548WAT     H116886   6.135   9.867   7.810
 5548WAT     H216887   6.218   9.760   7.719
 5549WAT      O16888   8.708   8.607   8.651
 5549WAT     H116889   8.748   8.540   8.713
 5549WAT     H216890   8.751   8.696   8.665
 5550WAT      O16891   0.905   4.761   7.235
 5550WAT     H116892   0.924   4.744   7.138
 5550WAT     H216893   0.956   4.842   7.265
 5551WAT      O16894   5.496   6.771   7.353
 5551WAT     H116895   5.558   6.741   7.280
 5551WAT     H216896   5.424   6.704   7.366
 5552WAT      O16897   0.513   1.174   9.235
 5552WAT     H116898   0.503   1.083   9.277
 5552WAT     H216899   0.606   1.185   9.201
 5553WAT      O16900   5.800   0.112   8.728
 5553WAT     H116901   5.709   0.070   8.717
 5553WAT     H216902   5.806   0.194   8.672
 5554WAT      O16903   3.690   0.259   5.255
 5554WAT     H116904   3.758   0.332   5.246
 5554WAT     H216905   3.627   0.262   5.177
 5555WAT      O16906   3.740   7.101   0.383
 5555WAT     H116907   3.822   7.057   0.346
 5555WAT     H216908   3.696   7.155   0.310
 5556WAT      O16909   9.698   9.804   8.150
 5556WAT     H116910   9.716   9.785   8.246
 5556WAT     H216911   9.680   9.902   8.138
 5557WAT      O16912   1.511   0.325   6.139
 5557WAT     H116913   1.538   0.278   6.223
 5557WAT     H216914   1.511   0.424   6.155
 5558WAT      O16915   3.666   9.374   5.551
 5558WAT     H116916   3.632   9.461   5.585
 5558WAT     H216917   3.625   9.354   5.462
 5559WAT      O16918   9.119   3.350   5.499
 5559WAT     H116919   9.102   3.335   5.402
 5559WAT     H216920   9.217   3.359   5.515
 5560WAT      O16921   5.146   4.770   4.019
 5560WAT     H116922   5.082   4.764   3.942
 5560WAT     H216923   5.230   4.721   3.995
 5561WAT      O16924   6.067   3.741   5.669
 5561WAT     H116925   6.067   3.751   5.769
 5561WAT     H216926   6.144   3.790   5.630
 5562WAT      O16927   8.813   8.235   8.501
 5562WAT     H116928   8.781   8.325   8.474
 5562WAT     H216929   8.754   8.198   8.572
 5563WAT      O16930   1.704   5.562   2.227
 5563WAT     H116931   1.619   5.592   2.272
 5563WAT     H216932   1.687   5.477   2.177
 5564WAT      O16933   6.157   5.497   6.442
 5564WAT     H116934   6.092   5.537   6.507
 5564WAT     H216935   6.117   5.498   6.351
 5565WAT      O16936   3.281   8.219   7.397
 5565WAT     H116937   3.215   8.219   7.472
 5565WAT     H216938   3.354   8.154   7.418
 5566WAT      O16939   4.469   1.245   8.563
 5566WAT     H116940   4.392   1.302   8.533
 5566WAT     H216941   4.495   1.183   8.489
 5567WAT      O16942   5.943   6.283   2.387
 5567WAT     H116943   5.991   6.196   2.382
 5567WAT     H216944   5.973   6.332   2.469
 5568WAT      O16945   1.016   7.679   8.341
 5568WAT     H116946   0.935   7.728   8.309
 5568WAT     H216947   0.988   7.609   8.408
 5569WAT      O16948   6.445   4.997   0.553
 5569WAT     H116949   6.448   4.912   0.500
 5569WAT     H216950   6.350   5.017   0.579
 5570WAT      O16951   9.822   5.761   0.276
 5570WAT     H116952   9.901   5.820   0.259
 5570WAT     H216953   9.761   5.764   0.197
 5571WAT      O16954   6.910   3.849   7.595
 5571WAT     H116955   6.965   3.866   7.677
 5571WAT     H216956   6.965   3.868   7.513
 5572WAT      O16957   9.857   4.326   4.457
 5572WAT     H116958   9.809   4.348   4.542
 5572WAT     H216959   9.858   4.406   4.397
 5573WAT      O16960   8.969   0.279   5.134
 5573WAT     H116961   8.944   0.184   5.113
 5573WAT     H216962   8.968   0.292   5.233
 5574WAT      O16963   2.080   2.696   4.384
 5574WAT     H116964   2.133   2.657   4.308
 5574WAT     H216965   1.985   2.708   4.356
 5575WAT      O16966   0.156   2.667   3.153
 5575WAT     H116967   0.127   2.654   3.248
 5575WAT     H216968   0.163   2.765   3.134
 5576WAT      O16969   9.000   0.558   7.276
 5576WAT     H116970   9.064   0.481   7.276
 5576WAT     H216971   8.988   0.590   7.182
 5577WAT      O16972   9.258   7.700   4.981
 5577WAT     H116973   9.238   7.694   5.078
 5577WAT     H216974   9.318   7.624   4.954
 5578WAT      O16975   4.778   4.477   6.098
 5578WAT     H116976   4.751   4.443   6.008
 5578WAT     H216977   4.877   4.469   6.108
 5579WAT      O16978   5.275   1.245   3.771
 5579WAT     H116979   5.260   1.148   3.751
 5579WAT     H216980   5.358   1.276   3.725
 5580WAT      O16981   1.586   8.688   6.766
 5580WAT     H116982   1.623   8.775   6.731
 5580WAT     H216983   1.546   8.704   6.856
 5581WAT      O16984   0.017   9.382   6.155
 5581WAT     H116985   0.002   9.284   6.141
 5581WAT     H216986   0.111   9.404   6.130
 5582WAT      O16987   5.822   4.640   6.320
 5582WAT     H116988   5.897   4.605   6.376
 5582WAT     H216989   5.826   4.598   6.229
 5583WAT      O16990   4.740   0.960   1.222
 5583WAT     H116991   4.744   1.025   1.298
 5583WAT     H216992   4.696   0.876   1.253
 5584WAT      O16993   7.068   3.102   3.890
 5584WAT     H116994   7.139   3.118   3.822
 5584WAT     H216995   7.011   3.025   3.860
 5585WAT      O16996   0.682   2.052   0.204
 5585WAT     H116997   0.754   2.040   0.136
 5585WAT     H216998   0.597   2.011   0.170
 5586WAT      O16999   1.269   9.471   6.062
 5586WAT     H117000   1.328   9.437   5.989
 5586WAT     H217001   1.184   9.418   6.064
 5587WAT      O17002   3.239   4.860   5.895
 5587WAT     H117003   3.273   4.860   5.801
 5587WAT     H217004   3.174   4.786   5.907
 5588WAT      O17005   6.145   2.407   4.153
 5588WAT     H117006   6.064   2.362   4.116
 5588WAT     H217007   6.158   2.380   4.249
 5589WAT      O17008   3.096   0.447   1.500
 5589WAT     H117009   3.194   0.459   1.509
 5589WAT     H217010   3.075   0.403   1.413
 5590WAT      O17011   5.694   7.306   5.628
 5590WAT     H117012   5.613   7.259   5.663
 5590WAT     H217013   5.768   7.241   5.616
 5591WAT      O17014   6.189   2.297   8.964
 5591WAT     H117015   6.157   2.376   8.911
 5591WAT     H217016   6.111   2.259   9.014
 5592WAT      O17017   2.879   5.762   8.777
 5592WAT     H117018   2.798   5.794   8.826
 5592WAT     H217019   2.871   5.664   8.759
 5593WAT      O17020   5.271   5.640   4.506
 5593WAT     H117021   5.312   5.636   4.597
 5593WAT     H217022   5.175   5.665   4.515
 5594WAT      O17023   1.975   8.583   2.191
 5594WAT     H117024   1.953   8.530   2.109
 5594WAT     H217025   1.913   8.661   2.197
 5595WAT      O17026   8.275   5.648   3.436
 5595WAT     H117027   8.227   5.711   3.497
 5595WAT     H217028   8.267   5.680   3.342
 5596WAT      O17029   3.177   5.509   8.701
 5596WAT     H117030   3.166   5.594   8.650
 5596WAT     H217031   3.210   5.531   8.794
 5597WAT      O17032   2.491   2.555   0.500
 5597WAT     H117033   2.477   2.630   0.565
 5597WAT     H217034   2.468   2.587   0.408
 5598WAT      O17035   9.442   6.555   2.063
 5598WAT     H117036   9.519   6.577   2.123
 5598WAT     H217037   9.369   6.622   2.076
 5599WAT      O17038   4.323   9.662   5.009
 5599WAT     H117039   4.421   9.661   5.030
 5599WAT     H217040   4.272   9.683   5.091
 5600WAT      O17041   6.057   0.815   4.589
 5600WAT     H117042   6.050   0.816   4.689
 5600WAT     H217043   6.061   0.909   4.556
 5601WAT      O17044   8.883   9.369   7.984
 5601WAT     H117045   8.815   9.323   8.042
 5601WAT     H217046   8.969   9.318   7.987
 5602WAT      O17047   5.228   5.517   8.013
 5602WAT     H117048   5.316   5.546   8.051
 5602WAT     H217049   5.232   5.524   7.913
 5603WAT      O17050   0.577   2.041   6.216
 5603WAT     H117051   0.588   2.094   6.300
 5603WAT     H217052   0.517   2.091   6.153
 5604WAT      O17053   8.367   8.927   1.932
 5604WAT     H117054   8.411   8.891   2.015
 5604WAT     H217055   8.422   9.002   1.895
 5605WAT      O17056   2.579   2.779   9.656
 5605WAT     H117057   2.647   2.707   9.644
 5605WAT     H217058   2.491   2.737   9.679
 5606WAT      O17059   4.509   2.889   3.783
 5606WAT     H117060   4.575   2.831   3.831
 5606WAT     H217061   4.552   2.976   3.759
 5607WAT      O17062   6.451   3.750   5.424
 5607WAT     H117063   6.530   3.782   5.372
 5607WAT     H217064   6.412   3.669   5.379
 5608WAT      O17065   2.085   0.918   5.800
 5608WAT     H117066   2.116   0.889   5.890
 5608WAT     H217067   1.985   0.917   5.798
 5609WAT      O17068   6.208   5.292   5.001
 5609WAT     H117069   6.239   5.345   4.922
 5609WAT     H217070   6.282   5.235   5.035
 5610WAT      O17071   5.791   5.897   8.036
 5610WAT     H117072   5.796   5.991   8.070
 5610WAT     H217073   5.765   5.836   8.111
 5611WAT      O17074   2.442   2.231   5.071
 5611WAT     H117075   2.470   2.323   5.100
 5611WAT     H217076   2.363   2.202   5.125
 5612WAT      O17077   9.233   7.272   0.672
 5612WAT     H117078   9.290   7.322   0.606
 5612WAT     H217079   9.274   7.182   0.688
 5613WAT      O17080   2.194   5.462   3.061
 5613WAT     H117081   2.176   5.460   2.963
 5613WAT     H217082   2.130   5.402   3.109
 5614WAT      O17083   2.511   3.014   7.216
 5614WAT     H117084   2.505   2.943   7.286
 5614WAT     H217085   2.608   3.035   7.199
 5615WAT      O17086   4.449   0.908   3.630
 5615WAT     H117087   4.459   0.847   3.708
 5615WAT     H217088   4.535   0.912   3.579
 5616WAT      O17089   8.858   5.765   9.143
 5616WAT     H117090   8.880   5.863   9.141
 5616WAT     H217091   8.795   5.743   9.069
 5617WAT      O17092   1.141   4.988   6.039
 5617WAT     H117093   1.204   5.035   6.100
 5617WAT     H217094   1.079   5.055   5.997
 5618WAT      O17095   2.334   7.504   9.863
 5618WAT     H117096   2.297   7.444   9.933
 5618WAT     H217097   2.267   7.516   9.790
 5619WAT      O17098   8.415   1.810   2.472
 5619WAT     H117099   8.448   1.812   2.566
 5619WAT     H217100   8.335   1.869   2.464
 5620WAT      O17101   9.648   6.146   2.594
 5620WAT     H117102   9.657   6.063   2.539
 5620WAT     H217103   9.714   6.143   2.669
 5621WAT      O17104   0.822   2.970   6.239
 5621WAT     H117105   0.745   2.977   6.175
 5621WAT     H217106   0.906   2.949   6.188
 5622WAT      O17107   2.206   7.843   4.216
 5622WAT     H117108   2.267   7.775   4.259
 5622WAT     H217109   2.178   7.810   4.126
 5623WAT      O17110   9.584   1.996   8.871
 5623WAT     H117111   9.601   1.913   8.925
 5623WAT     H217112   9.537   2.064   8.927
 5624WAT      O17113   1.200   6.928   2.729
 5624WAT     H117114   1.157   6.906   2.816
 5624WAT     H217115   1.294   6.960   2.745
 5625WAT      O17116   1.049   8.939   4.215
 5625WAT     H117117   1.062   8.849   4.171
 5625WAT     H217118   1.124   8.999   4.188
 5626WAT      O17119   9.530   7.067   0.055
 5626WAT     H117120   9.523   7.052  -0.044
 5626WAT     H217121   9.571   7.157   0.072
 5627WAT      O17122   6.368   9.746   7.658
 5627WAT     H117123   6.442   9.807   7.687
 5627WAT     H217124   6.405   9.676   7.597
 5628WAT      O17125   4.123   1.843   8.470
 5628WAT     H117126   4.063   1.798   8.405
 5628WAT     H217127   4.128   1.941   8.449
 5629WAT      O17128   7.171   5.586   1.726
 5629WAT     H117129   7.252   5.581   1.785
 5629WAT     H217130   7.108   5.654   1.762
 5630WAT      O17131   0.354   3.374   0.494
 5630WAT     H117132   0.370   3.287   0.446
 5630WAT     H217133   0.412   3.445   0.454
 5631WAT      O17134   9.345   4.785   1.989
 5631WAT     H117135   9.414   4.818   1.926
 5631WAT     H217136   9.353   4.686   2.000
 5632WAT      O17137   5.327   2.063   3.051
 5632WAT     H117138   5.416   2.019   3.065
 5632WAT     H217139   5.270   2.046   3.131
 5633WAT      O17140   8.454   0.736   5.224
 5633WAT     H117141   8.437   0.831   5.196
 5633WAT     H217142   8.472   0.733   5.322
 5634WAT      O17143   6.181   3.276   4.445
 5634WAT     H117144   6.140   3.275   4.354
 5634WAT     H217145   6.215   3.184   4.467
 5635WAT      O17146   9.701   6.358   9.093
 5635WAT     H117147   9.792   6.395   9.111
 5635WAT     H217148   9.635   6.433   9.087
 5636WAT      O17149   9.055   7.233   5.008
 5636WAT     H117150   9.026   7.319   4.965
 5636WAT     H217151   9.133   7.251   5.067
 5637WAT      O17152   0.043   4.129   3.400
 5637WAT     H117153   0.059   4.079   3.315
 5637WAT     H217154  -0.031   4.195   3.387
 5638WAT      O17155   0.019   5.040   8.981
 5638WAT     H117156  -0.042   5.003   8.911
 5638WAT     H217157   0.068   5.119   8.944
 5639WAT      O17158   7.357   6.611   4.010
 5639WAT     H117159   7.420   6.558   3.953
 5639WAT     H217160   7.263   6.588   3.985
 5640WAT      O17161   1.506   1.708   4.910
 5640WAT     H117162   1.549   1.649   4.979
 5640WAT     H217163   1.571   1.727   4.838
 5641WAT      O17164   3.572   4.169   3.377
 5641WAT     H117165   3.491   4.212   3.336
 5641WAT     H217166   3.613   4.106   3.311
 5642WAT      O17167   5.889   9.515   6.738
 5642WAT     H117168   5.968   9.558   6.694
 5642WAT     H217169   5.845   9.581   6.799
 5643WAT      O17170   7.951   1.524   6.001
 5643WAT     H117171   8.002   1.440   6.014
 5643WAT     H217172   8.013   1.603   6.007
 5644WAT      O17173   9.600   6.342   8.392
 5644WAT     H117174   9.663   6.343   8.469
 5644WAT     H217175   9.508   6.365   8.423
 5645WAT      O17176   2.146   6.975   4.719
 5645WAT     H117177   2.151   6.876   4.708
 5645WAT     H217178   2.082   7.013   4.652
 5646WAT      O17179   8.338   9.630   9.091
 5646WAT     H117180   8.361   9.582   9.175
 5646WAT     H217181   8.241   9.652   9.090
 5647WAT      O17182   2.742   5.835   5.583
 5647WAT     H117183   2.776   5.745   5.553
 5647WAT     H217184   2.724   5.892   5.503
 5648WAT      O17185   2.840   4.577   8.659
 5648WAT     H117186   2.888   4.490   8.668
 5648WAT     H217187   2.741   4.561   8.657
 5649WAT      O17188   8.165   5.442   7.717
 5649WAT     H117189   8.265   5.433   7.715
 5649WAT     H217190   8.137   5.505   7.645
 5650WAT      O17191   9.322   6.684   8.526
 5650WAT     H117192   9.322   6.591   8.491
 5650WAT     H217193   9.232   6.725   8.511
 5651WAT      O17194   3.086   0.946   1.229
 5651WAT     H117195   3.036   0.929   1.144
 5651WAT     H217196   3.074   0.869   1.291
 5652WAT      O17197   6.804   6.131   7.285
 5652WAT     H117198   6.770   6.055   7.341
 5652WAT     H217199   6.817   6.211   7.343
 5653WAT      O17200   5.567   2.243   6.804
 5653WAT     H117201   5.662   2.217   6.792
 5653WAT     H217202   5.514   2.215   6.724
 5654WAT      O17203   6.011   9.160   0.414
 5654WAT     H117204   6.012   9.111   0.327
 5654WAT     H217205   5.920   9.153   0.455
 5655WAT      O17206   0.498   1.314   0.870
 5655WAT     H117207   0.438   1.389   0.896
 5655WAT     H217208   0.553   1.341   0.791
 5656WAT      O17209   3.573   4.366   8.612
 5656WAT     H117210   3.542   4.451   8.656
 5656WAT     H217211   3.495   4.304   8.603
 5657WAT      O17212   2.371   3.044   0.671
 5657WAT     H117213   2.386   3.000   0.582
 5657WAT     H217214   2.457   3.049   0.721
 5658WAT      O17215   6.361   4.276   4.806
 5658WAT     H117216   6.397   4.368   4.818
 5658WAT     H217217   6.401   4.235   4.724
 5659WAT      O17218   3.430   8.297   5.038
 5659WAT     H117219   3.430   8.397   5.034
 5659WAT     H217220   3.344   8.265   5.078
 5660WAT      O17221   4.092   0.585   2.356
 5660WAT     H117222   4.159   0.526   2.402
 5660WAT     H217223   4.133   0.674   2.338
 5661WAT      O17224   6.632   4.546   9.483
 5661WAT     H117225   6.709   4.487   9.461
 5661WAT     H217226   6.604   4.530   9.578
 5662WAT      O17227   9.139   7.994   3.238
 5662WAT     H117228   9.087   8.079   3.234
 5662WAT     H217229   9.135   7.948   3.149
 5663WAT      O17230   1.759   7.913   2.648
 5663WAT     H117231   1.845   7.876   2.684
 5663WAT     H217232   1.727   7.986   2.709
 5664WAT      O17233   1.857   0.168   2.987
 5664WAT     H117234   1.785   0.227   2.952
 5664WAT     H217235   1.862   0.084   2.933
 5665WAT      O17236   9.715   0.823   6.643
 5665WAT     H117237   9.701   0.907   6.591
 5665WAT     H217238   9.627   0.778   6.658
 5666WAT      O17239   2.025   4.910   4.459
 5666WAT     H117240   2.026   4.862   4.547
 5666WAT     H217241   1.966   4.860   4.395
 5667WAT      O17242   5.449   9.050   9.888
 5667WAT     H117243   5.386   9.112   9.934
 5667WAT     H217244   5.497   9.099   9.815
 5668WAT      O17245   7.931   5.226   4.928
 5668WAT     H117246   7.908   5.206   4.833
 5668WAT     H217247   7.874   5.170   4.988
 5669WAT      O17248   0.143   8.128   8.917
 5669WAT     H117249   0.098   8.086   8.838
 5669WAT     H217250   0.141   8.065   8.994
 5670WAT      O17251   5.081   2.950   7.302
 5670WAT     H117252   5.116   2.980   7.391
 5670WAT     H217253   5.137   2.874   7.268
 5671WAT      O17254   3.687   4.590   4.327
 5671WAT     H117255   3.660   4.658   4.258
 5671WAT     H217256   3.655   4.500   4.299
 5672WAT      O17257   2.181   0.777   6.427
 5672WAT     H117258   2.121   0.764   6.348
 5672WAT     H217259   2.161   0.865   6.471
 5673WAT      O17260   4.335   1.429   1.443
 5673WAT     H117261   4.334   1.416   1.542
 5673WAT     H217262   4.299   1.348   1.397
 5674WAT      O17263   0.421   9.096   4.187
 5674WAT     H117264   0.477   9.176   4.167
 5674WAT     H217265   0.371   9.069   4.105
 5675WAT      O17266   9.036   2.724   1.693
 5675WAT     H117267   9.136   2.730   1.702
 5675WAT     H217268   8.999   2.675   1.772
 5676WAT      O17269   7.101   9.011   7.275
 5676WAT     H117270   7.107   9.109   7.293
 5676WAT     H217271   7.006   8.981   7.281
 5677WAT      O17272   6.854   0.583   0.170
 5677WAT     H117273   6.947   0.552   0.153
 5677WAT     H217274   6.822   0.548   0.258
 5678WAT      O17275   1.094   3.157   5.402
 5678WAT     H117276   1.050   3.121   5.320
 5678WAT     H217277   1.165   3.094   5.432
 5679WAT      O17278   2.271   5.156   9.283
 5679WAT     H117279   2.243   5.173   9.189
 5679WAT     H217280   2.358   5.202   9.301
 5680WAT      O17281   6.083   2.617   5.997
 5680WAT     H117282   6.117   2.648   5.908
 5680WAT     H217283   6.155   2.566   6.044
 5681WAT      O17284   9.194   1.326   4.443
 5681WAT     H117285   9.257   1.297   4.516
 5681WAT     H217286   9.186   1.426   4.444
 5682WAT      O17287   6.832   6.443   5.314
 5682WAT     H117288   6.796   6.532   5.289
 5682WAT     H217289   6.931   6.442   5.299
 5683WAT      O17290   4.532   1.737   2.373
 5683WAT     H117291   4.506   1.670   2.443
 5683WAT     H217292   4.495   1.826   2.398
 5684WAT      O17293   5.443   2.311   5.910
 5684WAT     H117294   5.487   2.400   5.911
 5684WAT     H217295   5.461   2.263   5.996
 5685WAT      O17296   4.996   1.439   0.051
 5685WAT     H117297   5.027   1.512  -0.011
 5685WAT     H217298   5.058   1.434   0.129
 5686WAT      O17299   9.487   7.587   1.289
 5686WAT     H117300   9.426   7.662   1.262
 5686WAT     H217301   9.483   7.514   1.221
 5687WAT      O17302   0.347   0.715   7.182
 5687WAT     H117303   0.382   0.627   7.213
 5687WAT     H217304   0.248   0.720   7.197
 5688WAT      O17305   0.512   1.311   0.403
 5688WAT     H117306   0.415   1.330   0.421
 5688WAT     H217307   0.541   1.359   0.320
 5689WAT      O17308   0.537   9.162   7.814
 5689WAT     H117309   0.492   9.164   7.904
 5689WAT     H217310   0.627   9.120   7.823
 5690WAT      O17311   6.249   8.389   1.143
 5690WAT     H117312   6.344   8.364   1.156
 5690WAT     H217313   6.203   8.320   1.087
 5691WAT      O17314   2.987   8.069   1.171
 5691WAT     H117315   3.068   8.017   1.144
 5691WAT     H217316   2.991   8.161   1.131
 5692WAT      O17317   1.908   6.379   8.754
 5692WAT     H117318   1.955   6.307   8.702
 5692WAT     H217319   1.976   6.439   8.797
 5693WAT      O17320   2.212   4.983   4.940
 5693WAT     H117321   2.265   5.041   5.003
 5693WAT     H217322   2.172   4.907   4.990
 5694WAT      O17323   8.221   1.176   5.316
 5694WAT     H117324   8.289   1.248   5.301
 5694WAT     H217325   8.136   1.216   5.350
 5695WAT      O17326   6.004   3.015   3.115
 5695WAT     H117327   5.976   3.110   3.101
 5695WAT     H217328   6.098   3.003   3.084
 5696WAT      O17329   8.727   2.814   0.256
 5696WAT     H117330   8.703   2.860   0.342
 5696WAT     H217331   8.704   2.717   0.262
 5697WAT      O17332   4.663   8.657   6.732
 5697WAT     H117333   4.759   8.674   6.756
 5697WAT     H217334   4.654   8.567   6.690
 5698WAT      O17335   5.494   7.889   4.830
 5698WAT     H117336   5.407   7.894   4.781
 5698WAT     H217337   5.567   7.862   4.766
 5699WAT      O17338   6.078   0.931   9.524
 5699WAT     H117339   6.005   0.999   9.530
 5699WAT     H217340   6.152   0.966   9.467
 5700WAT      O17341   9.159   3.822   7.252
 5700WAT     H117342   9.157   3.890   7.179
 5700WAT     H217343   9.074   3.770   7.251
 5701WAT      O17344   2.116   5.708   3.724
 5701WAT     H117345   2.128   5.664   3.635
 5701WAT     H217346   2.203   5.747   3.754
 5702WAT      O17347   0.418   3.785   4.962
 5702WAT     H117348   0.370   3.790   5.049
 5702WAT     H217349   0.468   3.870   4.946
 5703WAT      O17350   7.059   1.475   5.044
 5703WAT     H117351   6.997   1.399   5.061
 5703WAT     H217352   7.012   1.562   5.062
 5704WAT      O17353   0.155   8.350   6.256
 5704WAT     H117354   0.142   8.424   6.190
 5704WAT     H217355   0.132   8.382   6.347
 5705WAT      O17356   1.604   4.183   9.659
 5705WAT     H117357   1.599   4.203   9.757
 5705WAT     H217358   1.568   4.260   9.607
 5706WAT      O17359   3.942   2.341   7.151
 5706WAT     H117360   3.902   2.432   7.162
 5706WAT     H217361   3.868   2.273   7.153
 5707WAT      O17362   4.952   8.689   3.164
 5707WAT     H117363   4.944   8.700   3.263
 5707WAT     H217364   5.046   8.665   3.141
 5708WAT      O17365   2.782   2.295   7.737
 5708WAT     H117366   2.871   2.324   7.772
 5708WAT     H217367   2.777   2.195   7.736
 5709WAT      O17368   7.003   7.214   1.803
 5709WAT     H117369   7.033   7.118   1.800
 5709WAT     H217370   6.989   7.241   1.898
 5710WAT      O17371   9.220   5.322   8.819
 5710WAT     H117372   9.159   5.318   8.739
 5710WAT     H217373   9.205   5.409   8.867
 5711WAT      O17374   1.771   4.779   6.129
 5711WAT     H117375   1.838   4.848   6.102
 5711WAT     H217376   1.819   4.695   6.155
 5712WAT      O17377   7.913   2.947   1.647
 5712WAT     H117378   7.884   2.862   1.604
 5712WAT     H217379   7.856   2.964   1.728
 5713WAT      O17380   6.049   5.995   7.778
 5713WAT     H117381   6.085   5.963   7.866
 5713WAT     H217382   5.993   6.077   7.793
 5714WAT      O17383   7.396   4.929   3.827
 5714WAT     H117384   7.310   4.905   3.781
 5714WAT     H217385   7.422   5.022   3.802
 5715WAT      O17386   4.625   2.110   3.708
 5715WAT     H117387   4.577   2.108   3.621
 5715WAT     H217388   4.720   2.137   3.693
 5716WAT      O17389   1.193   8.904   6.637
 5716WAT     H117390   1.193   9.000   6.609
 5716WAT     H217391   1.155   8.896   6.729
 5717WAT      O17392   4.269   5.852   8.394
 5717WAT     H117393   4.289   5.927   8.331
 5717WAT     H217394   4.336   5.780   8.382
 5718WAT      O17395   9.256   9.155   4.450
 5718WAT     H117396   9.247   9.201   4.539
 5718WAT     H217397   9.178   9.179   4.393
 5719WAT      O17398   1.998   6.886   3.213
 5719WAT     H117399   2.007   6.818   3.140
 5719WAT     H217400   1.919   6.944   3.195
 5720WAT      O17401   2.527   7.219   0.874
 5720WAT     H117402   2.432   7.243   0.893
 5720WAT     H217403   2.586   7.293   0.904
 5721WAT      O17404   8.735   1.066   6.084
 5721WAT     H117405   8.703   1.145   6.137
 5721WAT     H217406   8.666   1.041   6.016
 5722WAT      O17407   7.365   8.521   5.356
 5722WAT     H117408   7.458   8.484   5.361
 5722WAT     H217409   7.337   8.554   5.446
 5723WAT      O17410   4.356   7.819   5.888
 5723WAT     H117411   4.413   7.852   5.812
 5723WAT     H217412   4.398   7.845   5.975
 5724WAT      O17413   5.969   2.972   6.045
 5724WAT     H117414   5.887   3.025   6.026
 5724WAT     H217415   5.954   2.915   6.126
 5725WAT      O17416   1.293   5.962   2.934
 5725WAT     H117417   1.317   6.014   2.851
 5725WAT     H217418   1.248   6.023   2.999
 5726WAT      O17419   4.931   1.501   0.337
 5726WAT     H117420   4.953   1.597   0.321
 5726WAT     H217421   4.835   1.485   0.317
 5727WAT      O17422   8.848   1.055   4.520
 5727WAT     H117423   8.862   1.099   4.432
 5727WAT     H217424   8.935   1.014   4.550
 5728WAT      O17425   3.556   0.710   4.611
 5728WAT     H117426   3.629   0.747   4.552
 5728WAT     H217427   3.490   0.661   4.554
 5729WAT      O17428   7.801   8.956   2.870
 5729WAT     H117429   7.814   9.001   2.959
 5729WAT     H217430   7.807   9.024   2.797
 5730WAT      O17431   3.658   3.873   2.952
 5730WAT     H117432   3.723   3.857   2.877
 5730WAT     H217433   3.576   3.915   2.916
 5731WAT      O17434   8.969   2.982   1.622
 5731WAT     H117435   8.993   3.022   1.711
 5731WAT     H217436   8.974   2.882   1.628
 5732WAT      O17437   9.279   8.581   0.726
 5732WAT     H117438   9.336   8.658   0.697
 5732WAT     H217439   9.308   8.551   0.818
 5733WAT      O17440   1.339   4.650   2.222
 5733WAT     H117441   1.352   4.684   2.315
 5733WAT     H217442   1.338   4.727   2.158
 5734WAT      O17443   8.344   6.092   2.631
 5734WAT     H117444   8.275   6.150   2.674
 5734WAT     H217445   8.412   6.066   2.700
 5735WAT      O17446   4.603   7.748   9.645
 5735WAT     H117447   4.526   7.737   9.708
 5735WAT     H217448   4.588   7.829   9.587
 5736WAT      O17449   7.375   4.395   4.275
 5736WAT     H117450   7.423   4.451   4.207
 5736WAT     H217451   7.379   4.299   4.248
 5737WAT      O17452   8.686   6.779   5.724
 5737WAT     H117453   8.720   6.686   5.716
 5737WAT     H217454   8.762   6.841   5.745
 5738WAT      O17455   8.274   4.198   8.516
 5738WAT     H117456   8.343   4.216   8.446
 5738WAT     H217457   8.276   4.102   8.542
 5739WAT      O17458   3.943   4.173   3.203
 5739WAT     H117459   3.992   4.260   3.202
 5739WAT     H217460   4.002   4.102   3.240
 5740WAT      O17461   3.999   4.543   8.543
 5740WAT     H117462   3.935   4.569   8.615
 5740WAT     H217463   3.951   4.491   8.473
 5741WAT      O17464   7.374   1.142   3.178
 5741WAT     H117465   7.450   1.182   3.228
 5741WAT     H217466   7.405   1.060   3.130
 5742WAT      O17467   4.965   7.236   8.113
 5742WAT     H117468   5.026   7.187   8.175
 5742WAT     H217469   5.019   7.283   8.043
 5743WAT      O17470   3.694   6.342   5.363
 5743WAT     H117471   3.620   6.286   5.399
 5743WAT     H217472   3.700   6.427   5.416
 5744WAT      O17473   5.992   1.051   7.512
 5744WAT     H117474   6.030   1.079   7.600
 5744WAT     H217475   6.047   1.090   7.438
 5745WAT      O17476   5.129   5.039   9.313
 5745WAT     H117477   5.195   5.100   9.358
 5745WAT     H217478   5.149   5.034   9.215
 5746WAT      O17479   3.616   2.326   6.390
 5746WAT     H117480   3.685   2.397   6.386
 5746WAT     H217481   3.642   2.250   6.330
 5747WAT      O17482   6.536   9.769   0.956
 5747WAT     H117483   6.610   9.756   0.890
 5747WAT     H217484   6.525   9.867   0.975
 5748WAT      O17485   6.364   6.609   5.242
 5748WAT     H117486   6.432   6.682   5.256
 5748WAT     H217487   6.278   6.635   5.287
 5749WAT      O17488   4.466   5.944   5.892
 5749WAT     H117489   4.367   5.951   5.882
 5749WAT     H217490   4.506   5.914   5.805
 5750WAT      O17491   6.491   9.194   1.624
 5750WAT     H117492   6.391   9.201   1.616
 5750WAT     H217493   6.524   9.117   1.570
 5751WAT      O17494   3.562   6.700   8.002
 5751WAT     H117495   3.500   6.622   8.003
 5751WAT     H217496   3.644   6.679   8.056
 5752WAT      O17497   8.842   9.738   9.680
 5752WAT     H117498   8.807   9.644   9.690
 5752WAT     H217499   8.779   9.791   9.623
 5753WAT      O17500   3.460   1.657   1.732
 5753WAT     H117501   3.457   1.625   1.637
 5753WAT     H217502   3.368   1.687   1.759
 5754WAT      O17503   2.180   3.524   2.294
 5754WAT     H117504   2.121   3.566   2.225
 5754WAT     H217505   2.157   3.560   2.384
 5755WAT      O17506   7.964   2.517   8.861
 5755WAT     H117507   7.959   2.438   8.799
 5755WAT     H217508   7.934   2.490   8.952
 5756WAT      O17509   8.001   3.765   5.515
 5756WAT     H117510   7.920   3.726   5.558
 5756WAT     H217511   8.045   3.695   5.458
 5757WAT      O17512   0.977   4.159   5.841
 5757WAT     H117513   0.882   4.186   5.860
 5757WAT     H217514   0.990   4.063   5.867
 5758WAT      O17515   5.922   3.217   2.809
 5758WAT     H117516   5.947   3.234   2.904
 5758WAT     H217517   5.868   3.132   2.804
 5759WAT      O17518   6.016   9.353   7.322
 5759WAT     H117519   5.962   9.279   7.363
 5759WAT     H217520   6.055   9.410   7.395
 5760WAT      O17521   8.611   4.578   0.654
 5760WAT     H117522   8.646   4.672   0.650
 5760WAT     H217523   8.588   4.555   0.749
 5761WAT      O17524   4.675   2.678   3.865
 5761WAT     H117525   4.748   2.679   3.933
 5761WAT     H217526   4.679   2.592   3.813
 5762WAT      O17527   1.372   8.257   6.389
 5762WAT     H117528   1.394   8.355   6.391
 5762WAT     H217529   1.372   8.221   6.482
 5763WAT      O17530   4.872   0.885   9.210
 5763WAT     H117531   4.883   0.818   9.284
 5763WAT     H217532   4.948   0.950   9.213
 5764WAT      O17533   6.895   4.203   6.197
 5764WAT     H117534   6.799   4.209   6.225
 5764WAT     H217535   6.915   4.276   6.132
 5765WAT      O17536   9.046   0.812   6.662
 5765WAT     H117537   9.006   0.834   6.573
 5765WAT     H217538   9.144   0.832   6.660
 5766WAT      O17539   0.458   5.319   1.456
 5766WAT     H117540   0.457   5.363   1.546
 5766WAT     H217541   0.508   5.376   1.391
 5767WAT      O17542   2.201   8.494   9.187
 5767WAT     H117543   2.128   8.542   9.235
 5767WAT     H217544   2.167   8.407   9.152
 5768WAT      O17545   6.826   4.832   2.590
 5768WAT     H117546   6.781   4.914   2.556
 5768WAT     H217547   6.805   4.755   2.530
 5769WAT      O17548   2.504   5.410   6.984
 5769WAT     H117549   2.428   5.434   6.924
 5769WAT     H217550   2.488   5.319   7.022
 5770WAT      O17551   7.113   8.292   9.586
 5770WAT     H117552   7.169   8.239   9.650
 5770WAT     H217553   7.059   8.229   9.529
 5771WAT      O17554   1.204   0.644   5.993
 5771WAT     H117555   1.164   0.558   5.961
 5771WAT     H217556   1.131   0.709   6.016
 5772WAT      O17557   3.975   0.854   7.295
 5772WAT     H117558   3.897   0.891   7.242
 5772WAT     H217559   3.942   0.819   7.382
 5773WAT      O17560   8.855   2.171   6.975
 5773WAT     H117561   8.935   2.116   6.999
 5773WAT     H217562   8.882   2.267   6.966
 5774WAT      O17563   2.216   6.116   8.364
 5774WAT     H117564   2.189   6.126   8.269
 5774WAT     H217565   2.271   6.194   8.392
 5775WAT      O17566   0.948   8.410   1.296
 5775WAT     H117567   0.938   8.334   1.231
 5775WAT     H217568   1.009   8.479   1.256
 5776WAT      O17569   1.728   2.816   1.075
 5776WAT     H117570   1.807   2.767   1.037
 5776WAT     H217571   1.723   2.908   1.035
 5777WAT      O17572   4.696   8.328   4.767
 5777WAT     H117573   4.732   8.346   4.858
 5777WAT     H217574   4.691   8.229   4.753
 5778WAT      O17575   8.057   7.286   8.754
 5778WAT     H117576   8.068   7.257   8.659
 5778WAT     H217577   7.984   7.354   8.759
 5779WAT      O17578   1.864   2.080   9.387
 5779WAT     H117579   1.819   2.163   9.353
 5779WAT     H217580   1.959   2.100   9.409
 5780WAT      O17581   3.548   0.209   3.569
 5780WAT     H117582   3.638   0.250   3.560
 5780WAT     H217583   3.489   0.269   3.623
 5781WAT      O17584   5.509   2.144   0.336
 5781WAT     H117585   5.486   2.066   0.394
 5781WAT     H217586   5.606   2.167   0.346
 5782WAT      O17587   9.849   4.778   2.752
 5782WAT     H117588   9.882   4.686   2.728
 5782WAT     H217589   9.926   4.841   2.756
 5783WAT      O17590   0.862   3.451   8.184
 5783WAT     H117591   0.925   3.524   8.159
 5783WAT     H217592   0.866   3.378   8.115
 5784WAT      O17593   5.731   8.251   0.679
 5784WAT     H117594   5.640   8.270   0.644
 5784WAT     H217595   5.778   8.187   0.618
 5785WAT      O17596   2.026   4.081   4.264
 5785WAT     H117597   1.959   4.073   4.190
 5785WAT     H217598   2.077   3.995   4.272
 5786WAT      O17599   9.221   8.474   7.124
 5786WAT     H117600   9.289   8.402   7.110
 5786WAT     H217601   9.254   8.559   7.083
 5787WAT      O17602   0.487   7.642   8.943
 5787WAT     H117603   0.492   7.622   8.846
 5787WAT     H217604   0.438   7.728   8.957
 5788WAT      O17605   0.744   4.052   1.232
 5788WAT     H117606   0.726   4.078   1.327
 5788WAT     H217607   0.658   4.029   1.186
 5789WAT      O17608   5.843   9.585   7.050
 5789WAT     H117609   5.935   9.558   7.021
 5789WAT     H217610   5.802   9.512   7.103
 5790WAT      O17611   6.653   7.091   9.174
 5790WAT     H117612   6.678   7.166   9.235
 5790WAT     H217613   6.573   7.044   9.211
 5791WAT      O17614   5.754   3.323   7.576
 5791WAT     H117615   5.775   3.235   7.534
 5791WAT     H217616   5.725   3.309   7.671
 5792WAT      O17617   9.765   7.041   4.053
 5792WAT     H117618   9.753   7.009   4.147
 5792WAT     H217619   9.838   7.109   4.050
 5793WAT      O17620   0.177   4.988   9.573
 5793WAT     H117621   0.185   4.915   9.505
 5793WAT     H217622   0.108   4.964   9.640
 5794WAT      O17623   3.784   3.325   6.875
 5794WAT     H117624   3.844   3.295   6.949
 5794WAT     H217625   3.779   3.425   6.875
 5795WAT      O17626   4.235   4.787   4.755
 5795WAT     H117627   4.180   4.727   4.813
 5795WAT     H217628   4.327   4.749   4.745
 5796WAT      O17629   0.495   8.545   7.811
 5796WAT     H117630   0.448   8.492   7.740
 5796WAT     H217631   0.584   8.503   7.831
 5797WAT      O17632   8.097   7.538   8.389
 5797WAT     H117633   8.160   7.462   8.404
 5797WAT     H217634   8.028   7.538   8.462
 5798WAT      O17635   1.713   5.191   1.458
 5798WAT     H117636   1.663   5.251   1.520
 5798WAT     H217637   1.723   5.100   1.499
 5799WAT      O17638   4.772   0.582   5.395
 5799WAT     H117639   4.789   0.485   5.377
 5799WAT     H217640   4.721   0.621   5.318
 5800WAT      O17641   3.420   7.528   2.016
 5800WAT     H117642   3.431   7.479   1.929
 5800WAT     H217643   3.401   7.625   1.997
 5801WAT      O17644   7.484   0.302   4.170
 5801WAT     H117645   7.425   0.232   4.210
 5801WAT     H217646   7.428   0.381   4.145
 5802WAT      O17647   6.234   6.480   8.470
 5802WAT     H117648   6.325   6.516   8.490
 5802WAT     H217649   6.174   6.555   8.444
 5803WAT      O17650   6.307   5.144   5.566
 5803WAT     H117651   6.322   5.118   5.662
 5803WAT     H217652   6.215   5.118   5.539
 5804WAT      O17653   1.863   4.110   6.705
 5804WAT     H117654   1.871   4.091   6.803
 5804WAT     H217655   1.791   4.052   6.666
 5805WAT      O17656   9.076   4.678   9.069
 5805WAT     H117657   9.158   4.728   9.097
 5805WAT     H217658   8.995   4.723   9.108
 5806WAT      O17659   7.248   4.240   5.760
 5806WAT     H117660   7.227   4.299   5.682
 5806WAT     H217661   7.180   4.168   5.768
 5807WAT      O17662   2.768   8.171   5.362
 5807WAT     H117663   2.776   8.267   5.337
 5807WAT     H217664   2.690   8.159   5.423
 5808WAT      O17665   4.920   1.287   9.640
 5808WAT     H117666   4.999   1.347   9.626
 5808WAT     H217667   4.898   1.241   9.554
 5809WAT      O17668   5.730   4.852   7.470
 5809WAT     H117669   5.684   4.941   7.467
 5809WAT     H217670   5.665   4.781   7.443
 5810WAT      O17671   9.164   5.060   8.031
 5810WAT     H117672   9.207   4.988   7.976
 5810WAT     H217673   9.072   5.078   7.996
 5811WAT      O17674   7.963   2.485   8.538
 5811WAT     H117675   8.049   2.522   8.573
 5811WAT     H217676   7.907   2.559   8.500
 5812WAT      O17677   7.888   1.324   5.165
 5812WAT     H117678   7.935   1.293   5.248
 5812WAT     H217679   7.790   1.312   5.176
 5813WAT      O17680   7.828   2.331   9.006
 5813WAT     H117681   7.741   2.380   9.006
 5813WAT     H217682   7.812   2.233   8.990
 5814WAT      O17683   0.327   2.185   9.009
 5814WAT     H117684   0.341   2.103   8.953
 5814WAT     H217685   0.411   2.205   9.060
 5815WAT      O17686   0.676   9.576   1.977
 5815WAT     H117687   0.691   9.554   2.074
 5815WAT     H217688   0.584   9.614   1.966
 5816WAT      O17689   6.023   3.852   0.767
 5816WAT     H117690   5.937   3.880   0.724
 5816WAT     H217691   6.043   3.913   0.843
 5817WAT      O17692   4.701   2.413   1.339
 5817WAT     H117693   4.772   2.470   1.379
 5817WAT     H217694   4.733   2.375   1.252
 5818WAT      O17695   0.129   7.652   5.405
 5818WAT     H117696   0.060   7.723   5.420
 5818WAT     H217697   0.137   7.634   5.307
 5819WAT      O17698   1.542   7.282   4.576
 5819WAT     H117699   1.524   7.368   4.623
 5819WAT     H217700   1.542   7.297   4.477
 5820WAT      O17701   7.553   3.891   3.770
 5820WAT     H117702   7.551   3.855   3.677
 5820WAT     H217703   7.560   3.991   3.767
 5821WAT      O17704   5.473   8.867   7.366
 5821WAT     H117705   5.525   8.809   7.304
 5821WAT     H217706   5.482   8.963   7.336
 5822WAT      O17707   5.627   3.695   6.909
 5822WAT     H117708   5.567   3.763   6.867
 5822WAT     H217709   5.678   3.647   6.837
 5823WAT      O17710   3.322   4.972   0.199
 5823WAT     H117711   3.290   4.914   0.125
 5823WAT     H217712   3.309   5.068   0.174
 5824WAT      O17713   0.973   9.506   9.391
 5824WAT     H117714   0.905   9.433   9.401
 5824WAT     H217715   1.026   9.515   9.475
 5825WAT      O17716   6.623   3.885   1.365
 5825WAT     H117717   6.718   3.856   1.383
 5825WAT     H217718   6.623   3.973   1.319
 5826WAT      O17719   8.422   4.384   4.265
 5826WAT     H117720   8.435   4.285   4.262
 5826WAT     H217721   8.422   4.415   4.361
 5827WAT      O17722   4.558   8.753   6.328
 5827WAT     H117723   4.565   8.718   6.421
 5827WAT     H217724   4.467   8.735   6.292
 5828WAT      O17725   4.104   4.194   2.106
 5828WAT     H117726   4.086   4.116   2.046
 5828WAT     H217727   4.055   4.274   2.072
 5829WAT      O17728   1.928   8.935   9.713
 5829WAT     H117729   2.006   8.900   9.661
 5829WAT     H217730   1.894   9.018   9.669
 5830WAT      O17731   5.220   1.107   9.655
 5830WAT     H117732   5.170   1.194   9.657
 5830WAT     H217733   5.217   1.069   9.563
 5831WAT      O17734   0.529   3.773   0.654
 5831WAT     H117735   0.547   3.862   0.695
 5831WAT     H217736   0.494   3.710   0.724
 5832WAT      O17737   1.968   1.948   6.387
 5832WAT     H117738   1.950   1.851   6.401
 5832WAT     H217739   1.985   1.965   6.290
 5833WAT      O17740   3.252   3.696   9.623
 5833WAT     H117741   3.207   3.770   9.572
 5833WAT     H217742   3.259   3.721   9.719
 5834WAT      O17743   0.101   2.296   8.902
 5834WAT     H117744   0.187   2.253   8.931
 5834WAT     H217745   0.034   2.225   8.882
 5835WAT      O17746   5.747   4.468   1.259
 5835WAT     H117747   5.787   4.539   1.317
 5835WAT     H217748   5.730   4.386   1.314
 5836WAT      O17749   2.745   4.676   3.324
 5836WAT     H117750   2.662   4.658   3.272
 5836WAT     H217751   2.773   4.771   3.310
 5837WAT      O17752   1.859   0.537   4.887
 5837WAT     H117753   1.859   0.453   4.833
 5837WAT     H217754   1.791   0.600   4.850
 5838WAT      O17755   9.337   4.366   2.987
 5838WAT     H117756   9.255   4.310   2.997
 5838WAT     H217757   9.361   4.407   3.076
 5839WAT      O17758   4.399   7.685   9.807
 5839WAT     H117759   4.300   7.671   9.820
 5839WAT     H217760   4.449   7.631   9.874
 5840WAT      O17761   4.748   6.364   1.577
 5840WAT     H117762   4.652   6.392   1.580
 5840WAT     H217763   4.787   6.390   1.488
 5841WAT      O17764   1.689   7.148   7.130
 5841WAT     H117765   1.767   7.100   7.171
 5841WAT     H217766   1.700   7.246   7.142
 5842WAT      O17767   1.106   6.974   7.858
 5842WAT     H117768   1.137   7.047   7.920
 5842WAT     H217769   1.143   6.887   7.890
 5843WAT      O17770   7.249   9.749   8.045
 5843WAT     H117771   7.261   9.738   7.946
 5843WAT     H217772   7.313   9.689   8.093
 5844WAT      O17773   0.680   0.545   2.170
 5844WAT     H117774   0.585   0.573   2.157
 5844WAT     H217775   0.727   0.613   2.226
 5845WAT      O17776   5.524   9.673   5.005
 5845WAT     H117777   5.605   9.712   5.049
 5845WAT     H217778   5.449   9.739   5.006
 5846WAT      O17779   0.759   2.868   2.643
 5846WAT     H117780   0.724   2.775   2.657
 5846WAT     H217781   0.813   2.871   2.558
 5847WAT      O17782   9.550   2.842   1.233
 5847WAT     H117783   9.469   2.877   1.280
 5847WAT     H217784   9.614   2.805   1.300
 5848WAT      O17785   1.697   6.192   3.978
 5848WAT     H117786   1.782   6.140   3.986
 5848WAT     H217787   1.636   6.167   4.053
 5849WAT      O17788   5.783   8.021   0.808
 5849WAT     H117789   5.781   8.118   0.783
 5849WAT     H217790   5.706   7.975   0.765
 5850WAT      O17791   1.587   0.195   7.522
 5850WAT     H117792   1.495   0.181   7.557
 5850WAT     H217793   1.650   0.131   7.568
 5851WAT      O17794   3.237   4.867   7.287
 5851WAT     H117795   3.142   4.867   7.256
 5851WAT     H217796   3.282   4.785   7.252
 5852WAT      O17797   6.660   1.130   1.043
 5852WAT     H117798   6.614   1.078   1.115
 5852WAT     H217799   6.758   1.116   1.049
 5853WAT      O17800   8.720   0.882   1.878
 5853WAT     H117801   8.715   0.805   1.814
 5853WAT     H217802   8.688   0.852   1.968
 5854WAT      O17803   8.265   3.015   5.598
 5854WAT     H117804   8.175   2.992   5.561
 5854WAT     H217805   8.295   3.103   5.561
 5855WAT      O17806   9.540   6.518   3.533
 5855WAT     H117807   9.630   6.549   3.563
 5855WAT     H217808   9.477   6.518   3.611
 5856WAT      O17809   2.889   8.050   5.953
 5856WAT     H117810   2.821   8.005   6.011
 5856WAT     H217811   2.854   8.139   5.923
 5857WAT      O17812   8.813   6.082   9.789
 5857WAT     H117813   8.751   6.160   9.782
 5857WAT     H217814   8.846   6.057   9.698
 5858WAT      O17815   7.492   2.490   2.895
 5858WAT     H117816   7.419   2.441   2.943
 5858WAT     H217817   7.541   2.427   2.835
 5859WAT      O17818   9.696   9.558   2.266
 5859WAT     H117819   9.790   9.531   2.287
 5859WAT     H217820   9.644   9.568   2.351
 5860WAT      O17821   1.085   0.370   7.951
 5860WAT     H117822   1.134   0.429   8.014
 5860WAT     H217823   0.987   0.391   7.954
 5861WAT      O17824   7.366   2.245   3.556
 5861WAT     H117825   7.419   2.258   3.472
 5861WAT     H217826   7.395   2.312   3.624
 5862WAT      O17827   6.460   5.591   6.572
 5862WAT     H117828   6.549   5.553   6.545
 5862WAT     H217829   6.389   5.523   6.558
 5863WAT      O17830   3.709   6.281   3.961
 5863WAT     H117831   3.679   6.297   3.867
 5863WAT     H217832   3.641   6.225   4.008
 5864WAT      O17833   6.480   7.873   4.935
 5864WAT     H117834   6.459   7.970   4.923
 5864WAT     H217835   6.537   7.841   4.858
 5865WAT      O17836   7.526   8.281   2.152
 5865WAT     H117837   7.566   8.263   2.242
 5865WAT     H217838   7.580   8.350   2.105
 5866WAT      O17839   3.325   3.885   1.328
 5866WAT     H117840   3.405   3.827   1.338
 5866WAT     H217841   3.257   3.839   1.270
 5867WAT      O17842   8.134   3.272   5.787
 5867WAT     H117843   8.155   3.274   5.689
 5867WAT     H217844   8.206   3.223   5.836
 5868WAT      O17845   4.460   1.319   1.071
 5868WAT     H117846   4.360   1.328   1.066
 5868WAT     H217847   4.502   1.362   0.992
 5869WAT      O17848   9.114   1.563   6.483
 5869WAT     H117849   9.036   1.588   6.541
 5869WAT     H217850   9.123   1.629   6.409
 5870WAT      O17851   1.070   2.060   8.082
 5870WAT     H117852   1.051   2.155   8.056
 5870WAT     H217853   1.137   2.059   8.156
 5871WAT      O17854   8.397   8.423   6.010
 5871WAT     H117855   8.491   8.450   5.990
 5871WAT     H217856   8.394   8.325   6.031
 5872WAT      O17857   8.587   9.815   6.219
 5872WAT     H117858   8.545   9.851   6.302
 5872WAT     H217859   8.651   9.742   6.244
 5873WAT      O17860   6.184   2.132   8.470
 5873WAT     H117861   6.170   2.165   8.377
 5873WAT     H217862   6.125   2.183   8.533
 5874WAT      O17863   6.133   7.592   0.076
 5874WAT     H117864   6.136   7.556  -0.017
 5874WAT     H217865   6.101   7.522   0.139
 5875WAT      O17866   8.145   9.743   4.520
 5875WAT     H117867   8.182   9.809   4.585
 5875WAT     H217868   8.144   9.784   4.428
 5876WAT      O17869   4.198   6.170   7.975
 5876WAT     H117870   4.119   6.225   7.953
 5876WAT     H217871   4.233   6.126   7.893
 5877WAT      O17872   0.348   9.083   6.721
 5877WAT     H117873   0.400   9.015   6.773
 5877WAT     H217874   0.379   9.084   6.626
 5878WAT      O17875   3.625   9.750   9.665
 5878WAT     H117876   3.597   9.671   9.719
 5878WAT     H217877   3.713   9.732   9.622
 5879WAT      O17878   2.762   5.103   3.109
 5879WAT     H117879   2.858   5.133   3.115
 5879WAT     H217880   2.758   5.006   3.086
 5880WAT      O17881   4.310   2.901   8.673
 5880WAT     H117882   4.318   2.802   8.664
 5880WAT     H217883   4.216   2.924   8.699
 5881WAT      O17884   2.464   2.202   6.875
 5881WAT     H117885   2.491   2.268   6.805
 5881WAT     H217886   2.374   2.165   6.853
 5882WAT      O17887   4.355   9.614   7.980
 5882WAT     H117888   4.447   9.609   7.941
 5882WAT     H217889   4.339   9.536   8.039
 5883WAT      O17890   1.329   9.451   8.111
 5883WAT     H117891   1.365   9.423   8.200
 5883WAT     H217892   1.399   9.501   8.061
 5884WAT      O17893   2.326   3.202   3.223
 5884WAT     H117894   2.236   3.172   3.254
 5884WAT     H217895   2.334   3.301   3.234
 5885WAT      O17896   1.446   2.872   1.397
 5885WAT     H117897   1.357   2.887   1.440
 5885WAT     H217898   1.433   2.832   1.307
 5886WAT      O17899   1.389   7.469   5.264
 5886WAT     H117900   1.299   7.446   5.228
 5886WAT     H217901   1.451   7.391   5.254
 5887WAT      O17902   0.347   5.578   7.015
 5887WAT     H117903   0.421   5.573   7.082
 5887WAT     H217904   0.373   5.640   6.941
 5888WAT      O17905   7.335   6.940   8.396
 5888WAT     H117906   7.268   6.989   8.452
 5888WAT     H217907   7.401   7.005   8.357
 5889WAT      O17908   7.529   7.476   0.443
 5889WAT     H117909   7.505   7.546   0.510
 5889WAT     H217910   7.587   7.407   0.486
 5890WAT      O17911   7.223   6.408   9.868
 5890WAT     H117912   7.256   6.395   9.775
 5890WAT     H217913   7.270   6.344   9.929
 5891WAT      O17914   6.976   5.405   5.827
 5891WAT     H117915   6.998   5.314   5.793
 5891WAT     H217916   6.929   5.457   5.756
 5892WAT      O17917   2.262   9.595   3.039
 5892WAT     H117918   2.290   9.641   2.955
 5892WAT     H217919   2.342   9.569   3.092
 5893WAT      O17920   0.321   8.318   8.835
 5893WAT     H117921   0.281   8.346   8.748
 5893WAT     H217922   0.267   8.244   8.874
 5894WAT      O17923   9.837   8.011   8.743
 5894WAT     H117924   9.744   8.023   8.779
 5894WAT     H217925   9.840   8.040   8.647
 5895WAT      O17926   3.354   0.429   9.245
 5895WAT     H117927   3.377   0.463   9.154
 5895WAT     H217928   3.375   0.331   9.250
 5896WAT      O17929   6.626   3.343   3.273
 5896WAT     H117930   6.554   3.389   3.326
 5896WAT     H217931   6.607   3.354   3.176
 5897WAT      O17932   7.436   1.393   8.929
 5897WAT     H117933   7.353   1.363   8.977
 5897WAT     H217934   7.462   1.484   8.962
 5898WAT      O17935   0.965   5.291   8.962
 5898WAT     H117936   0.893   5.329   9.020
 5898WAT     H217937   0.926   5.225   8.898
 5899WAT      O17938   7.521   1.942   3.800
 5899WAT     H117939   7.448   1.898   3.851
 5899WAT     H217940   7.512   2.041   3.806
 5900WAT      O17941   4.913   4.384   8.608
 5900WAT     H117942   4.939   4.315   8.541
 5900WAT     H217943   4.817   4.372   8.633
 5901WAT      O17944   3.048   3.158   4.725
 5901WAT     H117945   3.089   3.202   4.645
 5901WAT     H217946   3.119   3.128   4.788
 5902WAT      O17947   3.649   3.718   9.564
 5902WAT     H117948   3.681   3.629   9.594
 5902WAT     H217949   3.614   3.712   9.470
 5903WAT      O17950   5.142   8.153   9.871
 5903WAT     H117951   5.161   8.055   9.878
 5903WAT     H217952   5.155   8.196   9.960
 5904WAT      O17953   6.260   4.135   6.745
 5904WAT     H117954   6.184   4.170   6.801
 5904WAT     H217955   6.246   4.037   6.728
 5905WAT      O17956   6.431   2.558   8.604
 5905WAT     H117957   6.344   2.530   8.565
 5905WAT     H217958   6.504   2.546   8.536
 5906WAT      O17959   9.131   1.015   5.402
 5906WAT     H117960   9.065   0.972   5.342
 5906WAT     H217961   9.213   0.958   5.408
 5907WAT      O17962   6.449   7.056   6.044
 5907WAT     H117963   6.506   7.062   5.962
 5907WAT     H217964   6.504   7.022   6.120
 5908WAT      O17965   0.550   7.811   2.210
 5908WAT     H117966   0.562   7.899   2.164
 5908WAT     H217967   0.583   7.817   2.304
 5909WAT      O17968   1.607   9.562   3.372
 5909WAT     H117969   1.564   9.646   3.407
 5909WAT     H217970   1.631   9.503   3.449
 5910WAT      O17971   5.791   0.326   5.606
 5910WAT     H117972   5.819   0.409   5.655
 5910WAT     H217973   5.726   0.351   5.534
 5911WAT      O17974   4.708   3.295   7.884
 5911WAT     H117975   4.687   3.286   7.787
 5911WAT     H217976   4.693   3.389   7.914
 5912WAT      O17977   3.353   9.301   9.662
 5912WAT     H117978   3.448   9.278   9.685
 5912WAT     H217979   3.350   9.341   9.571
 5913WAT      O17980   0.641   8.181   4.418
 5913WAT     H117981   0.643   8.081   4.412
 5913WAT     H217982   0.594   8.218   4.338
 5914WAT      O17983   1.517   7.302   0.667
 5914WAT     H117984   1.434   7.267   0.711
 5914WAT     H217985   1.493   7.339   0.577
 5915WAT      O17986   1.721   2.670   7.299
 5915WAT     H117987   1.754   2.601   7.235
 5915WAT     H217988   1.629   2.646   7.330
 5916WAT      O17989   1.255   6.128   8.486
 5916WAT     H117990   1.189   6.138   8.412
 5916WAT     H217991   1.290   6.218   8.512
 5917WAT      O17992   7.235   8.373   8.461
 5917WAT     H117993   7.302   8.425   8.514
 5917WAT     H217994   7.233   8.408   8.367
 5918WAT      O17995   2.278   7.548   8.651
 5918WAT     H117996   2.273   7.624   8.586
 5918WAT     H217997   2.217   7.475   8.621
 5919WAT      O17998   7.928   4.669   3.238
 5919WAT     H117999   7.920   4.597   3.169
 5919WAT     H218000   8.007   4.651   3.296
 5920WAT      O18001   2.172   2.144   6.349
 5920WAT     H118002   2.133   2.208   6.415
 5920WAT     H218003   2.129   2.054   6.361
 5921WAT      O18004   9.113   2.385   5.309
 5921WAT     H118005   9.153   2.396   5.218
 5921WAT     H218006   9.064   2.298   5.314
 5922WAT      O18007   8.780   1.062   9.838
 5922WAT     H118008   8.788   0.984   9.775
 5922WAT     H218009   8.869   1.077   9.883
 5923WAT      O18010   2.332   9.520   2.378
 5923WAT     H118011   2.432   9.521   2.378
 5923WAT     H218012   2.300   9.469   2.299
 5924WAT      O18013   5.622   5.169   4.866
 5924WAT     H118014   5.665   5.238   4.924
 5924WAT     H218015   5.674   5.084   4.871
 5925WAT      O18016   0.145   4.620   9.026
 5925WAT     H118017   0.051   4.637   8.996
 5925WAT     H218018   0.168   4.525   9.009
 5926WAT      O18019   3.177   5.999   5.447
 5926WAT     H118020   3.252   6.065   5.451
 5926WAT     H218021   3.210   5.912   5.410
 5927WAT      O18022   1.437   9.759   1.112
 5927WAT     H118023   1.338   9.750   1.103
 5927WAT     H218024   1.480   9.750   1.022
 5928WAT      O18025   1.888   8.125   7.026
 5928WAT     H118026   1.911   8.125   7.123
 5928WAT     H218027   1.809   8.066   7.010
 5929WAT      O18028   5.073   8.210   8.111
 5929WAT     H118029   5.086   8.179   8.017
 5929WAT     H218030   5.014   8.290   8.112
 5930WAT      O18031   8.632   1.849   5.286
 5930WAT     H118032   8.548   1.897   5.313
 5930WAT     H218033   8.692   1.840   5.365
 5931WAT      O18034   7.970   5.050   9.466
 5931WAT     H118035   7.919   5.092   9.391
 5931WAT     H218036   7.920   5.063   9.551
 5932WAT      O18037   7.748   5.735   8.822
 5932WAT     H118038   7.662   5.707   8.778
 5932WAT     H218039   7.755   5.689   8.911
 5933WAT      O18040   3.545   0.491   3.402
 5933WAT     H118041   3.582   0.576   3.364
 5933WAT     H218042   3.520   0.429   3.327
 5934WAT      O18043   6.390   2.081   7.381
 5934WAT     H118044   6.481   2.116   7.359
 5934WAT     H218045   6.395   2.024   7.463
 5935WAT      O18046   7.642   3.955   8.299
 5935WAT     H118047   7.549   3.938   8.266
 5935WAT     H218048   7.638   3.978   8.397
 5936WAT      O18049   9.003   4.813   3.141
 5936WAT     H118050   9.001   4.912   3.124
 5936WAT     H218051   8.926   4.770   3.093
 5937WAT      O18052   6.240   3.148   6.493
 5937WAT     H118053   6.253   3.049   6.491
 5937WAT     H218054   6.305   3.191   6.431
 5938WAT      O18055   0.487   2.408   9.559
 5938WAT     H118056   0.520   2.499   9.536
 5938WAT     H218057   0.472   2.401   9.658
 5939WAT      O18058   2.526   6.860   9.727
 5939WAT     H118059   2.610   6.825   9.768
 5939WAT     H218060   2.547   6.938   9.668
 5940WAT      O18061   2.984   5.495   3.575
 5940WAT     H118062   3.053   5.551   3.528
 5940WAT     H218063   3.027   5.413   3.613
 5941WAT      O18064   7.528   9.624   7.027
 5941WAT     H118065   7.495   9.611   7.121
 5941WAT     H218066   7.476   9.697   6.983
 5942WAT      O18067   0.453   4.741   6.208
 5942WAT     H118068   0.489   4.752   6.116
 5942WAT     H218069   0.355   4.763   6.208
 5943WAT      O18070   6.832   0.727   7.836
 5943WAT     H118071   6.763   0.790   7.872
 5943WAT     H218072   6.896   0.777   7.779
 5944WAT      O18073   0.772   1.731   1.876
 5944WAT     H118074   0.764   1.729   1.777
 5944WAT     H218075   0.681   1.737   1.917
 5945WAT      O18076   8.520   2.242   1.953
 5945WAT     H118077   8.464   2.179   2.007
 5945WAT     H218078   8.564   2.193   1.878
 5946WAT      O18079   0.435   6.812   3.570
 5946WAT     H118080   0.400   6.726   3.607
 5946WAT     H218081   0.425   6.812   3.470
 5947WAT      O18082   5.146   1.442   7.542
 5947WAT     H118083   5.212   1.385   7.491
 5947WAT     H218084   5.130   1.527   7.492
 5948WAT      O18085   5.298   5.534   1.413
 5948WAT     H118086   5.398   5.538   1.410
 5948WAT     H218087   5.261   5.608   1.358
 5949WAT      O18088   7.423   5.682   4.088
 5949WAT     H118089   7.401   5.776   4.060
 5949WAT     H218090   7.515   5.680   4.126
 5950WAT      O18091   0.047   8.268   3.372
 5950WAT     H118092   0.135   8.223   3.358
 5950WAT     H218093   0.011   8.244   3.462
 5951WAT      O18094   4.080   2.712   1.984
 5951WAT     H118095   4.036   2.655   1.914
 5951WAT     H218096   4.028   2.706   2.069
 5952WAT      O18097   8.081   0.714   3.519
 5952WAT     H118098   8.098   0.669   3.606
 5952WAT     H218099   8.009   0.666   3.469
 5953WAT      O18100   7.873   9.383   7.318
 5953WAT     H118101   7.927   9.372   7.401
 5953WAT     H218102   7.839   9.294   7.288
 5954WAT      O18103   2.897   3.004   4.877
 5954WAT     H118104   2.843   3.062   4.938
 5954WAT     H218105   2.941   3.062   4.807
 5955WAT      O18106   1.838   0.995   4.569
 5955WAT     H118107   1.827   1.027   4.475
 5955WAT     H218108   1.786   1.055   4.631
 5956WAT      O18109   7.444   9.317   7.377
 5956WAT     H118110   7.536   9.280   7.393
 5956WAT     H218111   7.389   9.304   7.459
 5957WAT      O18112   4.121   1.646   4.677
 5957WAT     H118113   4.096   1.597   4.593
 5957WAT     H218114   4.220   1.639   4.692
 5958WAT      O18115   4.835   0.892   6.829
 5958WAT     H118116   4.812   0.908   6.733
 5958WAT     H218117   4.910   0.827   6.835
 5959WAT      O18118   8.251   3.308   8.410
 5959WAT     H118119   8.292   3.378   8.351
 5959WAT     H218120   8.221   3.231   8.354
 5960WAT      O18121   0.917   2.424   3.776
 5960WAT     H118122   1.012   2.450   3.790
 5960WAT     H218123   0.861   2.456   3.852
 5961WAT      O18124   8.430   9.391   3.189
 5961WAT     H118125   8.437   9.317   3.122
 5961WAT     H218126   8.358   9.370   3.255
 5962WAT      O18127   9.351   9.376   9.431
 5962WAT     H118128   9.334   9.284   9.464
 5962WAT     H218129   9.321   9.384   9.336
 5963WAT      O18130   3.230   9.107   4.536
 5963WAT     H118131   3.301   9.069   4.477
 5963WAT     H218132   3.141   9.100   4.491
 5964WAT      O18133   1.188   2.009   6.338
 5964WAT     H118134   1.203   1.947   6.414
 5964WAT     H218135   1.141   1.961   6.264
 5965WAT      O18136   7.914   8.619   9.395
 5965WAT     H118137   7.870   8.588   9.311
 5965WAT     H218138   7.991   8.678   9.372
 5966WAT      O18139   1.131   8.301   6.614
 5966WAT     H118140   1.194   8.232   6.650
 5966WAT     H218141   1.161   8.392   6.643
 5967WAT      O18142   6.552   5.147   1.002
 5967WAT     H118143   6.522   5.077   1.067
 5967WAT     H218144   6.494   5.145   0.920
 5968WAT      O18145   9.429   4.170   4.133
 5968WAT     H118146   9.393   4.258   4.104
 5968WAT     H218147   9.528   4.167   4.119
 5969WAT      O18148   1.256   6.157   5.360
 5969WAT     H118149   1.157   6.151   5.364
 5969WAT     H218150   1.293   6.169   5.452
 5970WAT      O18151   8.456   6.591   2.291
 5970WAT     H118152   8.523   6.643   2.237
 5970WAT     H218153   8.484   6.590   2.387
 5971WAT      O18154   0.245   7.162   0.087
 5971WAT     H118155   0.205   7.141   0.177
 5971WAT     H218156   0.318   7.230   0.097
 5972WAT      O18157   6.397   0.058   2.038
 5972WAT     H118158   6.326   0.109   1.990
 5972WAT     H218159   6.420   0.106   2.123
 5973WAT      O18160   6.637   3.523   9.128
 5973WAT     H118161   6.636   3.492   9.033
 5973WAT     H218162   6.685   3.610   9.134
 5974WAT      O18163   8.449   0.140   0.859
 5974WAT     H118164   8.536   0.098   0.886
 5974WAT     H218165   8.464   0.234   0.829
 5975WAT      O18166   5.770   8.538   8.376
 5975WAT     H118167   5.723   8.476   8.439
 5975WAT     H218168   5.717   8.547   8.292
 5976WAT      O18169   1.257   8.827   2.461
 5976WAT     H118170   1.294   8.737   2.485
 5976WAT     H218171   1.271   8.844   2.364
 5977WAT      O18172   9.273   5.247   0.096
 5977WAT     H118173   9.324   5.247   0.010
 5977WAT     H218174   9.305   5.323   0.154
 5978WAT      O18175   4.146   9.390   2.125
 5978WAT     H118176   4.221   9.455   2.111
 5978WAT     H218177   4.064   9.440   2.154
 5979WAT      O18178   2.463   5.385   0.161
 5979WAT     H118179   2.497   5.424   0.075
 5979WAT     H218180   2.364   5.392   0.164
 5980WAT      O18181   6.410   7.045   2.734
 5980WAT     H118182   6.332   7.107   2.722
 5980WAT     H218183   6.403   6.970   2.669
 5981WAT      O18184   7.115   1.416   7.465
 5981WAT     H118185   7.203   1.394   7.422
 5981WAT     H218186   7.131   1.478   7.542
 5982WAT      O18187   6.723   4.815   9.489
 5982WAT     H118188   6.671   4.729   9.484
 5982WAT     H218189   6.718   4.861   9.401
 5983WAT      O18190   1.691   8.712   8.259
 5983WAT     H118191   1.669   8.692   8.164
 5983WAT     H218192   1.632   8.785   8.293
 5984WAT      O18193   1.241   4.626   4.039
 5984WAT     H118194   1.218   4.620   3.942
 5984WAT     H218195   1.283   4.714   4.058
 5985WAT      O18196   2.565   5.022   1.135
 5985WAT     H118197   2.477   5.034   1.090
 5985WAT     H218198   2.638   5.033   1.067
 5986WAT      O18199   0.770   6.833   1.579
 5986WAT     H118200   0.855   6.866   1.619
 5986WAT     H218201   0.705   6.812   1.653
 5987WAT      O18202   4.877   0.455   8.895
 5987WAT     H118203   4.860   0.404   8.979
 5987WAT     H218204   4.906   0.548   8.918
 5988WAT      O18205   2.075   5.435   4.469
 5988WAT     H118206   2.151   5.402   4.413
 5988WAT     H218207   2.085   5.533   4.484
 5989WAT      O18208   5.478   7.013   0.600
 5989WAT     H118209   5.539   7.043   0.673
 5989WAT     H218210   5.459   6.916   0.610
 5990WAT      O18211   7.502   4.256   8.442
 5990WAT     H118212   7.413   4.290   8.413
 5990WAT     H218213   7.526   4.296   8.531
 5991WAT      O18214   7.563   4.028   8.570
 5991WAT     H118215   7.576   4.120   8.531
 5991WAT     H218216   7.574   4.033   8.669
 5992WAT      O18217   1.290   0.252   0.958
 5992WAT     H118218   1.329   0.254   1.050
 5992WAT     H218219   1.363   0.244   0.890
 5993WAT      O18220   8.857   6.760   9.393
 5993WAT     H118221   8.885   6.852   9.422
 5993WAT     H218222   8.921   6.726   9.325
 5994WAT      O18223   7.501   2.545   3.347
 5994WAT     H118224   7.581   2.597   3.316
 5994WAT     H218225   7.463   2.586   3.429
 5995WAT      O18226   0.296   7.047   3.471
 5995WAT     H118227   0.383   7.095   3.475
 5995WAT     H218228   0.294   6.976   3.542
 5996WAT      O18229   5.470   3.167   0.775
 5996WAT     H118230   5.374   3.188   0.788
 5996WAT     H218231   5.479   3.085   0.717
 5997WAT      O18232   2.725   6.022   1.157
 5997WAT     H118233   2.631   6.049   1.136
 5997WAT     H218234   2.771   6.097   1.205
 5998WAT      O18235   0.658   5.425   9.155
 5998WAT     H118236   0.618   5.517   9.151
 5998WAT     H218237   0.622   5.370   9.080
 5999WAT      O18238   1.740   8.609   0.811
 5999WAT     H118239   1.743   8.619   0.910
 5999WAT     H218240   1.667   8.666   0.774
 6000WAT      O18241   3.009   2.762   5.010
 6000WAT     H118242   2.958   2.844   4.985
 6000WAT     H218243   2.950   2.682   5.003
 6001WAT      O18244   7.728   7.733   8.181
 6001WAT     H118245   7.637   7.760   8.214
 6001WAT     H218246   7.722   7.644   8.137
 6002WAT      O18247   2.581   6.048   0.344
 6002WAT     H118248   2.640   5.971   0.369
 6002WAT     H218249   2.505   6.054   0.409
 6003WAT      O18250   9.029   2.394   9.061
 6003WAT     H118251   9.118   2.419   9.101
 6003WAT     H218252   9.028   2.296   9.041
 6004WAT      O18253   5.948   8.103   5.467
 6004WAT     H118254   5.954   8.193   5.510
 6004WAT     H218255   5.963   8.032   5.536
 6005WAT      O18256   4.858   1.105   0.294
 6005WAT     H118257   4.762   1.112   0.321
 6005WAT     H218258   4.889   1.010   0.306
 6006WAT      O18259   9.742   1.704   2.368
 6006WAT     H118260   9.668   1.749   2.319
 6006WAT     H218261   9.708   1.672   2.457
 6007WAT      O18262   0.949   0.791   8.217
 6007WAT     H118263   0.859   0.759   8.247
 6007WAT     H218264   0.943   0.824   8.123
 6008WAT      O18265   1.573   8.882   8.424
 6008WAT     H118266   1.610   8.835   8.505
 6008WAT     H218267   1.476   8.900   8.438
 6009WAT      O18268   0.248   0.295   5.945
 6009WAT     H118269   0.340   0.335   5.948
 6009WAT     H218270   0.242   0.232   5.867
 6010WAT      O18271   9.735   1.554   9.765
 6010WAT     H118272   9.639   1.576   9.745
 6010WAT     H218273   9.758   1.466   9.725
 6011WAT      O18274   3.821   8.380   6.531
 6011WAT     H118275   3.790   8.343   6.443
 6011WAT     H218276   3.892   8.448   6.515
 6012WAT      O18277   7.727   3.349   7.709
 6012WAT     H118278   7.674   3.419   7.756
 6012WAT     H218279   7.739   3.375   7.613
 6013WAT      O18280   2.211   7.538   3.378
 6013WAT     H118281   2.150   7.616   3.365
 6013WAT     H218282   2.240   7.533   3.473
 6014WAT      O18283   3.482   4.431   5.033
 6014WAT     H118284   3.535   4.515   5.040
 6014WAT     H218285   3.442   4.409   5.122
 6015WAT      O18286   6.869   3.938   2.037
 6015WAT     H118287   6.857   3.892   1.949
 6015WAT     H218288   6.943   4.005   2.030
 6016WAT      O18289   4.986   1.770   0.277
 6016WAT     H118290   4.944   1.820   0.202
 6016WAT     H218291   5.085   1.786   0.276
 6017WAT      O18292   3.935   3.148   1.326
 6017WAT     H118293   3.846   3.110   1.298
 6017WAT     H218294   3.971   3.206   1.252
 6018WAT      O18295   1.409   1.532   5.824
 6018WAT     H118296   1.425   1.439   5.857
 6018WAT     H218297   1.396   1.530   5.725
 6019WAT      O18298   2.653   0.994   5.668
 6019WAT     H118299   2.741   0.947   5.671
 6019WAT     H218300   2.611   0.992   5.759
 6020WAT      O18301   4.720   8.007   1.174
 6020WAT     H118302   4.643   7.961   1.217
 6020WAT     H218303   4.714   7.998   1.074
 6021WAT      O18304   1.902   0.626   1.131
 6021WAT     H118305   1.909   0.656   1.036
 6021WAT     H218306   1.880   0.529   1.134
 6022WAT      O18307   9.528   0.848   7.429
 6022WAT     H118308   9.443   0.869   7.381
 6022WAT     H218309   9.592   0.803   7.366
 6023WAT      O18310   4.194   6.859   9.231
 6023WAT     H118311   4.190   6.782   9.294
 6023WAT     H218312   4.101   6.889   9.209
 6024WAT      O18313   6.420   5.014   1.201
 6024WAT     H118314   6.343   5.036   1.261
 6024WAT     H218315   6.468   4.933   1.237
 6025WAT      O18316   5.516   5.748   7.872
 6025WAT     H118317   5.466   5.772   7.789
 6025WAT     H218318   5.612   5.771   7.862
 6026WAT      O18319   1.009   7.773   6.038
 6026WAT     H118320   1.052   7.688   6.008
 6026WAT     H218321   1.067   7.851   6.014
 6027WAT      O18322   4.580   9.136   7.437
 6027WAT     H118323   4.660   9.098   7.392
 6027WAT     H218324   4.515   9.063   7.459
 6028WAT      O18325   7.628   0.991   1.232
 6028WAT     H118326   7.714   1.039   1.220
 6028WAT     H218327   7.645   0.893   1.237
 6029WAT      O18328   5.380   6.497   6.082
 6029WAT     H118329   5.379   6.415   6.140
 6029WAT     H218330   5.351   6.473   5.990
 6030WAT      O18331   9.406   8.052   2.173
 6030WAT     H118332   9.464   8.049   2.254
 6030WAT     H218333   9.460   8.081   2.094
 6031WAT      O18334   5.611   5.506   1.858
 6031WAT     H118335   5.662   5.486   1.941
 6031WAT     H218336   5.526   5.553   1.882
 6032WAT      O18337   2.054   4.198   3.566
 6032WAT     H118338   2.122   4.271   3.582
 6032WAT     H218339   2.056   4.135   3.643
 6033WAT      O18340   8.390   2.162   4.918
 6033WAT     H118341   8.336   2.117   4.847
 6033WAT     H218342   8.473   2.109   4.935
 6034WAT      O18343   7.497   3.268   0.669
 6034WAT     H118344   7.482   3.345   0.607
 6034WAT     H218345   7.419   3.206   0.664
 6035WAT      O18346   5.252   0.972   2.982
 6035WAT     H118347   5.316   0.913   2.933
 6035WAT     H218348   5.304   1.037   3.038
 6036WAT      O18349   6.867   5.105   5.544
 6036WAT     H118350   6.938   5.142   5.604
 6036WAT     H218351   6.909   5.068   5.462
 6037WAT      O18352   1.106   3.819   6.603
 6037WAT     H118353   1.096   3.844   6.699
 6037WAT     H218354   1.030   3.760   6.576
 6038WAT      O18355   9.061   3.000   2.088
 6038WAT     H118356   8.996   3.009   2.163
 6038WAT     H218357   9.094   2.906   2.084
 6039WAT      O18358   1.602   5.228   8.581
 6039WAT     H118359   1.531   5.258   8.517
 6039WAT     H218360   1.599   5.286   8.663
 6040WAT      O18361   0.155   8.907   8.485
 6040WAT     H118362   0.100   8.887   8.567
 6040WAT     H218363   0.109   8.870   8.405
 6041WAT      O18364   1.049   1.520   3.054
 6041WAT     H118365   1.094   1.433   3.031
 6041WAT     H218366   0.950   1.509   3.048
 6042WAT      O18367   7.381   1.804   1.073
 6042WAT     H118368   7.339   1.823   1.162
 6042WAT     H218369   7.462   1.861   1.062
 6043WAT      O18370   4.001   4.285   3.785
 6043WAT     H118371   3.975   4.312   3.692
 6043WAT     H218372   4.014   4.186   3.789
 6044WAT      O18373   7.557   8.881   2.362
 6044WAT     H118374   7.618   8.833   2.426
 6044WAT     H218375   7.480   8.919   2.412
 6045WAT      O18376   6.060   7.418   7.011
 6045WAT     H118377   5.998   7.344   7.040
 6045WAT     H218378   6.062   7.489   7.081
 6046WAT      O18379   3.631   3.054   9.707
 6046WAT     H118380   3.557   3.121   9.714
 6046WAT     H218381   3.711   3.086   9.757
 6047WAT      O18382   4.283   7.375   5.340
 6047WAT     H118383   4.194   7.407   5.372
 6047WAT     H218384   4.324   7.444   5.280
 6048WAT      O18385   2.828   8.975   2.091
 6048WAT     H118386   2.748   8.916   2.088
 6048WAT     H218387   2.876   8.963   2.178
 6049WAT      O18388   9.272   1.426   2.319
 6049WAT     H118389   9.197   1.365   2.296
 6049WAT     H218390   9.273   1.504   2.256
 6050WAT      O18391   8.819   1.153   5.145
 6050WAT     H118392   8.854   1.066   5.179
 6050WAT     H218393   8.884   1.192   5.080
 6051WAT      O18394   7.121   7.613   2.696
 6051WAT     H118395   7.078   7.662   2.620
 6051WAT     H218396   7.070   7.529   2.715
 6052WAT      O18397   1.040   1.680   3.888
 6052WAT     H118398   1.135   1.699   3.860
 6052WAT     H218399   1.013   1.591   3.852
 6053WAT      O18400   9.750   4.382   7.293
 6053WAT     H118401   9.805   4.391   7.210
 6053WAT     H218402   9.788   4.310   7.350
 6054WAT      O18403   1.125   6.385   1.779
 6054WAT     H118404   1.131   6.395   1.878
 6054WAT     H218405   1.188   6.312   1.749
 6055WAT      O18406   7.046   3.386   6.706
 6055WAT     H118407   6.966   3.336   6.739
 6055WAT     H218408   7.026   3.427   6.617
 6056WAT      O18409   8.659   4.977   3.287
 6056WAT     H118410   8.590   5.005   3.354
 6056WAT     H218411   8.645   5.027   3.202
 6057WAT      O18412   7.297   9.163   4.501
 6057WAT     H118413   7.335   9.192   4.588
 6057WAT     H218414   7.268   9.243   4.448
 6058WAT      O18415   0.735   2.969   8.177
 6058WAT     H118416   0.758   2.880   8.137
 6058WAT     H218417   0.809   3.034   8.158
 6059WAT      O18418   8.167   6.875   7.607
 6059WAT     H118419   8.085   6.845   7.655
 6059WAT     H218420   8.238   6.897   7.673
 6060WAT      O18421   7.759   9.619   5.672
 6060WAT     H118422   7.695   9.692   5.646
 6060WAT     H218423   7.842   9.661   5.710
 6061WAT      O18424   2.213   7.428   5.289
 6061WAT     H118425   2.292   7.422   5.349
 6061WAT     H218426   2.154   7.503   5.318
 6062WAT      O18427   4.299   0.445   8.275
 6062WAT     H118428   4.256   0.504   8.343
 6062WAT     H218429   4.302   0.492   8.187
 6063WAT      O18430   2.800   6.947   7.561
 6063WAT     H118431   2.790   6.856   7.520
 6063WAT     H218432   2.757   6.948   7.651
 6064WAT      O18433   8.024   9.449   7.045
 6064WAT     H118434   7.926   9.463   7.058
 6064WAT     H218435   8.072   9.535   7.062
 6065WAT      O18436   7.598   5.004   5.562
 6065WAT     H118437   7.603   4.930   5.495
 6065WAT     H218438   7.660   5.078   5.537
 6066WAT      O18439   7.693   5.082   3.224
 6066WAT     H118440   7.686   5.135   3.308
 6066WAT     H218441   7.706   4.986   3.246
 6067WAT      O18442   3.908   4.403   4.295
 6067WAT     H118443   3.978   4.450   4.241
 6067WAT     H218444   3.824   4.458   4.295
 6068WAT      O18445   8.692   7.339   9.622
 6068WAT     H118446   8.678   7.311   9.717
 6068WAT     H218447   8.642   7.424   9.605
 6069WAT      O18448   9.675   2.596   2.676
 6069WAT     H118449   9.617   2.528   2.720
 6069WAT     H218450   9.622   2.646   2.607
 6070WAT      O18451   0.220   0.073   8.128
 6070WAT     H118452   0.152   0.138   8.093
 6070WAT     H218453   0.200   0.053   8.224
 6071WAT      O18454   6.514   4.505   5.211
 6071WAT     H118455   6.601   4.550   5.232
 6071WAT     H218456   6.531   4.412   5.182
 6072WAT      O18457   2.482   2.120   3.666
 6072WAT     H118458   2.572   2.134   3.707
 6072WAT     H218459   2.483   2.151   3.571
 6073WAT      O18460   6.808   4.844   7.139
 6073WAT     H118461   6.828   4.874   7.046
 6073WAT     H218462   6.709   4.850   7.155
 6074WAT      O18463   9.509   7.571   5.159
 6074WAT     H118464   9.453   7.519   5.223
 6074WAT     H218465   9.543   7.654   5.204
 6075WAT      O18466   0.006   8.033   5.901
 6075WAT     H118467  -0.079   8.049   5.851
 6075WAT     H218468   0.063   7.969   5.850
 6076WAT      O18469   6.554   9.714   2.472
 6076WAT     H118470   6.457   9.716   2.498
 6076WAT     H218471   6.569   9.640   2.406
 6077WAT      O18472   8.528   7.635   3.929
 6077WAT     H118473   8.602   7.701   3.914
 6077WAT     H218474   8.445   7.683   3.955
 6078WAT      O18475   9.013   8.278   0.484
 6078WAT     H118476   8.987   8.352   0.422
 6078WAT     H218477   8.969   8.292   0.572
 6079WAT      O18478   7.639   9.835   8.154
 6079WAT     H118479   7.581   9.901   8.107
 6079WAT     H218480   7.729   9.834   8.112
 6080WAT      O18481   3.818   2.486   6.141
 6080WAT     H118482   3.841   2.553   6.071
 6080WAT     H218483   3.792   2.399   6.098
 6081WAT      O18484   7.538   6.399   8.025
 6081WAT     H118485   7.608   6.330   8.006
 6081WAT     H218486   7.573   6.490   8.005
 6082WAT      O18487   6.358   4.942   8.858
 6082WAT     H118488   6.260   4.925   8.871
 6082WAT     H218489   6.385   5.021   8.914
 6083WAT      O18490   3.793   3.401   3.960
 6083WAT     H118491   3.749   3.467   4.022
 6083WAT     H218492   3.835   3.328   4.013
 6084WAT      O18493   0.326   8.976   7.067
 6084WAT     H118494   0.342   9.071   7.096
 6084WAT     H218495   0.371   8.960   6.979
 6085WAT      O18496   3.853   0.823   7.535
 6085WAT     H118497   3.764   0.803   7.576
 6085WAT     H218498   3.869   0.922   7.538
 6086WAT      O18499   0.726   9.831   2.983
 6086WAT     H118500   0.637   9.812   3.024
 6086WAT     H218501   0.791   9.854   3.056
 6087WAT      O18502   8.102   8.516   8.716
 6087WAT     H118503   8.063   8.540   8.804
 6087WAT     H218504   8.084   8.420   8.695
 6088WAT      O18505   8.624   8.534   3.596
 6088WAT     H118506   8.643   8.596   3.672
 6088WAT     H218507   8.666   8.445   3.615
 6089WAT      O18508   5.479   1.369   4.206
 6089WAT     H118509   5.511   1.380   4.112
 6089WAT     H218510   5.434   1.280   4.216
 6090WAT      O18511   4.753   1.205   3.265
 6090WAT     H118512   4.824   1.162   3.209
 6090WAT     H218513   4.663   1.176   3.233
 6091WAT      O18514   4.294   8.410   7.630
 6091WAT     H118515   4.255   8.473   7.698
 6091WAT     H218516   4.277   8.445   7.538
 6092WAT      O18517   0.536   0.765   1.645
 6092WAT     H118518   0.589   0.816   1.577
 6092WAT     H218519   0.590   0.753   1.728
 6093WAT      O18520   7.591   8.393   1.444
 6093WAT     H118521   7.516   8.427   1.387
 6093WAT     H218522   7.673   8.446   1.427
 6094WAT      O18523   1.318   9.744   3.106
 6094WAT     H118524   1.378   9.664   3.099
 6094WAT     H218525   1.281   9.750   3.199
 6095WAT      O18526   7.559   9.624   6.146
 6095WAT     H118527   7.585   9.568   6.068
 6095WAT     H218528   7.618   9.602   6.224
 6096WAT      O18529   7.739   5.057   8.569
 6096WAT     H118530   7.686   5.141   8.561
 6096WAT     H218531   7.751   5.017   8.479
 6097WAT      O18532   7.486   6.338   7.423
 6097WAT     H118533   7.437   6.377   7.501
 6097WAT     H218534   7.529   6.252   7.450
 6098WAT      O18535   0.217   4.948   7.546
 6098WAT     H118536   0.296   4.898   7.582
 6098WAT     H218537   0.137   4.930   7.604
 6099WAT      O18538   8.061   6.509   9.415
 6099WAT     H118539   8.099   6.418   9.398
 6099WAT     H218540   7.975   6.519   9.365
 6100WAT      O18541   3.987   1.816   1.343
 6100WAT     H118542   3.970   1.901   1.393
 6100WAT     H218543   4.075   1.778   1.370
 6101WAT      O18544   8.272   7.853   2.305
 6101WAT     H118545   8.182   7.896   2.311
 6101WAT     H218546   8.264   7.766   2.257
 6102WAT      O18547   2.451   1.901   9.297
 6102WAT     H118548   2.352   1.894   9.304
 6102WAT     H218549   2.483   1.854   9.215
 6103WAT      O18550   8.697   3.353   0.166
 6103WAT     H118551   8.694   3.366   0.067
 6103WAT     H218552   8.609   3.318   0.198
 6104WAT      O18553   8.681   2.367   8.057
 6104WAT     H118554   8.761   2.400   8.008
 6104WAT     H218555   8.598   2.402   8.013
 6105WAT      O18556   3.159   6.290   1.891
 6105WAT     H118557   3.103   6.359   1.938
 6105WAT     H218558   3.248   6.329   1.869
 6106WAT      O18559   5.642   0.318   3.431
 6106WAT     H118560   5.591   0.292   3.514
 6106WAT     H218561   5.583   0.373   3.372
 6107WAT      O18562   8.926   7.646   9.659
 6107WAT     H118563   8.954   7.570   9.718
 6107WAT     H218564   8.993   7.657   9.585
 6108WAT      O18565   0.127   4.999   9.237
 6108WAT     H118566   0.090   5.018   9.146
 6108WAT     H218567   0.101   4.907   9.265
 6109WAT      O18568   0.228   5.333   4.138
 6109WAT     H118569   0.162   5.316   4.064
 6109WAT     H218570   0.207   5.274   4.215
 6110WAT      O18571   6.215   8.094   8.130
 6110WAT     H118572   6.251   8.005   8.159
 6110WAT     H218573   6.135   8.118   8.185
 6111WAT      O18574   0.481   9.474   4.470
 6111WAT     H118575   0.412   9.499   4.538
 6111WAT     H218576   0.442   9.479   4.378
 6112WAT      O18577   3.599   8.291   9.880
 6112WAT     H118578   3.530   8.257   9.816
 6112WAT     H218579   3.613   8.224   9.953
 6113WAT      O18580   4.610   6.195   8.085
 6113WAT     H118581   4.606   6.184   7.986
 6113WAT     H218582   4.699   6.233   8.111
 6114WAT      O18583   9.446   4.523   6.844
 6114WAT     H118584   9.515   4.454   6.866
 6114WAT     H218585   9.437   4.587   6.921
 6115WAT      O18586   2.734   0.314   4.439
 6115WAT     H118587   2.664   0.385   4.430
 6115WAT     H218588   2.689   0.225   4.453
 6116WAT      O18589   0.252   9.324   2.435
 6116WAT     H118590   0.244   9.300   2.532
 6116WAT     H218591   0.306   9.254   2.388
 6117WAT      O18592   7.315   3.427   8.624
 6117WAT     H118593   7.289   3.491   8.696
 6117WAT     H218594   7.412   3.406   8.631
 6118WAT      O18595   5.272   3.301   6.319
 6118WAT     H118596   5.310   3.231   6.380
 6118WAT     H218597   5.317   3.296   6.230
 6119WAT      O18598   1.537   0.690   9.680
 6119WAT     H118599   1.542   0.751   9.601
 6119WAT     H218600   1.523   0.596   9.649
 6120WAT      O18601   3.130   5.681   7.359
 6120WAT     H118602   3.093   5.766   7.322
 6120WAT     H218603   3.096   5.668   7.452
 6121WAT      O18604   8.297   8.732   7.861
 6121WAT     H118605   8.224   8.782   7.907
 6121WAT     H218606   8.265   8.639   7.839
 6122WAT      O18607   2.673   8.895   6.507
 6122WAT     H118608   2.617   8.920   6.585
 6122WAT     H218609   2.673   8.795   6.497
 6123WAT      O18610   7.603   4.872   9.689
 6123WAT     H118611   7.532   4.802   9.678
 6123WAT     H218612   7.691   4.828   9.702
 6124WAT      O18613   7.261   1.553   3.578
 6124WAT     H118614   7.207   1.478   3.617
 6124WAT     H218615   7.202   1.610   3.521
 6125WAT      O18616   5.146   4.678   9.163
 6125WAT     H118617   5.078   4.749   9.144
 6125WAT     H218618   5.238   4.719   9.160
 6126WAT      O18619   3.292   5.834   7.632
 6126WAT     H118620   3.299   5.820   7.730
 6126WAT     H218621   3.230   5.766   7.593
 6127WAT      O18622   3.067   7.089   4.301
 6127WAT     H118623   3.125   7.034   4.240
 6127WAT     H218624   3.119   7.170   4.330
 6128WAT      O18625   4.759   0.931   2.874
 6128WAT     H118626   4.660   0.920   2.883
 6128WAT     H218627   4.788   0.899   2.784
 6129WAT      O18628   1.114   8.215   4.317
 6129WAT     H118629   1.110   8.185   4.222
 6129WAT     H218630   1.027   8.195   4.362
 6130WAT      O18631   1.303   2.488   2.856
 6130WAT     H118632   1.241   2.501   2.778
 6130WAT     H218633   1.397   2.502   2.826
 6131WAT      O18634   4.217   6.396   9.324
 6131WAT     H118635   4.225   6.435   9.232
 6131WAT     H218636   4.121   6.386   9.348
 6132WAT      O18637   5.839   4.931   7.740
 6132WAT     H118638   5.780   4.930   7.660
 6132WAT     H218639   5.828   4.846   7.791
 6133WAT      O18640   3.088   9.466   3.427
 6133WAT     H118641   3.091   9.553   3.379
 6133WAT     H218642   3.132   9.476   3.517
 6134WAT      O18643   3.061   1.140   2.089
 6134WAT     H118644   3.032   1.049   2.062
 6134WAT     H218645   3.099   1.137   2.182
 6135WAT      O18646   1.115   7.148   9.623
 6135WAT     H118647   1.191   7.132   9.560
 6135WAT     H218648   1.113   7.244   9.650
 6136WAT      O18649   9.477   7.532   7.621
 6136WAT     H118650   9.388   7.505   7.660
 6136WAT     H218651   9.511   7.613   7.668
 6137WAT      O18652   2.850   5.999   4.803
 6137WAT     H118653   2.821   6.052   4.723
 6137WAT     H218654   2.931   6.041   4.844
 6138WAT      O18655   9.141   4.172   6.971
 6138WAT     H118656   9.119   4.099   6.907
 6138WAT     H218657   9.118   4.261   6.930
 6139WAT      O18658   4.046   9.130   6.177
 6139WAT     H118659   3.954   9.092   6.190
 6139WAT     H218660   4.054   9.166   6.084
 6140WAT      O18661   6.707   2.658   3.080
 6140WAT     H118662   6.667   2.746   3.107
 6140WAT     H218663   6.647   2.614   3.014
 6141WAT      O18664   8.040   8.657   2.689
 6141WAT     H118665   8.056   8.749   2.724
 6141WAT     H218666   8.033   8.661   2.589
 6142WAT      O18667   1.707   6.909   2.794
 6142WAT     H118668   1.651   6.854   2.857
 6142WAT     H218669   1.730   6.996   2.838
 6143WAT      O18670   9.762   6.874   2.846
 6143WAT     H118671   9.835   6.868   2.914
 6143WAT     H218672   9.702   6.795   2.854
 6144WAT      O18673   9.246   9.007   7.070
 6144WAT     H118674   9.267   8.945   6.995
 6144WAT     H218675   9.223   9.097   7.034
 6145WAT      O18676   3.439   5.248   1.857
 6145WAT     H118677   3.520   5.295   1.893
 6145WAT     H218678   3.431   5.159   1.900
 6146WAT      O18679   3.513   5.454   5.145
 6146WAT     H118680   3.475   5.431   5.234
 6146WAT     H218681   3.443   5.497   5.088
 6147WAT      O18682   4.497   5.438   5.484
 6147WAT     H118683   4.453   5.506   5.543
 6147WAT     H218684   4.472   5.455   5.389
 6148WAT      O18685   2.781   6.036   9.095
 6148WAT     H118686   2.789   5.976   9.175
 6148WAT     H218687   2.871   6.072   9.071
 6149WAT      O18688   3.579   3.662   1.603
 6149WAT     H118689   3.629   3.741   1.565
 6149WAT     H218690   3.577   3.669   1.702
 6150WAT      O18691   7.735   8.134   6.989
 6150WAT     H118692   7.651   8.176   7.024
 6150WAT     H218693   7.750   8.164   6.895
 6151WAT      O18694   4.444   0.116   7.016
 6151WAT     H118695   4.436   0.203   6.968
 6151WAT     H218696   4.430   0.129   7.114
 6152WAT      O18697   3.633   5.859   3.138
 6152WAT     H118698   3.611   5.883   3.233
 6152WAT     H218699   3.555   5.880   3.080
 6153WAT      O18700   7.666   8.539   0.910
 6153WAT     H118701   7.748   8.594   0.898
 6153WAT     H218702   7.624   8.560   0.998
 6154WAT      O18703   7.071   7.169   2.482
 6154WAT     H118704   6.981   7.140   2.516
 6154WAT     H218705   7.068   7.267   2.459
 6155WAT      O18706   3.065   8.930   8.168
 6155WAT     H118707   3.106   8.903   8.081
 6155WAT     H218708   2.965   8.930   8.160
 6156WAT      O18709   1.460   1.511   3.677
 6156WAT     H118710   1.525   1.577   3.640
 6156WAT     H218711   1.402   1.476   3.602
 6157WAT      O18712   2.714   0.856   4.190
 6157WAT     H118713   2.715   0.865   4.289
 6157WAT     H218714   2.751   0.939   4.148
 6158WAT      O18715   7.789   4.978   6.491
 6158WAT     H118716   7.871   4.920   6.492
 6158WAT     H218717   7.817   5.074   6.496
 6159WAT      O18718   2.062   5.677   8.507
 6159WAT     H118719   2.033   5.612   8.437
 6159WAT     H218720   2.106   5.756   8.465
 6160WAT      O18721   4.532   2.883   5.542
 6160WAT     H118722   4.448   2.917   5.499
 6160WAT     H218723   4.542   2.786   5.522
 6161WAT      O18724   6.335   8.126   5.653
 6161WAT     H118725   6.299   8.095   5.565
 6161WAT     H218726   6.414   8.185   5.638
 6162WAT      O18727   5.326   8.805   5.215
 6162WAT     H118728   5.256   8.800   5.144
 6162WAT     H218729   5.338   8.714   5.257
 6163WAT      O18730   0.640   8.899   2.545
 6163WAT     H118731   0.586   8.816   2.530
 6163WAT     H218732   0.678   8.898   2.638
 6164WAT      O18733   3.485   3.847   5.732
 6164WAT     H118734   3.417   3.784   5.771
 6164WAT     H218735   3.573   3.800   5.726
 6165WAT      O18736   8.289   5.378   3.848
 6165WAT     H118737   8.290   5.383   3.948
 6165WAT     H218738   8.290   5.282   3.819
 6166WAT      O18739   4.929   4.500   7.279
 6166WAT     H118740   4.876   4.574   7.319
 6166WAT     H218741   4.965   4.529   7.190
 6167WAT      O18742   3.413   8.859   3.549
 6167WAT     H118743   3.433   8.956   3.557
 6167WAT     H218744   3.399   8.836   3.453
 6168WAT      O18745   8.017   2.861   3.923
 6168WAT     H118746   7.967   2.935   3.879
 6168WAT     H218747   7.975   2.839   4.011
 6169WAT      O18748   0.096   4.583   3.888
 6169WAT     H118749   0.059   4.512   3.949
 6169WAT     H218750   0.194   4.568   3.875
 6170WAT      O18751   3.695   8.697   6.237
 6170WAT     H118752   3.642   8.744   6.166
 6170WAT     H218753   3.679   8.742   6.325
 6171WAT      O18754   6.434   3.597   1.594
 6171WAT     H118755   6.491   3.646   1.659
 6171WAT     H218756   6.410   3.507   1.631
 6172WAT      O18757   7.803   2.437   1.450
 6172WAT     H118758   7.730   2.370   1.463
 6172WAT     H218759   7.887   2.390   1.422
 6173WAT      O18760   9.790   4.617   7.440
 6173WAT     H118761   9.842   4.668   7.371
 6173WAT     H218762   9.767   4.526   7.405
 6174WAT      O18763   3.492   2.915   2.642
 6174WAT     H118764   3.512   3.012   2.633
 6174WAT     H218765   3.416   2.902   2.706
 6175WAT      O18766   1.350   3.564   4.950
 6175WAT     H118767   1.262   3.601   4.919
 6175WAT     H218768   1.419   3.579   4.879
 6176WAT      O18769   2.882   1.966   4.664
 6176WAT     H118770   2.850   1.996   4.574
 6176WAT     H218771   2.876   1.867   4.670
 6177WAT      O18772   0.114   7.349   5.398
 6177WAT     H118773   0.084   7.445   5.401
 6177WAT     H218774   0.179   7.333   5.473
 6178WAT      O18775   8.052   1.830   0.486
 6178WAT     H118776   8.005   1.850   0.572
 6178WAT     H218777   8.068   1.732   0.478
 6179WAT      O18778   3.856   4.863   2.763
 6179WAT     H118779   3.793   4.939   2.781
 6179WAT     H218780   3.908   4.843   2.845
 6180WAT      O18781   1.019   3.659   8.166
 6180WAT     H118782   1.026   3.721   8.088
 6180WAT     H218783   1.016   3.713   8.251
 6181WAT      O18784   3.531   6.532   3.240
 6181WAT     H118785   3.529   6.459   3.308
 6181WAT     H218786   3.585   6.609   3.274
 6182WAT      O18787   7.885   0.396   6.987
 6182WAT     H118788   7.909   0.347   7.071
 6182WAT     H218789   7.872   0.493   7.008
 6183WAT      O18790   9.596   3.316   9.699
 6183WAT     H118791   9.621   3.411   9.684
 6183WAT     H218792   9.636   3.259   9.627
 6184WAT      O18793   2.745   8.424   5.262
 6184WAT     H118794   2.708   8.474   5.184
 6184WAT     H218795   2.729   8.476   5.346
 6185WAT      O18796   0.829   2.055   2.215
 6185WAT     H118797   0.825   1.958   2.237
 6185WAT     H218798   0.798   2.108   2.294
 6186WAT      O18799   8.064   4.503   0.125
 6186WAT     H118800   8.115   4.417   0.131
 6186WAT     H218801   7.990   4.493   0.059
 6187WAT      O18802   5.088   2.170   6.590
 6187WAT     H118803   5.026   2.204   6.660
 6187WAT     H218804   5.071   2.073   6.575
 6188WAT      O18805   6.304   5.255   7.593
 6188WAT     H118806   6.348   5.303   7.518
 6188WAT     H218807   6.373   5.217   7.654
 6189WAT      O18808   1.510   5.530   4.699
 6189WAT     H118809   1.591   5.568   4.744
 6189WAT     H218810   1.430   5.546   4.757
 6190WAT      O18811   4.807   3.647   3.671
 6190WAT     H118812   4.775   3.641   3.577
 6190WAT     H218813   4.868   3.570   3.691
 6191WAT      O18814   1.768   7.412   9.020
 6191WAT     H118815   1.741   7.350   9.094
 6191WAT     H218816   1.863   7.441   9.034
 6192WAT      O18817   8.082   3.845   2.511
 6192WAT     H118818   8.153   3.792   2.467
 6192WAT     H218819   8.095   3.942   2.490
 6193WAT      O18820   5.473   2.435   8.811
 6193WAT     H118821   5.380   2.416   8.843
 6193WAT     H218822   5.536   2.366   8.846
 6194WAT      O18823   1.423   8.382   1.584
 6194WAT     H118824   1.426   8.289   1.546
 6194WAT     H218825   1.395   8.377   1.680
 6195WAT      O18826   9.610   3.599   9.738
 6195WAT     H118827   9.607   3.591   9.838
 6195WAT     H218828   9.533   3.653   9.706
 6196WAT      O18829   1.256   0.229   5.792
 6196WAT     H118830   1.178   0.198   5.738
 6196WAT     H218831   1.289   0.316   5.756
 6197WAT      O18832   8.350   8.651   2.962
 6197WAT     H118833   8.299   8.581   2.912
 6197WAT     H218834   8.285   8.711   3.010
 6198WAT      O18835   4.061   7.513   0.591
 6198WAT     H118836   4.019   7.471   0.511
 6198WAT     H218837   4.038   7.460   0.673
 6199WAT      O18838   0.197   3.681   5.434
 6199WAT     H118839   0.214   3.591   5.392
 6199WAT     H218840   0.134   3.671   5.511
 6200WAT      O18841   3.437   3.156   6.278
 6200WAT     H118842   3.534   3.179   6.269
 6200WAT     H218843   3.399   3.203   6.357
 6201WAT      O18844   7.486   2.820   9.608
 6201WAT     H118845   7.427   2.899   9.591
 6201WAT     H218846   7.581   2.849   9.612
 6202WAT      O18847   7.088   5.040   2.419
 6202WAT     H118848   7.176   5.074   2.387
 6202WAT     H218849   7.092   4.941   2.430
 6203WAT      O18850   8.298   2.327   6.659
 6203WAT     H118851   8.362   2.258   6.693
 6203WAT     H218852   8.336   2.369   6.577
 6204WAT      O18853   9.314   9.729   9.854
 6204WAT     H118854   9.281   9.674   9.777
 6204WAT     H218855   9.353   9.668   9.924
 6205WAT      O18856   5.792   7.833   6.249
 6205WAT     H118857   5.852   7.842   6.328
 6205WAT     H218858   5.696   7.842   6.278
 6206WAT      O18859   6.843   1.284   2.035
 6206WAT     H118860   6.804   1.347   2.102
 6206WAT     H218861   6.938   1.309   2.017
 6207WAT      O18862   1.410   3.994   1.376
 6207WAT     H118863   1.316   3.964   1.355
 6207WAT     H218864   1.416   4.020   1.472
 6208WAT      O18865   7.659   9.069   7.450
 6208WAT     H118866   7.723   9.111   7.386
 6208WAT     H218867   7.635   9.135   7.521
 6209WAT      O18868   3.837   8.984   7.536
 6209WAT     H118869   3.805   8.889   7.540
 6209WAT     H218870   3.866   9.013   7.627
 6210WAT      O18871   9.477   1.266   7.592
 6210WAT     H118872   9.538   1.346   7.599
 6210WAT     H218873   9.487   1.226   7.500
 6211WAT      O18874   4.337   6.300   4.541
 6211WAT     H118875   4.369   6.206   4.548
 6211WAT     H218876   4.398   6.360   4.592
 6212WAT      O18877   9.861   2.254   1.974
 6212WAT     H118878   9.874   2.318   1.899
 6212WAT     H218879   9.937   2.263   2.039
 6213WAT      O18880   4.124   2.988   9.350
 6213WAT     H118881   4.165   2.987   9.441
 6213WAT     H218882   4.190   2.954   9.283
 6214WAT      O18883   7.700   6.400   7.086
 6214WAT     H118884   7.710   6.414   6.988
 6214WAT     H218885   7.708   6.303   7.108
 6215WAT      O18886   7.634   0.984   6.486
 6215WAT     H118887   7.614   0.917   6.415
 6215WAT     H218888   7.604   1.075   6.456
 6216WAT      O18889   9.135   4.701   7.693
 6216WAT     H118890   9.192   4.634   7.740
 6216WAT     H218891   9.077   4.654   7.626
 6217WAT      O18892   6.478   8.406   2.913
 6217WAT     H118893   6.489   8.358   2.826
 6217WAT     H218894   6.425   8.349   2.976
 6218WAT      O18895   7.715   3.110   2.367
 6218WAT     H118896   7.668   3.198   2.378
 6218WAT     H218897   7.755   3.083   2.455
 6219WAT      O18898   8.822   6.622   3.135
 6219WAT     H118899   8.879   6.543   3.157
 6219WAT     H218900   8.781   6.657   3.219
 6220WAT      O18901   8.232   6.927   5.165
 6220WAT     H118902   8.254   7.020   5.192
 6220WAT     H218903   8.207   6.874   5.246
 6221WAT      O18904   1.159   0.897   8.691
 6221WAT     H118905   1.210   0.971   8.648
 6221WAT     H218906   1.098   0.855   8.624
 6222WAT      O18907   6.624   8.547   1.546
 6222WAT     H118908   6.644   8.588   1.457
 6222WAT     H218909   6.545   8.593   1.587
 6223WAT      O18910   1.990   2.080   7.025
 6223WAT     H118911   2.000   2.091   7.124
 6223WAT     H218912   2.060   2.019   6.991
 6224WAT      O18913   4.799   7.973   7.967
 6224WAT     H118914   4.754   7.916   7.898
 6224WAT     H218915   4.738   8.049   7.992
 6225WAT      O18916   7.258   2.757   1.413
 6225WAT     H118917   7.286   2.769   1.318
 6225WAT     H218918   7.338   2.756   1.472
 6226WAT      O18919   5.974   1.432   4.871
 6226WAT     H118920   5.876   1.431   4.853
 6226WAT     H218921   6.024   1.407   4.788
 6227WAT      O18922   3.003   8.624   0.630
 6227WAT     H118923   3.010   8.678   0.547
 6227WAT     H218924   3.084   8.637   0.687
 6228WAT      O18925   8.427   3.193   3.227
 6228WAT     H118926   8.430   3.101   3.187
 6228WAT     H218927   8.383   3.189   3.317
 6229WAT      O18928   1.848   7.861   8.847
 6229WAT     H118929   1.852   7.783   8.910
 6229WAT     H218930   1.830   7.827   8.755
 6230WAT      O18931   9.521   3.103   0.714
 6230WAT     H118932   9.607   3.154   0.722
 6230WAT     H218933   9.528   3.037   0.640
 6231WAT      O18934   9.329   9.797   1.505
 6231WAT     H118935   9.244   9.766   1.462
 6231WAT     H218936   9.373   9.865   1.446
 6232WAT      O18937   7.809   0.130   1.420
 6232WAT     H118938   7.867   0.119   1.340
 6232WAT     H218939   7.847   0.077   1.497
 6233WAT      O18940   9.478   3.809   8.891
 6233WAT     H118941   9.440   3.802   8.983
 6233WAT     H218942   9.486   3.905   8.865
 6234WAT      O18943   3.916   0.446   0.401
 6234WAT     H118944   4.004   0.492   0.390
 6234WAT     H218945   3.842   0.513   0.397
 6235WAT      O18946   0.716   4.834   4.122
 6235WAT     H118947   0.798   4.885   4.096
 6235WAT     H218948   0.645   4.847   4.053
 6236WAT      O18949   3.271   0.679   6.069
 6236WAT     H118950   3.204   0.632   6.126
 6236WAT     H218951   3.227   0.711   5.985
 6237WAT      O18952   3.360   4.546   9.249
 6237WAT     H118953   3.410   4.459   9.248
 6237WAT     H218954   3.265   4.529   9.221
 6238WAT      O18955   9.319   5.570   1.711
 6238WAT     H118956   9.377   5.538   1.787
 6238WAT     H218957   9.373   5.627   1.650
 6239WAT      O18958   9.128   6.385   3.906
 6239WAT     H118959   9.028   6.392   3.909
 6239WAT     H218960   9.156   6.294   3.937
 6240WAT      O18961   2.626   7.471   5.044
 6240WAT     H118962   2.645   7.488   5.141
 6240WAT     H218963   2.684   7.531   4.988
 6241WAT      O18964   9.000   9.117   2.837
 6241WAT     H118965   8.948   9.160   2.911
 6241WAT     H218966   9.097   9.113   2.862
 6242WAT      O18967   0.350   0.484   3.262
 6242WAT     H118968   0.427   0.421   3.253
 6242WAT     H218969   0.293   0.457   3.339
 6243WAT      O18970   5.815   7.008   4.334
 6243WAT     H118971   5.815   6.919   4.287
 6243WAT     H218972   5.834   6.995   4.431
 6244WAT      O18973   1.546   0.533   0.971
 6244WAT     H118974   1.634   0.495   0.945
 6244WAT     H218975   1.507   0.479   1.046
 6245WAT      O18976   6.428   3.516   0.038
 6245WAT     H118977   6.332   3.490   0.029
 6245WAT     H218978   6.477   3.444   0.088
 6246WAT      O18979   4.791   6.021   2.519
 6246WAT     H118980   4.754   6.071   2.440
 6246WAT     H218981   4.781   6.078   2.601
 6247WAT      O18982   5.678   2.804   9.534
 6247WAT     H118983   5.584   2.770   9.524
 6247WAT     H218984   5.680   2.902   9.518
 6248WAT      O18985   0.990   4.142   0.184
 6248WAT     H118986   0.952   4.118   0.094
 6248WAT     H218987   1.033   4.062   0.225
 6249WAT      O18988   6.608   6.672   8.799
 6249WAT     H118989   6.694   6.724   8.804
 6249WAT     H218990   6.624   6.578   8.830
 6250WAT      O18991   8.155   1.330   3.867
 6250WAT     H118992   8.204   1.384   3.798
 6250WAT     H218993   8.221   1.275   3.918
 6251WAT      O18994   3.272   6.171   8.523
 6251WAT     H118995   3.250   6.259   8.565
 6251WAT     H218996   3.294   6.104   8.594
 6252WAT      O18997   2.470   8.011   5.939
 6252WAT     H118998   2.473   7.989   5.841
 6252WAT     H218999   2.398   7.958   5.983
 6253WAT      O19000   5.806   5.891   9.872
 6253WAT     H119001   5.747   5.945   9.932
 6253WAT     H219002   5.898   5.888   9.911
 6254WAT      O19003   9.356   6.567   9.438
 6254WAT     H119004   9.446   6.567   9.483
 6254WAT     H219005   9.337   6.477   9.401
 6255WAT      O19006   6.602   2.253   3.670
 6255WAT     H119007   6.613   2.345   3.709
 6255WAT     H219008   6.560   2.193   3.738
 6256WAT      O19009   6.206   6.617   3.519
 6256WAT     H119010   6.136   6.548   3.537
 6256WAT     H219011   6.295   6.573   3.507
 6257WAT      O19012   3.293   2.331   9.359
 6257WAT     H119013   3.291   2.252   9.420
 6257WAT     H219014   3.379   2.381   9.372
 6258WAT      O19015   0.913   2.638   6.677
 6258WAT     H119016   0.923   2.692   6.594
 6258WAT     H219017   0.873   2.694   6.749
 6259WAT      O19018   1.430   8.970   2.588
 6259WAT     H119019   1.495   9.019   2.529
 6259WAT     H219020   1.352   8.939   2.534
 6260WAT      O19021   2.396   0.736   9.395
 6260WAT     H119022   2.325   0.680   9.438
 6260WAT     H219023   2.374   0.833   9.406
 6261WAT      O19024   7.087   5.827   8.251
 6261WAT     H119025   7.098   5.796   8.157
 6261WAT     H219026   7.061   5.924   8.251
 6262WAT      O19027   8.838   9.107   5.219
 6262WAT     H119028   8.806   9.202   5.225
 6262WAT     H219029   8.908   9.091   5.288
 6263WAT      O19030   2.548   8.063   8.833
 6263WAT     H119031   2.609   8.123   8.885
 6263WAT     H219032   2.461   8.109   8.819
 6264WAT      O19033   8.717   0.274   1.139
 6264WAT     H119034   8.749   0.363   1.173
 6264WAT     H219035   8.618   0.271   1.142
 6265WAT      O19036   1.632   4.683   4.386
 6265WAT     H119037   1.674   4.742   4.454
 6265WAT     H219038   1.547   4.645   4.422
 6266WAT      O19039   0.607   8.091   8.906
 6266WAT     H119040   0.607   8.185   8.873
 6266WAT     H219041   0.601   8.090   9.006
 6267WAT      O19042   8.621   1.407   2.675
 6267WAT     H119043   8.705   1.458   2.655
 6267WAT     H219044   8.579   1.376   2.590
 6268WAT      O19045   6.312   6.071   5.188
 6268WAT     H119046   6.407   6.098   5.179
 6268WAT     H219047   6.307   5.974   5.210
 6269WAT      O19048   2.777   1.389   3.238
 6269WAT     H119049   2.711   1.429   3.174
 6269WAT     H219050   2.743   1.300   3.269
 6270WAT      O19051   6.485   0.459   8.837
 6270WAT     H119052   6.531   0.372   8.856
 6270WAT     H219053   6.520   0.529   8.899
 6271WAT      O19054   4.629   7.978   3.624
 6271WAT     H119055   4.698   7.938   3.685
 6271WAT     H219056   4.642   7.943   3.531
 6272WAT      O19057   3.268   2.805   1.164
 6272WAT     H119058   3.172   2.799   1.137
 6272WAT     H219059   3.326   2.798   1.084
 6273WAT      O19060   1.185   1.666   3.214
 6273WAT     H119061   1.193   1.760   3.180
 6273WAT     H219062   1.134   1.611   3.148
 6274WAT      O19063   6.996   5.573   4.893
 6274WAT     H119064   6.959   5.638   4.960
 6274WAT     H219065   6.996   5.615   4.802
 6275WAT      O19066   0.080   8.669   7.286
 6275WAT     H119067  -0.010   8.672   7.331
 6275WAT     H219068   0.151   8.693   7.352
 6276WAT      O19069   0.460   2.741   3.279
 6276WAT     H119070   0.385   2.719   3.217
 6276WAT     H219071   0.494   2.657   3.322
 6277WAT      O19072   4.156   6.529   3.062
 6277WAT     H119073   4.074   6.479   3.034
 6277WAT     H219074   4.142   6.566   3.154
 6278WAT      O19075   3.185   5.512   8.009
 6278WAT     H119076   3.257   5.484   8.073
 6278WAT     H219077   3.117   5.439   8.002
 6279WAT      O19078   8.999   8.442   8.551
 6279WAT     H119079   8.984   8.347   8.578
 6279WAT     H219080   8.984   8.451   8.453
 6280WAT      O19081   2.214   6.526   8.607
 6280WAT     H119082   2.221   6.433   8.570
 6280WAT     H219083   2.177   6.522   8.700
 6281WAT      O19084   5.785   4.042   3.481
 6281WAT     H119085   5.695   4.085   3.483
 6281WAT     H219086   5.846   4.088   3.546
 6282WAT      O19087   3.759   5.683   1.460
 6282WAT     H119088   3.753   5.598   1.513
 6282WAT     H219089   3.838   5.736   1.492
 6283WAT      O19090   0.565   3.784   8.879
 6283WAT     H119091   0.569   3.788   8.780
 6283WAT     H219092   0.521   3.699   8.908
 6284WAT      O19093   8.153   8.412   7.167
 6284WAT     H119094   8.249   8.425   7.144
 6284WAT     H219095   8.143   8.331   7.225
 6285WAT      O19096   3.200   0.137   0.693
 6285WAT     H119097   3.123   0.191   0.658
 6285WAT     H219098   3.253   0.102   0.616
 6286WAT      O19099   3.095   2.943   0.598
 6286WAT     H119100   3.173   2.995   0.632
 6286WAT     H219101   3.104   2.847   0.626
 6287WAT      O19102   4.993   5.881   6.904
 6287WAT     H119103   5.043   5.798   6.880
 6287WAT     H219104   4.903   5.880   6.860
 6288WAT      O19105   6.695   7.921   9.390
 6288WAT     H119106   6.613   7.951   9.341
 6288WAT     H219107   6.722   7.991   9.456
 6289WAT      O19108   0.922   0.753   5.257
 6289WAT     H119109   0.965   0.826   5.311
 6289WAT     H219110   0.824   0.770   5.251
 6290WAT      O19111   1.353   6.495   2.625
 6290WAT     H119112   1.419   6.569   2.616
 6290WAT     H219113   1.282   6.520   2.691
 6291WAT      O19114   4.890   1.781   9.287
 6291WAT     H119115   4.914   1.798   9.383
 6291WAT     H219116   4.835   1.856   9.252
 6292WAT      O19117   3.319   1.592   4.063
 6292WAT     H119118   3.381   1.541   4.002
 6292WAT     H219119   3.225   1.578   4.034
 6293WAT      O19120   8.470   5.912   3.425
 6293WAT     H119121   8.497   6.008   3.418
 6293WAT     H219122   8.428   5.895   3.514
 6294WAT      O19123   2.743   6.701   6.056
 6294WAT     H119124   2.676   6.752   6.110
 6294WAT     H219125   2.802   6.765   6.007
 6295WAT      O19126   9.743   5.292   1.064
 6295WAT     H119127   9.825   5.245   1.098
 6295WAT     H219128   9.750   5.389   1.087
 6296WAT      O19129   3.035   3.451   0.855
 6296WAT     H119130   3.034   3.551   0.854
 6296WAT     H219131   3.128   3.419   0.867
 6297WAT      O19132   0.684   2.984   7.065
 6297WAT     H119133   0.650   2.987   6.971
 6297WAT     H219134   0.646   3.061   7.116
 6298WAT      O19135   7.998   4.952   8.140
 6298WAT     H119136   8.000   4.923   8.044
 6298WAT     H219137   8.084   4.927   8.184
 6299WAT      O19138   8.121   4.840   2.114
 6299WAT     H119139   8.061   4.765   2.144
 6299WAT     H219140   8.079   4.928   2.137
 6300WAT      O19141   5.327   3.864   8.162
 6300WAT     H119142   5.282   3.853   8.251
 6300WAT     H219143   5.262   3.841   8.090
 6301WAT      O19144   3.659   3.436   6.645
 6301WAT     H119145   3.614   3.358   6.690
 6301WAT     H219146   3.674   3.508   6.713
 6302WAT      O19147   0.990   8.954   3.327
 6302WAT     H119148   0.960   9.000   3.411
 6302WAT     H219149   1.076   8.907   3.345
 6303WAT      O19150   1.463   4.289   2.940
 6303WAT     H119151   1.469   4.265   2.843
 6303WAT     H219152   1.434   4.208   2.992
 6304WAT      O19153   2.863   5.803   1.084
 6304WAT     H119154   2.916   5.775   1.164
 6304WAT     H219155   2.816   5.889   1.104
 6305WAT      O19156   4.166   9.304   2.545
 6305WAT     H119157   4.242   9.263   2.495
 6305WAT     H219158   4.084   9.247   2.534
 6306WAT      O19159   8.394   1.331   1.998
 6306WAT     H119160   8.319   1.380   2.042
 6306WAT     H219161   8.416   1.375   1.910
 6307WAT      O19162   0.781   3.653   5.988
 6307WAT     H119163   0.707   3.714   5.958
 6307WAT     H219164   0.862   3.670   5.932
 6308WAT      O19165   5.782   6.934   6.381
 6308WAT     H119166   5.723   6.960   6.457
 6308WAT     H219167   5.867   6.987   6.385
 6309WAT      O19168   2.788   9.522   3.928
 6309WAT     H119169   2.710   9.575   3.893
 6309WAT     H219170   2.803   9.545   4.024
 6310WAT      O19171   7.287   2.719   1.808
 6310WAT     H119172   7.242   2.630   1.814
 6310WAT     H219173   7.255   2.778   1.882
 6311WAT      O19174   0.764   3.177   9.699
 6311WAT     H119175   0.770   3.267   9.656
 6311WAT     H219176   0.852   3.130   9.692
 6312WAT      O19177   7.417   8.520   8.652
 6312WAT     H119178   7.492   8.567   8.700
 6312WAT     H219179   7.382   8.446   8.709
 6313WAT      O19180   1.144   5.801   1.372
 6313WAT     H119181   1.108   5.883   1.417
 6313WAT     H219182   1.079   5.770   1.303
 6314WAT      O19183   6.500   1.098   8.546
 6314WAT     H119184   6.449   1.184   8.560
 6314WAT     H219185   6.559   1.107   8.466
 6315WAT      O19186   8.778   6.613   2.048
 6315WAT     H119187   8.712   6.569   1.987
 6315WAT     H219188   8.773   6.572   2.139
 6316WAT      O19189   5.929   2.271   4.019
 6316WAT     H119190   5.992   2.221   3.960
 6316WAT     H219191   5.891   2.349   3.970
 6317WAT      O19192   7.154   2.800   4.492
 6317WAT     H119193   7.106   2.766   4.573
 6317WAT     H219194   7.096   2.866   4.444
 6318WAT      O19195   3.479   8.768   2.344
 6318WAT     H119196   3.416   8.712   2.291
 6318WAT     H219197   3.476   8.862   2.313
 6319WAT      O19198   7.084   8.052   3.776
 6319WAT     H119199   7.037   8.121   3.831
 6319WAT     H219200   7.180   8.078   3.766
 6320WAT      O19201   8.459   8.491   6.925
 6320WAT     H119202   8.559   8.483   6.925
 6320WAT     H219203   8.424   8.458   7.013
 6321WAT      O19204   3.765   3.156   0.571
 6321WAT     H119205   3.851   3.107   0.583
 6321WAT     H219206   3.708   3.144   0.652
 6322WAT      O19207   6.243   4.125   2.750
 6322WAT     H119208   6.189   4.204   2.721
 6322WAT     H219209   6.301   4.151   2.827
 6323WAT      O19210   1.852   1.891   0.351
 6323WAT     H119211   1.860   1.991   0.358
 6323WAT     H219212   1.943   1.850   0.358
 6324WAT      O19213   1.722   4.489   3.206
 6324WAT     H119214   1.816   4.499   3.238
 6324WAT     H219215   1.673   4.426   3.266
 6325WAT      O19216   9.477   1.912   5.132
 6325WAT     H119217   9.439   1.999   5.161
 6325WAT     H219218   9.521   1.923   5.043
 6326WAT      O19219   0.477   0.444   5.367
 6326WAT     H119220   0.516   0.518   5.422
 6326WAT     H219221   0.550   0.394   5.321
 6327WAT      O19222   5.775   9.065   9.272
 6327WAT     H119223   5.763   9.059   9.173
 6327WAT     H219224   5.813   9.154   9.296
 6328WAT      O19225   4.883   6.599   5.026
 6328WAT     H119226   4.958   6.663   5.010
 6328WAT     H219227   4.796   6.646   5.013
 6329WAT      O19228   6.744   0.153   9.177
 6329WAT     H119229   6.680   0.080   9.201
 6329WAT     H219230   6.752   0.159   9.077
 6330WAT      O19231   6.887   6.870   3.891
 6330WAT     H119232   6.968   6.832   3.846
 6330WAT     H219233   6.856   6.951   3.843
 6331WAT      O19234   4.164   6.930   9.771
 6331WAT     H119235   4.197   6.959   9.860
 6331WAT     H219236   4.239   6.886   9.720
 6332WAT      O19237   5.569   3.880   7.456
 6332WAT     H119238   5.473   3.907   7.449
 6332WAT     H219239   5.580   3.817   7.533
 6333WAT      O19240   4.077   0.331   9.273
 6333WAT     H119241   3.997   0.376   9.313
 6333WAT     H219242   4.107   0.381   9.192
 6334WAT      O19243   6.410   1.526   8.108
 6334WAT     H119244   6.448   1.446   8.154
 6334WAT     H219245   6.333   1.562   8.162
 6335WAT      O19246   8.611   1.717   9.719
 6335WAT     H119247   8.679   1.644   9.721
 6335WAT     H219248   8.657   1.805   9.708
 6336WAT      O19249   7.737   2.214   7.802
 6336WAT     H119250   7.763   2.290   7.861
 6336WAT     H219251   7.655   2.169   7.839
 6337WAT      O19252   1.731   3.486   9.036
 6337WAT     H119253   1.797   3.495   8.961
 6337WAT     H219254   1.672   3.407   9.019
 6338WAT      O19255   7.488   1.965   5.409
 6338WAT     H119256   7.513   1.941   5.503
 6338WAT     H219257   7.548   1.916   5.346
 6339WAT      O19258   1.423   7.795   8.998
 6339WAT     H119259   1.330   7.779   9.034
 6339WAT     H219260   1.450   7.717   8.941
 6340WAT      O19261   7.175   8.947   0.253
 6340WAT     H119262   7.205   9.015   0.186
 6340WAT     H219263   7.253   8.916   0.308
 6341WAT      O19264   6.383   5.222   0.261
 6341WAT     H119265   6.438   5.275   0.325
 6341WAT     H219266   6.417   5.128   0.257
 6342WAT      O19267   3.845   5.764   3.750
 6342WAT     H119268   3.935   5.733   3.722
 6342WAT     H219269   3.823   5.851   3.707
 6343WAT      O19270   2.967   2.209   2.927
 6343WAT     H119271   2.908   2.130   2.945
 6343WAT     H219272   2.995   2.250   3.014
 6344WAT      O19273   3.876   2.485   5.358
 6344WAT     H119274   3.779   2.461   5.360
 6344WAT     H219275   3.897   2.530   5.271
 6345WAT      O19276   0.539   4.633   0.020
 6345WAT     H119277   0.491   4.583  -0.051
 6345WAT     H219278   0.476   4.700   0.061
 6346WAT      O19279   5.803   7.388   6.799
 6346WAT     H119280   5.726   7.450   6.785
 6346WAT     H219281   5.829   7.345   6.713
 6347WAT      O19282   8.293   0.809   7.190
 6347WAT     H119283   8.242   0.797   7.275
 6347WAT     H219284   8.237   0.778   7.113
 6348WAT      O19285   2.890   2.215   1.831
 6348WAT     H119286   2.972   2.271   1.819
 6348WAT     H219287   2.823   2.265   1.884
 6349WAT      O19288   5.780   4.913   6.369
 6349WAT     H119289   5.802   4.817   6.387
 6349WAT     H219290   5.687   4.919   6.332
 6350WAT      O19291   5.655   3.853   1.031
 6350WAT     H119292   5.691   3.774   0.982
 6350WAT     H219293   5.723   3.927   1.030
 6351WAT      O19294   2.470   1.741   9.059
 6351WAT     H119295   2.540   1.695   9.005
 6351WAT     H219296   2.434   1.678   9.128
 6352WAT      O19297   9.845   5.268   7.585
 6352WAT     H119298   9.792   5.206   7.527
 6352WAT     H219299   9.787   5.300   7.660
 6353WAT      O19300   9.555   2.612   1.562
 6353WAT     H119301   9.598   2.523   1.555
 6353WAT     H219302   9.609   2.680   1.512
 6354WAT      O19303   8.480   5.132   0.017
 6354WAT     H119304   8.475   5.077  -0.066
 6354WAT     H219305   8.554   5.198   0.010
 6355WAT      O19306   4.595   2.252   7.963
 6355WAT     H119307   4.553   2.176   8.012
 6355WAT     H219308   4.529   2.290   7.898
 6356WAT      O19309   5.628   1.323   8.355
 6356WAT     H119310   5.626   1.298   8.452
 6356WAT     H219311   5.539   1.304   8.314
 6357WAT      O19312   7.662   1.403   6.639
 6357WAT     H119313   7.748   1.453   6.646
 6357WAT     H219314   7.633   1.373   6.730
 6358WAT      O19315   5.850   0.164   9.823
 6358WAT     H119316   5.891   0.215   9.748
 6358WAT     H219317   5.818   0.075   9.789
 6359WAT      O19318   8.804   3.417   8.101
 6359WAT     H119319   8.756   3.345   8.050
 6359WAT     H219320   8.768   3.422   8.194
 6360WAT      O19321   4.486   5.413   7.382
 6360WAT     H119322   4.422   5.490   7.391
 6360WAT     H219323   4.577   5.448   7.360
 6361WAT      O19324   1.042   6.330   7.188
 6361WAT     H119325   1.111   6.259   7.201
 6361WAT     H219326   1.060   6.379   7.102
 6362WAT      O19327   9.703   9.511   8.359
 6362WAT     H119328   9.764   9.588   8.377
 6362WAT     H219329   9.757   9.426   8.359
 6363WAT      O19330   4.235   9.795   1.283
 6363WAT     H119331   4.190   9.867   1.336
 6363WAT     H219332   4.209   9.803   1.187
 6364WAT      O19333   1.703   5.122   4.929
 6364WAT     H119334   1.663   5.095   4.841
 6364WAT     H219335   1.803   5.126   4.919
 6365WAT      O19336   1.598   8.939   8.901
 6365WAT     H119337   1.659   8.866   8.929
 6365WAT     H219338   1.519   8.943   8.962
 6366WAT      O19339   5.164   9.381   1.164
 6366WAT     H119340   5.150   9.466   1.214
 6366WAT     H219341   5.209   9.314   1.223
 6367WAT      O19342   5.719   8.035   9.533
 6367WAT     H119343   5.793   8.101   9.533
 6367WAT     H219344   5.744   7.957   9.476
 6368WAT      O19345   9.465   9.641   8.457
 6368WAT     H119346   9.535   9.577   8.427
 6368WAT     H219347   9.379   9.592   8.471
 6369WAT      O19348   3.300   7.597   0.237
 6369WAT     H119349   3.324   7.565   0.328
 6369WAT     H219350   3.280   7.695   0.240
 6370WAT      O19351   8.282   8.433   8.432
 6370WAT     H119352   8.317   8.514   8.386
 6370WAT     H219353   8.255   8.455   8.526
 6371WAT      O19354   3.220   5.987   6.573
 6371WAT     H119355   3.200   5.955   6.480
 6371WAT     H219356   3.171   5.930   6.639
 6372WAT      O19357   1.462   8.653   7.008
 6372WAT     H119358   1.418   8.737   7.041
 6372WAT     H219359   1.505   8.606   7.085
 6373WAT      O19360   4.363   4.888   0.827
 6373WAT     H119361   4.425   4.831   0.881
 6373WAT     H219362   4.268   4.866   0.850
 6374WAT      O19363   4.952   9.334   3.645
 6374WAT     H119364   4.927   9.346   3.549
 6374WAT     H219365   4.875   9.294   3.695
 6375WAT      O19366   8.900   8.236   7.979
 6375WAT     H119367   8.953   8.317   8.004
 6375WAT     H219368   8.961   8.157   7.973
 6376WAT      O19369   6.141   2.176   7.350
 6376WAT     H119370   6.236   2.149   7.366
 6376WAT     H219371   6.081   2.096   7.359
 6377WAT      O19372   8.226   4.654   3.633
 6377WAT     H119373   8.229   4.561   3.671
 6377WAT     H219374   8.131   4.684   3.625
 6378WAT      O19375   1.215   3.926   0.726
 6378WAT     H119376   1.294   3.975   0.764
 6378WAT     H219377   1.235   3.828   0.725
 6379WAT      O19378   4.163   9.156   9.564
 6379WAT     H119379   4.135   9.112   9.478
 6379WAT     H219380   4.245   9.211   9.548
 6380WAT      O19381   2.537   4.418   7.885
 6380WAT     H119382   2.558   4.378   7.795
 6380WAT     H219383   2.537   4.518   7.878
 6381WAT      O19384   9.047   3.683   4.455
 6381WAT     H119385   9.095   3.709   4.371
 6381WAT     H219386   9.009   3.766   4.498
 6382WAT      O19387   4.022   4.632   7.476
 6382WAT     H119388   4.089   4.604   7.408
 6382WAT     H219389   3.929   4.619   7.440
 6383WAT      O19390   7.963   2.653   9.856
 6383WAT     H119391   7.889   2.672   9.792
 6383WAT     H219392   7.957   2.557   9.886
 6384WAT      O19393   8.890   3.504   0.267
 6384WAT     H119394   8.979   3.458   0.258
 6384WAT     H219395   8.820   3.449   0.221
 6385WAT      O19396   0.487   9.519   0.267
 6385WAT     H119397   0.474   9.422   0.251
 6385WAT     H219398   0.431   9.571   0.202
 6386WAT      O19399   8.327   0.657   8.888
 6386WAT     H119400   8.250   0.646   8.952
 6386WAT     H219401   8.389   0.727   8.922
 6387WAT      O19402   0.681   5.117   4.210
 6387WAT     H119403   0.661   5.068   4.294
 6387WAT     H219404   0.780   5.130   4.202
 6388WAT      O19405   7.515   3.133   4.597
 6388WAT     H119406   7.484   3.211   4.543
 6388WAT     H219407   7.441   3.066   4.603
 6389WAT      O19408   7.213   7.400   7.644
 6389WAT     H119409   7.282   7.462   7.607
 6389WAT     H219410   7.220   7.397   7.744
 6390WAT      O19411   9.856   3.855   0.438
 6390WAT     H119412   9.796   3.827   0.513
 6390WAT     H219413   9.945   3.882   0.475
 6391WAT      O19414   9.127   3.988   1.476
 6391WAT     H119415   9.032   4.012   1.495
 6391WAT     H219416   9.171   3.954   1.559
 6392WAT      O19417   8.543   1.881   2.754
 6392WAT     H119418   8.499   1.832   2.829
 6392WAT     H219419   8.642   1.882   2.768
 6393WAT      O19420   9.157   8.556   1.213
 6393WAT     H119421   9.083   8.622   1.226
 6393WAT     H219422   9.195   8.530   1.302
 6394WAT      O19423   3.341   2.391   5.214
 6394WAT     H119424   3.421   2.404   5.272
 6394WAT     H219425   3.307   2.480   5.183
 6395WAT      O19426   6.120   9.207   8.330
 6395WAT     H119427   6.198   9.184   8.387
 6395WAT     H219428   6.116   9.143   8.253
 6396WAT      O19429   4.580   5.921   1.297
 6396WAT     H119430   4.577   5.839   1.240
 6396WAT     H219431   4.662   5.918   1.354
 6397WAT      O19432   0.639   3.670   1.383
 6397WAT     H119433   0.724   3.672   1.435
 6397WAT     H219434   0.584   3.591   1.412
 6398WAT      O19435   1.159   4.378   2.492
 6398WAT     H119436   1.149   4.415   2.400
 6398WAT     H219437   1.232   4.309   2.494
 6399WAT      O19438   1.121   5.726   7.755
 6399WAT     H119439   1.038   5.734   7.700
 6399WAT     H219440   1.100   5.678   7.840
 6400WAT      O19441   1.325   9.228   1.235
 6400WAT     H119442   1.400   9.279   1.276
 6400WAT     H219443   1.361   9.151   1.182
 6401WAT      O19444   9.459   2.954   5.508
 6401WAT     H119445   9.400   3.000   5.575
 6401WAT     H219446   9.434   2.857   5.503
 6402WAT      O19447   3.255   8.991   0.440
 6402WAT     H119448   3.345   8.958   0.468
 6402WAT     H219449   3.204   8.917   0.397
 6403WAT      O19450   1.867   4.445   8.812
 6403WAT     H119451   1.909   4.398   8.734
 6403WAT     H219452   1.817   4.379   8.868
 6404WAT      O19453   3.026   7.566   8.421
 6404WAT     H119454   3.016   7.491   8.486
 6404WAT     H219455   3.119   7.602   8.426
 6405WAT      O19456   2.136   3.917   2.212
 6405WAT     H119457   2.085   3.853   2.155
 6405WAT     H219458   2.178   3.868   2.288
 6406WAT      O19459   3.539   9.193   8.615
 6406WAT     H119460   3.525   9.227   8.708
 6406WAT     H219461   3.506   9.099   8.608
 6407WAT      O19462   3.994   2.887   2.830
 6407WAT     H119463   3.953   2.929   2.749
 6407WAT     H219464   3.921   2.855   2.891
 6408WAT      O19465   6.165   7.999   0.761
 6408WAT     H119466   6.139   7.995   0.665
 6408WAT     H219467   6.097   7.952   0.816
 6409WAT      O19468   7.230   6.133   1.711
 6409WAT     H119469   7.130   6.127   1.708
 6409WAT     H219470   7.269   6.060   1.655
 6410WAT      O19471   9.768   3.428   3.729
 6410WAT     H119472   9.751   3.358   3.799
 6410WAT     H219473   9.825   3.500   3.768
 6411WAT      O19474   5.521   2.129   8.548
 6411WAT     H119475   5.541   2.203   8.483
 6411WAT     H219476   5.606   2.091   8.583
 6412WAT      O19477   3.828   7.334   3.180
 6412WAT     H119478   3.800   7.426   3.207
 6412WAT     H219479   3.843   7.332   3.081
 6413WAT      O19480   9.103   5.408   4.727
 6413WAT     H119481   9.114   5.480   4.796
 6413WAT     H219482   9.138   5.441   4.639
 6414WAT      O19483   3.118   8.984   6.617
 6414WAT     H119484   3.112   9.007   6.520
 6414WAT     H219485   3.037   8.930   6.642
 6415WAT      O19486   6.044   6.208   3.174
 6415WAT     H119487   6.095   6.291   3.150
 6415WAT     H219488   6.093   6.128   3.140
 6416WAT      O19489   5.265   3.794   2.478
 6416WAT     H119490   5.274   3.754   2.569
 6416WAT     H219491   5.330   3.870   2.470
 6417WAT      O19492   9.243   2.291   7.423
 6417WAT     H119493   9.271   2.387   7.417
 6417WAT     H219494   9.324   2.234   7.436
 6418WAT      O19495   9.337   8.971   1.663
 6418WAT     H119496   9.259   8.966   1.725
 6418WAT     H219497   9.345   9.063   1.626
 6419WAT      O19498   0.070   9.528   8.870
 6419WAT     H119499   0.087   9.598   8.802
 6419WAT     H219500   0.003   9.562   8.937
 6420WAT      O19501   7.254   7.796   2.168
 6420WAT     H119502   7.287   7.761   2.256
 6420WAT     H219503   7.155   7.811   2.173
 6421WAT      O19504   4.366   1.235   2.978
 6421WAT     H119505   4.427   1.270   3.050
 6421WAT     H219506   4.388   1.140   2.958
 6422WAT      O19507   0.615   2.925   7.641
 6422WAT     H119508   0.650   2.993   7.705
 6422WAT     H219509   0.680   2.850   7.632
 6423WAT      O19510   8.888   6.419   0.314
 6423WAT     H119511   8.811   6.355   0.311
 6423WAT     H219512   8.875   6.483   0.390
 6424WAT      O19513   0.236   6.197   7.955
 6424WAT     H119514   0.240   6.297   7.964
 6424WAT     H219515   0.279   6.170   7.870
 6425WAT      O19516   4.050   0.547   1.524
 6425WAT     H119517   4.027   0.630   1.474
 6425WAT     H219518   4.128   0.564   1.584
 6426WAT      O19519   8.286   7.792   7.416
 6426WAT     H119520   8.295   7.860   7.488
 6426WAT     H219521   8.271   7.702   7.456
 6427WAT      O19522   1.334   4.450   3.265
 6427WAT     H119523   1.379   4.493   3.186
 6427WAT     H219524   1.395   4.455   3.344
 6428WAT      O19525   0.710   4.602   4.520
 6428WAT     H119526   0.638   4.571   4.583
 6428WAT     H219527   0.723   4.701   4.532
 6429WAT      O19528   6.500   5.661   0.633
 6429WAT     H119529   6.428   5.717   0.592
 6429WAT     H219530   6.494   5.667   0.732
 6430WAT      O19531   5.597   7.762   3.321
 6430WAT     H119532   5.576   7.673   3.362
 6430WAT     H219533   5.560   7.765   3.228
 6431WAT      O19534   0.490   5.010   7.867
 6431WAT     H119535   0.486   4.911   7.880
 6431WAT     H219536   0.550   5.051   7.936
 6432WAT      O19537   5.585   7.749   1.787
 6432WAT     H119538   5.556   7.793   1.872
 6432WAT     H219539   5.656   7.804   1.744
 6433WAT      O19540   5.256   5.193   3.598
 6433WAT     H119541   5.356   5.191   3.598
 6433WAT     H219542   5.221   5.124   3.534
 6434WAT      O19543   2.040   9.648   2.693
 6434WAT     H119544   2.104   9.663   2.618
 6434WAT     H219545   1.962   9.594   2.660
 6435WAT      O19546   6.058   1.409   3.508
 6435WAT     H119547   6.115   1.395   3.427
 6435WAT     H219548   5.965   1.434   3.479
 6436WAT      O19549   6.730   0.583   4.956
 6436WAT     H119550   6.687   0.530   5.029
 6436WAT     H219551   6.659   0.617   4.893
 6437WAT      O19552   0.780   5.592   6.306
 6437WAT     H119553   0.711   5.527   6.277
 6437WAT     H219554   0.866   5.572   6.259
 6438WAT      O19555   9.466   9.445   4.064
 6438WAT     H119556   9.471   9.388   4.146
 6438WAT     H219557   9.374   9.441   4.026
 6439WAT      O19558   6.640   8.207   2.239
 6439WAT     H119559   6.558   8.168   2.280
 6439WAT     H219560   6.627   8.305   2.225
 6440WAT      O19561   4.338   6.034   0.641
 6440WAT     H119562   4.291   6.079   0.717
 6440WAT     H219563   4.274   5.976   0.592
 6441WAT      O19564   7.448   9.045   6.028
 6441WAT     H119565   7.442   9.047   6.127
 6441WAT     H219566   7.356   9.056   5.988
 6442WAT      O19567   2.818   6.541   3.628
 6442WAT     H119568   2.785   6.625   3.671
 6442WAT     H219569   2.744   6.474   3.625
 6443WAT      O19570   8.841   8.824   2.850
 6443WAT     H119571   8.761   8.765   2.839
 6443WAT     H219572   8.818   8.901   2.909
 6444WAT      O19573   8.034   2.089   5.655
 6444WAT     H119574   8.049   2.126   5.747
 6444WAT     H219575   8.121   2.055   5.619
 6445WAT      O19576   2.706   9.596   8.219
 6445WAT     H119577   2.651   9.617   8.139
 6445WAT     H219578   2.799   9.573   8.191
 6446WAT      O19579   2.517   7.057   0.641
 6446WAT     H119580   2.559   7.101   0.721
 6446WAT     H219581   2.430   7.015   0.668
 6447WAT      O19582   4.137   2.659   4.938
 6447WAT     H119583   4.114   2.756   4.927
 6447WAT     H219584   4.233   2.645   4.916
 6448WAT      O19585   7.051   3.684   0.758
 6448WAT     H119586   6.998   3.711   0.678
 6448WAT     H219587   6.990   3.641   0.825
 6449WAT      O19588   6.558   3.407   3.029
 6449WAT     H119589   6.617   3.330   3.002
 6449WAT     H219590   6.465   3.390   2.996
 6450WAT      O19591   9.723   8.839   5.280
 6450WAT     H119592   9.681   8.821   5.369
 6450WAT     H219593   9.670   8.793   5.208
 6451WAT      O19594   8.958   1.479   0.304
 6451WAT     H119595   8.946   1.506   0.208
 6451WAT     H219596   8.946   1.559   0.363
 6452WAT      O19597   4.787   0.485   9.341
 6452WAT     H119598   4.839   0.447   9.265
 6452WAT     H219599   4.782   0.418   9.415
 6453WAT      O19600   2.212   6.764   5.825
 6453WAT     H119601   2.252   6.810   5.745
 6453WAT     H219602   2.117   6.792   5.835
 6454WAT      O19603   6.958   3.411   5.977
 6454WAT     H119604   6.873   3.367   6.006
 6454WAT     H219605   6.938   3.504   5.945
 6455WAT      O19606   8.381   7.431   3.830
 6455WAT     H119607   8.428   7.514   3.861
 6455WAT     H219608   8.369   7.435   3.731
 6456WAT      O19609   0.056   6.117   7.596
 6456WAT     H119610   0.019   6.115   7.503
 6456WAT     H219611   0.156   6.118   7.592
 6457WAT      O19612   2.007   5.822   1.256
 6457WAT     H119613   1.945   5.744   1.247
 6457WAT     H219614   1.954   5.905   1.274
 6458WAT      O19615   2.319   8.274   8.812
 6458WAT     H119616   2.280   8.226   8.734
 6458WAT     H219617   2.288   8.369   8.812
 6459WAT      O19618   9.129   8.064   1.702
 6459WAT     H119619   9.171   8.130   1.764
 6459WAT     H219620   9.059   8.011   1.751
 6460WAT      O19621   5.508   3.014   9.235
 6460WAT     H119622   5.501   3.101   9.284
 6460WAT     H219623   5.500   3.030   9.136
 6461WAT      O19624   1.489   8.186   9.828
 6461WAT     H119625   1.411   8.243   9.801
 6461WAT     H219626   1.570   8.242   9.839
 6462WAT      O19627   0.619   9.278   4.123
 6462WAT     H119628   0.586   9.372   4.109
 6462WAT     H219629   0.703   9.281   4.177
 6463WAT      O19630   3.377   8.806   8.316
 6463WAT     H119631   3.404   8.831   8.224
 6463WAT     H219632   3.368   8.888   8.373
 6464WAT      O19633   6.238   1.883   6.482
 6464WAT     H119634   6.223   1.939   6.400
 6464WAT     H219635   6.208   1.934   6.563
 6465WAT      O19636   9.861   9.319   3.327
 6465WAT     H119637   9.764   9.298   3.333
 6465WAT     H219638   9.913   9.234   3.317
 6466WAT      O19639   4.452   6.826   3.182
 6466WAT     H119640   4.408   6.786   3.263
 6466WAT     H219641   4.548   6.843   3.201
 6467WAT      O19642   7.386   2.514   5.974
 6467WAT     H119643   7.381   2.532   6.072
 6467WAT     H219644   7.347   2.591   5.924
 6468WAT      O19645   5.703   6.836   9.129
 6468WAT     H119646   5.613   6.823   9.170
 6468WAT     H219647   5.694   6.832   9.029
 6469WAT      O19648   7.579   4.844   6.397
 6469WAT     H119649   7.617   4.752   6.407
 6469WAT     H219650   7.649   4.911   6.421
 6470WAT      O19651   4.591   1.234   1.790
 6470WAT     H119652   4.690   1.243   1.799
 6470WAT     H219653   4.568   1.154   1.735
 6471WAT      O19654   0.857   8.896   7.525
 6471WAT     H119655   0.809   8.853   7.601
 6471WAT     H219656   0.851   8.837   7.444
 6472WAT      O19657   4.478   4.673   8.056
 6472WAT     H119658   4.499   4.577   8.073
 6472WAT     H219659   4.531   4.705   7.977
 6473WAT      O19660   3.904   9.695   8.394
 6473WAT     H119661   3.832   9.668   8.330
 6473WAT     H219662   3.925   9.792   8.381
 6474WAT      O19663   4.919   3.068   5.635
 6474WAT     H119664   4.910   2.976   5.674
 6474WAT     H219665   4.963   3.061   5.546
 6475WAT      O19666   4.245   2.363   4.413
 6475WAT     H119667   4.207   2.437   4.359
 6475WAT     H219668   4.311   2.399   4.479
 6476WAT      O19669   0.938   8.410   2.637
 6476WAT     H119670   0.900   8.444   2.551
 6476WAT     H219671   1.014   8.348   2.618
 6477WAT      O19672   2.032   7.266   5.536
 6477WAT     H119673   2.011   7.217   5.621
 6477WAT     H219674   2.001   7.213   5.458
 6478WAT      O19675   5.305   5.615   9.211
 6478WAT     H119676   5.226   5.553   9.219
 6478WAT     H219677   5.281   5.704   9.248
 6479WAT      O19678   7.955   2.537   3.600
 6479WAT     H119679   7.982   2.486   3.519
 6479WAT     H219680   8.034   2.587   3.637
 6480WAT      O19681   5.442   6.404   6.531
 6480WAT     H119682   5.380   6.418   6.608
 6480WAT     H219683   5.536   6.417   6.561
 6481WAT      O19684   6.106   5.253   8.173
 6481WAT     H119685   6.084   5.242   8.270
 6481WAT     H219686   6.195   5.297   8.164
 6482WAT      O19687   3.294   4.991   0.485
 6482WAT     H119688   3.217   4.960   0.541
 6482WAT     H219689   3.273   4.978   0.388
 6483WAT      O19690   2.291   6.864   0.008
 6483WAT     H119691   2.214   6.827  -0.045
 6483WAT     H219692   2.377   6.837  -0.036
 6484WAT      O19693   6.631   2.922   3.209
 6484WAT     H119694   6.646   2.982   3.288
 6484WAT     H219695   6.684   2.955   3.131
 6485WAT      O19696   8.509   6.154   1.272
 6485WAT     H119697   8.420   6.132   1.311
 6485WAT     H219698   8.512   6.127   1.176
 6486WAT      O19699   6.063   3.493   0.994
 6486WAT     H119700   6.076   3.402   1.033
 6486WAT     H219701   6.139   3.552   1.021
 6487WAT      O19702   2.558   9.326   6.009
 6487WAT     H119703   2.465   9.303   5.981
 6487WAT     H219704   2.568   9.425   6.015
 6488WAT      O19705   3.860   8.907   4.576
 6488WAT     H119706   3.838   8.995   4.535
 6488WAT     H219707   3.958   8.890   4.569
 6489WAT      O19708   4.793   0.670   1.109
 6489WAT     H119709   4.759   0.581   1.138
 6489WAT     H219710   4.847   0.712   1.183
 6490WAT      O19711   5.022   5.141   1.356
 6490WAT     H119712   4.991   5.220   1.410
 6490WAT     H219713   5.095   5.170   1.294
 6491WAT      O19714   6.669   7.848   1.928
 6491WAT     H119715   6.737   7.885   1.865
 6491WAT     H219716   6.587   7.822   1.877
 6492WAT      O19717   7.796   1.878   0.591
 6492WAT     H119718   7.803   1.859   0.494
 6492WAT     H219719   7.769   1.795   0.640
 6493WAT      O19720   8.793   1.001   3.062
 6493WAT     H119721   8.735   1.049   3.128
 6493WAT     H219722   8.843   1.067   3.007
 6494WAT      O19723   5.578   0.251   9.788
 6494WAT     H119724   5.568   0.347   9.764
 6494WAT     H219725   5.668   0.236   9.829
 6495WAT      O19726   4.428   8.876   4.237
 6495WAT     H119727   4.467   8.845   4.324
 6495WAT     H219728   4.385   8.798   4.191
 6496WAT      O19729   5.700   0.100   1.876
 6496WAT     H119730   5.671   0.022   1.931
 6496WAT     H219731   5.627   0.125   1.812
 6497WAT      O19732   0.775   0.581   7.686
 6497WAT     H119733   0.762   0.628   7.599
 6497WAT     H219734   0.773   0.482   7.671
 6498WAT      O19735   7.268   1.626   2.280
 6498WAT     H119736   7.362   1.634   2.313
 6498WAT     H219737   7.268   1.628   2.180
 6499WAT      O19738   7.063   8.235   8.206
 6499WAT     H119739   7.091   8.205   8.296
 6499WAT     H219740   7.068   8.335   8.200
 6500WAT      O19741   6.284   8.414   3.616
 6500WAT     H119742   6.349   8.357   3.567
 6500WAT     H219743   6.259   8.370   3.702
 6501WAT      O19744   6.056   6.853   5.200
 6501WAT     H119745   5.996   6.801   5.139
 6501WAT     H219746   6.099   6.791   5.266
 6502WAT      O19747   0.967   0.479   1.170
 6502WAT     H119748   0.945   0.383   1.149
 6502WAT     H219749   0.983   0.529   1.084
 6503WAT      O19750   4.583   6.721   8.799
 6503WAT     H119751   4.626   6.644   8.847
 6503WAT     H219752   4.629   6.736   8.712
 6504WAT      O19753   9.084   2.416   1.286
 6504WAT     H119754   9.036   2.330   1.303
 6504WAT     H219755   9.182   2.403   1.297
 6505WAT      O19756   6.110   3.106   2.252
 6505WAT     H119757   6.209   3.098   2.243
 6505WAT     H219758   6.085   3.099   2.349
 6506WAT      O19759   5.430   1.013   1.198
 6506WAT     H119760   5.526   1.019   1.225
 6506WAT     H219761   5.425   0.993   1.100
 6507WAT      O19762   3.388   7.746   9.366
 6507WAT     H119763   3.340   7.687   9.300
 6507WAT     H219764   3.430   7.822   9.318
 6508WAT      O19765   7.576   7.308   8.999
 6508WAT     H119766   7.539   7.249   8.926
 6508WAT     H219767   7.667   7.276   9.025
 6509WAT      O19768   6.578   9.530   1.076
 6509WAT     H119769   6.565   9.613   1.022
 6509WAT     H219770   6.602   9.555   1.170
 6510WAT      O19771   6.316   0.797   7.189
 6510WAT     H119772   6.311   0.702   7.219
 6510WAT     H219773   6.348   0.854   7.265
 6511WAT      O19774   0.099   7.458   0.301
 6511WAT     H119775   0.097   7.363   0.269
 6511WAT     H219776   0.173   7.469   0.367
 6512WAT      O19777   7.439   5.940   1.568
 6512WAT     H119778   7.462   5.955   1.472
 6512WAT     H219779   7.369   5.868   1.575
 6513WAT      O19780   1.959   8.988   6.903
 6513WAT     H119781   1.976   9.053   6.976
 6513WAT     H219782   2.013   9.012   6.823
 6514WAT      O19783   7.110   5.580   2.854
 6514WAT     H119784   7.150   5.515   2.920
 6514WAT     H219785   7.020   5.546   2.826
 6515WAT      O19786   5.680   0.528   3.042
 6515WAT     H119787   5.629   0.609   3.014
 6515WAT     H219788   5.763   0.555   3.090
 6516WAT      O19789   2.555   0.335   2.127
 6516WAT     H119790   2.653   0.320   2.114
 6516WAT     H219791   2.534   0.335   2.225
 6517WAT      O19792   9.670   5.877   3.418
 6517WAT     H119793   9.640   5.785   3.393
 6517WAT     H219794   9.630   5.944   3.355
 6518WAT      O19795   2.645   0.271   3.105
 6518WAT     H119796   2.699   0.353   3.085
 6518WAT     H219797   2.602   0.239   3.021
 6519WAT      O19798   7.411   7.893   3.197
 6519WAT     H119799   7.367   7.879   3.285
 6519WAT     H219800   7.510   7.879   3.205
 6520WAT      O19801   1.950   9.538   0.408
 6520WAT     H119802   1.935   9.521   0.311
 6520WAT     H219803   2.018   9.473   0.443
 6521WAT      O19804   0.277   3.232   3.810
 6521WAT     H119805   0.294   3.328   3.833
 6521WAT     H219806   0.185   3.223   3.772
 6522WAT      O19807   0.303   3.857   3.726
 6522WAT     H119808   0.306   3.768   3.679
 6522WAT     H219809   0.225   3.910   3.692
 6523WAT      O19810   4.447   4.141   6.269
 6523WAT     H119811   4.453   4.106   6.176
 6523WAT     H219812   4.509   4.218   6.280
 6524WAT      O19813   3.267   1.680   6.440
 6524WAT     H119814   3.297   1.613   6.372
 6524WAT     H219815   3.210   1.635   6.509
 6525WAT      O19816   0.318   5.500   4.978
 6525WAT     H119817   0.327   5.469   4.883
 6525WAT     H219818   0.382   5.450   5.036
 6526WAT      O19819   4.328   1.563   7.193
 6526WAT     H119820   4.280   1.622   7.129
 6526WAT     H219821   4.385   1.498   7.142
 6527WAT      O19822   6.139   6.984   8.619
 6527WAT     H119823   6.073   7.047   8.661
 6527WAT     H219824   6.120   6.891   8.649
 6528WAT      O19825   8.740   2.728   1.049
 6528WAT     H119826   8.790   2.684   0.975
 6528WAT     H219827   8.771   2.823   1.059
 6529WAT      O19828   9.004   9.070   6.026
 6529WAT     H119829   8.965   9.142   5.970
 6529WAT     H219830   9.089   9.102   6.068
 6530WAT      O19831   8.873   4.889   1.095
 6530WAT     H119832   8.960   4.938   1.089
 6530WAT     H219833   8.886   4.804   1.147
 6531WAT      O19834   0.997   8.362   5.026
 6531WAT     H119835   0.921   8.427   5.025
 6531WAT     H219836   1.004   8.321   5.117
 6532WAT      O19837   4.283   2.791   2.199
 6532WAT     H119838   4.363   2.767   2.254
 6532WAT     H219839   4.252   2.710   2.148
 6533WAT      O19840   4.866   3.953   3.467
 6533WAT     H119841   4.952   3.906   3.487
 6533WAT     H219842   4.793   3.918   3.526
 6534WAT      O19843   9.323   5.286   8.334
 6534WAT     H119844   9.248   5.347   8.358
 6534WAT     H219845   9.347   5.300   8.238
 6535WAT      O19846   8.812   7.115   3.659
 6535WAT     H119847   8.806   7.016   3.671
 6535WAT     H219848   8.908   7.143   3.669
 6536WAT      O19849   4.624   9.463   9.082
 6536WAT     H119850   4.636   9.525   9.005
 6536WAT     H219851   4.547   9.495   9.138
 6537WAT      O19852   1.468   6.075   7.911
 6537WAT     H119853   1.407   5.996   7.907
 6537WAT     H219854   1.514   6.078   8.000
 6538WAT      O19855   7.464   0.750   5.902
 6538WAT     H119856   7.499   0.715   5.989
 6538WAT     H219857   7.406   0.682   5.859
 6539WAT      O19858   6.540   0.158   4.077
 6539WAT     H119859   6.477   0.081   4.067
 6539WAT     H219860   6.513   0.215   4.154
 6540WAT      O19861   5.190   7.765   9.167
 6540WAT     H119862   5.286   7.784   9.187
 6540WAT     H219863   5.157   7.691   9.226
 6541WAT      O19864   0.764   1.342   4.833
 6541WAT     H119865   0.706   1.421   4.812
 6541WAT     H219866   0.860   1.367   4.821
 6542WAT      O19867   4.506   5.474   7.719
 6542WAT     H119868   4.471   5.400   7.662
 6542WAT     H219869   4.606   5.479   7.710
 6543WAT      O19870   5.215   6.878   9.143
 6543WAT     H119871   5.283   6.808   9.122
 6543WAT     H219872   5.211   6.891   9.242
 6544WAT      O19873   1.283   2.765   3.476
 6544WAT     H119874   1.197   2.806   3.506
 6544WAT     H219875   1.307   2.690   3.537
 6545WAT      O19876   2.448   4.809   2.961
 6545WAT     H119877   2.367   4.830   2.905
 6545WAT     H219878   2.453   4.873   3.038
 6546WAT      O19879   0.374   4.396   2.453
 6546WAT     H119880   0.339   4.311   2.415
 6546WAT     H219881   0.456   4.378   2.507
 6547WAT      O19882   1.754   7.480   7.495
 6547WAT     H119883   1.840   7.495   7.446
 6547WAT     H219884   1.713   7.394   7.465
 6548WAT      O19885   2.878   3.027   9.483
 6548WAT     H119886   2.870   2.944   9.429
 6548WAT     H219887   2.974   3.048   9.499
 6549WAT      O19888   1.995   5.122   2.122
 6549WAT     H119889   2.012   5.219   2.106
 6549WAT     H219890   2.066   5.068   2.077
 6550WAT      O19891   1.505   4.843   6.648
 6550WAT     H119892   1.577   4.811   6.710
 6550WAT     H219893   1.452   4.914   6.694
 6551WAT      O19894   4.584   0.139   8.491
 6551WAT     H119895   4.504   0.082   8.473
 6551WAT     H219896   4.667   0.083   8.485
 6552WAT      O19897   8.290   6.965   7.922
 6552WAT     H119898   8.350   6.937   7.997
 6552WAT     H219899   8.195   6.949   7.947
 6553WAT      O19900   9.571   6.453   5.053
 6553WAT     H119901   9.496   6.485   4.995
 6553WAT     H219902   9.608   6.529   5.105
 6554WAT      O19903   4.634   4.463   4.327
 6554WAT     H119904   4.650   4.476   4.424
 6554WAT     H219905   4.535   4.451   4.311
 6555WAT      O19906   3.977   7.579   8.614
 6555WAT     H119907   4.054   7.529   8.655
 6555WAT     H219908   3.974   7.671   8.652
 6556WAT      O19909   7.512   4.857   9.366
 6556WAT     H119910   7.518   4.858   9.266
 6556WAT     H219911   7.435   4.914   9.395
 6557WAT      O19912   3.993   9.800   8.812
 6557WAT     H119913   4.078   9.852   8.799
 6557WAT     H219914   3.914   9.861   8.801
 6558WAT      O19915   2.247   6.449   9.591
 6558WAT     H119916   2.321   6.515   9.596
 6558WAT     H219917   2.203   6.455   9.501
 6559WAT      O19918   8.420   7.853   4.243
 6559WAT     H119919   8.439   7.887   4.335
 6559WAT     H219920   8.445   7.923   4.176
 6560WAT      O19921   4.837   5.974   9.560
 6560WAT     H119922   4.802   5.889   9.600
 6560WAT     H219923   4.775   6.003   9.487
 6561WAT      O19924   8.015   7.173   8.129
 6561WAT     H119925   8.036   7.077   8.114
 6561WAT     H219926   7.936   7.181   8.191
 6562WAT      O19927   2.248   0.514   6.995
 6562WAT     H119928   2.328   0.561   7.032
 6562WAT     H219929   2.273   0.419   6.973
 6563WAT      O19930   8.999   5.152   2.500
 6563WAT     H119931   9.068   5.195   2.442
 6563WAT     H219932   9.041   5.080   2.555
 6564WAT      O19933   2.543   6.570   8.005
 6564WAT     H119934   2.483   6.550   7.927
 6564WAT     H219935   2.621   6.508   8.003
 6565WAT      O19936   4.785   7.649   8.400
 6565WAT     H119937   4.807   7.600   8.484
 6565WAT     H219938   4.685   7.655   8.390
 6566WAT      O19939   8.737   0.218   2.827
 6566WAT     H119940   8.783   0.151   2.770
 6566WAT     H219941   8.652   0.247   2.783
 6567WAT      O19942   4.049   7.893   6.907
 6567WAT     H119943   3.980   7.867   6.840
 6567WAT     H219944   4.090   7.811   6.946
 6568WAT      O19945   5.691   4.943   4.004
 6568WAT     H119946   5.741   4.865   4.041
 6568WAT     H219947   5.686   4.935   3.904
 6569WAT      O19948   3.442   0.135   0.940
 6569WAT     H119949   3.402   0.047   0.915
 6569WAT     H219950   3.509   0.123   1.013
 6570WAT      O19951   3.471   0.159   8.872
 6570WAT     H119952   3.488   0.064   8.846
 6570WAT     H219953   3.381   0.187   8.840
 6571WAT      O19954   4.320   4.943   2.005
 6571WAT     H119955   4.415   4.937   2.036
 6571WAT     H219956   4.266   4.994   2.072
 6572WAT      O19957   8.919   3.947   9.320
 6572WAT     H119958   8.876   4.037   9.333
 6572WAT     H219959   8.974   3.926   9.401
 6573WAT      O19960   8.486   2.240   0.564
 6573WAT     H119961   8.463   2.338   0.560
 6573WAT     H219962   8.404   2.186   0.545
 6574WAT      O19963   9.790   3.741   7.287
 6574WAT     H119964   9.875   3.692   7.270
 6574WAT     H219965   9.716   3.675   7.301
 6575WAT      O19966   5.937   4.098   3.213
 6575WAT     H119967   5.840   4.089   3.191
 6575WAT     H219968   5.986   4.018   3.179
 6576WAT      O19969   3.911   0.028   4.890
 6576WAT     H119970   3.908  -0.062   4.933
 6576WAT     H219971   3.940   0.096   4.956
 6577WAT      O19972   4.536   9.440   6.206
 6577WAT     H119973   4.482   9.517   6.240
 6577WAT     H219974   4.550   9.374   6.280
 6578WAT      O19975   3.621   6.807   6.451
 6578WAT     H119976   3.529   6.844   6.464
 6578WAT     H219977   3.621   6.710   6.475
 6579WAT      O19978   4.305   3.554   6.463
 6579WAT     H119979   4.259   3.642   6.457
 6579WAT     H219980   4.402   3.565   6.443
 6580WAT      O19981   4.778   1.297   2.022
 6580WAT     H119982   4.729   1.258   2.100
 6580WAT     H219983   4.763   1.396   2.020
 6581WAT      O19984   5.110   8.088   2.328
 6581WAT     H119985   5.129   8.174   2.282
 6581WAT     H219986   5.038   8.101   2.396
 6582WAT      O19987   1.114   8.188   1.679
 6582WAT     H119988   1.181   8.244   1.727
 6582WAT     H219989   1.079   8.117   1.740
 6583WAT      O19990   6.688   7.311   1.219
 6583WAT     H119991   6.641   7.273   1.299
 6583WAT     H219992   6.674   7.251   1.140
 6584WAT      O19993   7.340   5.265   0.346
 6584WAT     H119994   7.400   5.298   0.273
 6584WAT     H219995   7.339   5.165   0.345
 6585WAT      O19996   0.265   6.399   5.853
 6585WAT     H119997   0.318   6.481   5.830
 6585WAT     H219998   0.184   6.394   5.794
 6586WAT      O19999   7.862   0.341   2.644
 6586WAT     H120000   7.907   0.425   2.673
 6586WAT     H220001   7.764   0.348   2.660
 6587WAT      O20002   9.155   4.919   4.654
 6587WAT     H120003   9.128   4.959   4.566
 6587WAT     H220004   9.208   4.986   4.706
 6588WAT      O20005   9.294   6.991   0.749
 6588WAT     H120006   9.368   6.924   0.752
 6588WAT     H220007   9.241   6.987   0.834
 6589WAT      O20008   8.148   5.300   4.143
 6589WAT     H120009   8.118   5.257   4.229
 6589WAT     H220010   8.133   5.237   4.067
 6590WAT      O20011   2.118   5.938   6.208
 6590WAT     H120012   2.104   5.965   6.303
 6590WAT     H220013   2.149   5.843   6.205
 6591WAT      O20014   8.328   9.841   4.710
 6591WAT     H120015   8.378   9.927   4.718
 6591WAT     H220016   8.356   9.780   4.784
 6592WAT      O20017   5.945   0.772   7.446
 6592WAT     H120018   5.976   0.860   7.481
 6592WAT     H220019   5.848   0.777   7.424
 6593WAT      O20020   3.993   9.113   2.446
 6593WAT     H120021   3.965   9.066   2.530
 6593WAT     H220022   3.928   9.185   2.424
 6594WAT      O20023   6.793   8.225   4.132
 6594WAT     H120024   6.693   8.221   4.135
 6594WAT     H220025   6.830   8.134   4.150
 6595WAT      O20026   4.756   3.446   7.576
 6595WAT     H120027   4.663   3.416   7.555
 6595WAT     H220028   4.816   3.424   7.500
 6596WAT      O20029   0.692   9.824   4.974
 6596WAT     H120030   0.730   9.874   4.896
 6596WAT     H220031   0.651   9.739   4.942
 6597WAT      O20032   2.562   3.344   6.224
 6597WAT     H120033   2.616   3.272   6.267
 6597WAT     H220034   2.622   3.407   6.176
 6598WAT      O20035   3.073   7.654   7.558
 6598WAT     H120036   3.006   7.598   7.606
 6598WAT     H220037   3.165   7.629   7.588
 6599WAT      O20038   7.905   0.380   2.312
 6599WAT     H120039   7.820   0.411   2.354
 6599WAT     H220040   7.938   0.450   2.249
 6600WAT      O20041   1.894   5.250   8.536
 6600WAT     H120042   1.925   5.333   8.490
 6600WAT     H220043   1.794   5.247   8.533
 6601WAT      O20044   6.433   0.496   2.211
 6601WAT     H120045   6.412   0.468   2.117
 6601WAT     H220046   6.350   0.531   2.255
 6602WAT      O20047   3.041   9.411   0.491
 6602WAT     H120048   2.993   9.437   0.407
 6602WAT     H220049   3.133   9.378   0.468
 6603WAT      O20050   9.604   0.807   2.423
 6603WAT     H120051   9.625   0.769   2.332
 6603WAT     H220052   9.648   0.896   2.433
 6604WAT      O20053   1.486   2.640   3.678
 6604WAT     H120054   1.558   2.639   3.609
 6604WAT     H220055   1.483   2.552   3.725
 6605WAT      O20056   4.962   0.988   7.794
 6605WAT     H120057   4.987   0.904   7.843
 6605WAT     H220058   4.995   0.982   7.700
 6606WAT      O20059   0.717   4.514   8.487
 6606WAT     H120060   0.653   4.492   8.413
 6606WAT     H220061   0.797   4.454   8.482
 6607WAT      O20062   0.948   9.395   6.291
 6607WAT     H120063   0.925   9.297   6.283
 6607WAT     H220064   1.006   9.410   6.370
 6608WAT      O20065   0.286   4.775   2.979
 6608WAT     H120066   0.306   4.706   3.049
 6608WAT     H220067   0.314   4.740   2.889
 6609WAT      O20068   8.630   0.345   5.088
 6609WAT     H120069   8.668   0.422   5.140
 6609WAT     H220070   8.650   0.357   4.991
 6610WAT      O20071   8.446   9.198   4.042
 6610WAT     H120072   8.421   9.115   4.092
 6610WAT     H220073   8.363   9.247   4.014
 6611WAT      O20074   1.681   5.335   0.268
 6611WAT     H120075   1.738   5.392   0.210
 6611WAT     H220076   1.652   5.387   0.349
 6612WAT      O20077   2.159   2.586   1.643
 6612WAT     H120078   2.073   2.577   1.691
 6612WAT     H220079   2.157   2.529   1.561
 6613WAT      O20080   0.152   3.386   0.087
 6613WAT     H120081   0.119   3.335   0.008
 6613WAT     H220082   0.134   3.484   0.074
 6614WAT      O20083   0.898   0.078   4.776
 6614WAT     H120084   0.970   0.086   4.845
 6614WAT     H220085   0.894  -0.016   4.742
 6615WAT      O20086   9.884   4.585   6.897
 6615WAT     H120087   9.899   4.499   6.946
 6615WAT     H220088   9.787   4.607   6.898
 6616WAT      O20089   0.811   0.340   5.903
 6616WAT     H120090   0.734   0.389   5.944
 6616WAT     H220091   0.786   0.309   5.811
 6617WAT      O20092   2.231   2.367   0.330
 6617WAT     H120093   2.205   2.272   0.309
 6617WAT     H220094   2.149   2.420   0.350
 6618WAT      O20095   6.349   8.530   5.907
 6618WAT     H120096   6.276   8.595   5.888
 6618WAT     H220097   6.416   8.572   5.968
 6619WAT      O20098   8.138   9.027   7.003
 6619WAT     H120099   8.213   8.986   7.055
 6619WAT     H220100   8.116   8.967   6.926
 6620WAT      O20101   5.307   8.339   3.432
 6620WAT     H120102   5.389   8.374   3.478
 6620WAT     H220103   5.262   8.271   3.490
 6621WAT      O20104   7.896   6.856   7.066
 6621WAT     H120105   7.824   6.862   6.998
 6621WAT     H220106   7.876   6.783   7.131
 6622WAT      O20107   9.541   8.328   1.192
 6622WAT     H120108   9.445   8.333   1.218
 6622WAT     H220109   9.595   8.387   1.252
 6623WAT      O20110   4.604   3.135   4.961
 6623WAT     H120111   4.654   3.205   5.013
 6623WAT     H220112   4.647   3.046   4.976
 6624WAT      O20113   0.303   1.289   4.439
 6624WAT     H120114   0.342   1.199   4.454
 6624WAT     H220115   0.296   1.307   4.340
 6625WAT      O20116   7.758   1.154   3.966
 6625WAT     H120117   7.687   1.111   3.911
 6625WAT     H220118   7.725   1.165   4.060
 6626WAT      O20119   7.935   5.333   8.987
 6626WAT     H120120   7.998   5.359   8.914
 6626WAT     H220121   7.907   5.237   8.974
 6627WAT      O20122   7.534   3.969   4.578
 6627WAT     H120123   7.563   4.051   4.628
 6627WAT     H220124   7.445   3.940   4.611
 6628WAT      O20125   0.393   7.942   8.413
 6628WAT     H120126   0.383   7.993   8.327
 6628WAT     H220127   0.349   7.993   8.487
 6629WAT      O20128   7.629   5.724   6.886
 6629WAT     H120129   7.667   5.654   6.825
 6629WAT     H220130   7.703   5.785   6.915
 6630WAT      O20131   6.088   6.601   2.249
 6630WAT     H120132   6.022   6.612   2.324
 6630WAT     H220133   6.086   6.683   2.191
 6631WAT      O20134   4.489   3.161   1.198
 6631WAT     H120135   4.421   3.136   1.267
 6631WAT     H220136   4.458   3.241   1.147
 6632WAT      O20137   6.836   9.348   6.319
 6632WAT     H120138   6.934   9.332   6.331
 6632WAT     H220139   6.822   9.410   6.241
 6633WAT      O20140   1.681   3.468   6.867
 6633WAT     H120141   1.656   3.377   6.899
 6633WAT     H220142   1.779   3.483   6.879
 6634WAT      O20143   8.436   7.343   7.312
 6634WAT     H120144   8.341   7.314   7.318
 6634WAT     H220145   8.441   7.430   7.262
 6635WAT      O20146   2.615   7.177   4.213
 6635WAT     H120147   2.572   7.232   4.141
 6635WAT     H220148   2.714   7.184   4.206
 6636WAT      O20149   7.798   5.131   4.115
 6636WAT     H120150   7.823   5.215   4.164
 6636WAT     H220151   7.701   5.134   4.092
 6637WAT      O20152   6.019   1.907   8.476
 6637WAT     H120153   5.981   1.884   8.387
 6637WAT     H220154   6.085   1.981   8.467
 6638WAT      O20155   7.317   7.273   6.848
 6638WAT     H120156   7.336   7.365   6.815
 6638WAT     H220157   7.278   7.218   6.774
 6639WAT      O20158   2.948   5.025   2.638
 6639WAT     H120159   2.863   4.992   2.597
 6639WAT     H220160   3.007   4.948   2.660
 6640WAT      O20161   9.203   0.073   2.275
 6640WAT     H120162   9.195  -0.021   2.241
 6640WAT     H220163   9.299   0.093   2.296
 6641WAT      O20164   3.411   0.838   0.591
 6641WAT     H120165   3.387   0.935   0.600
 6641WAT     H220166   3.446   0.804   0.678
 6642WAT      O20167   7.803   5.413   4.205
 6642WAT     H120168   7.720   5.439   4.254
 6642WAT     H220169   7.855   5.494   4.180
 6643WAT      O20170   8.704   7.402   7.118
 6643WAT     H120171   8.766   7.336   7.075
 6643WAT     H220172   8.612   7.363   7.124
 6644WAT      O20173   1.420   2.499   0.304
 6644WAT     H120174   1.320   2.500   0.305
 6644WAT     H220175   1.453   2.590   0.280
 6645WAT      O20176   1.955   1.229   8.163
 6645WAT     H120177   1.871   1.269   8.200
 6645WAT     H220178   2.021   1.302   8.143
 6646WAT      O20179   1.515   0.120   5.360
 6646WAT     H120180   1.550   0.191   5.421
 6646WAT     H220181   1.588   0.054   5.341
 6647WAT      O20182   7.982   9.768   7.005
 6647WAT     H120183   7.956   9.753   7.100
 6647WAT     H220184   7.910   9.732   6.945
 6648WAT      O20185   1.590   8.205   6.797
 6648WAT     H120186   1.666   8.241   6.743
 6648WAT     H220187   1.613   8.113   6.831
 6649WAT      O20188   8.298   5.512   5.705
 6649WAT     H120189   8.329   5.556   5.789
 6649WAT     H220190   8.273   5.417   5.724
 6650WAT      O20191   7.005   6.097   2.931
 6650WAT     H120192   7.002   6.016   2.990
 6650WAT     H220193   7.064   6.080   2.853
 6651WAT      O20194   1.581   2.492   1.785
 6651WAT     H120195   1.494   2.461   1.824
 6651WAT     H220196   1.566   2.577   1.735
 6652WAT      O20197   6.592   4.067   1.133
 6652WAT     H120198   6.548   4.003   1.070
 6652WAT     H220199   6.528   4.141   1.154
 6653WAT      O20200   5.510   3.459   6.158
 6653WAT     H120201   5.603   3.462   6.122
 6653WAT     H220202   5.456   3.392   6.107
 6654WAT      O20203   2.023   7.661   0.120
 6654WAT     H120204   2.054   7.756   0.116
 6654WAT     H220205   2.052   7.613   0.037
 6655WAT      O20206   4.522   9.038   5.424
 6655WAT     H120207   4.481   9.002   5.508
 6655WAT     H220208   4.452   9.085   5.370
 6656WAT      O20209   5.817   6.890   8.483
 6656WAT     H120210   5.720   6.870   8.478
 6656WAT     H220211   5.831   6.982   8.519
 6657WAT      O20212   4.388   6.408   0.024
 6657WAT     H120213   4.434   6.387   0.111
 6657WAT     H220214   4.453   6.453  -0.037
 6658WAT      O20215   2.672   0.238   5.111
 6658WAT     H120216   2.647   0.280   5.024
 6658WAT     H220217   2.697   0.309   5.177
 6659WAT      O20218   1.787   3.536   7.317
 6659WAT     H120219   1.860   3.559   7.381
 6659WAT     H220220   1.747   3.448   7.342
 6660WAT      O20221   3.778   9.062   9.113
 6660WAT     H120222   3.784   8.964   9.095
 6660WAT     H220223   3.689   9.096   9.081
 6661WAT      O20224   9.534   1.451   6.954
 6661WAT     H120225   9.472   1.522   6.987
 6661WAT     H220226   9.544   1.459   6.854
 6662WAT      O20227   5.646   2.004   9.620
 6662WAT     H120228   5.576   2.024   9.551
 6662WAT     H220229   5.725   2.063   9.606
 6663WAT      O20230   0.154   5.276   8.920
 6663WAT     H120231   0.072   5.327   8.946
 6663WAT     H220232   0.233   5.337   8.923
 6664WAT      O20233   5.869   7.998   4.588
 6664WAT     H120234   5.906   7.925   4.646
 6664WAT     H220235   5.942   8.062   4.564
 6665WAT      O20236   7.664   5.708   4.277
 6665WAT     H120237   7.645   5.653   4.358
 6665WAT     H220238   7.672   5.804   4.303
 6666WAT      O20239   5.607   0.442   6.014
 6666WAT     H120240   5.673   0.516   6.008
 6666WAT     H220241   5.564   0.427   5.925
 6667WAT      O20242   5.203   9.657   9.287
 6667WAT     H120243   5.215   9.756   9.277
 6667WAT     H220244   5.251   9.626   9.369
 6668WAT      O20245   1.468   2.321   6.857
 6668WAT     H120246   1.531   2.337   6.781
 6668WAT     H220247   1.472   2.397   6.922
 6669WAT      O20248   2.271   3.157   7.203
 6669WAT     H120249   2.365   3.126   7.207
 6669WAT     H220250   2.235   3.142   7.110
 6670WAT      O20251   6.707   6.603   3.086
 6670WAT     H120252   6.802   6.593   3.113
 6670WAT     H220253   6.701   6.607   2.986
 6671WAT      O20254   4.642   7.165   0.328
 6671WAT     H120255   4.605   7.246   0.283
 6671WAT     H220256   4.741   7.171   0.330
 6672WAT      O20257   0.113   8.936   4.429
 6672WAT     H120258   0.119   9.021   4.376
 6672WAT     H220259   0.025   8.932   4.476
 6673WAT      O20260   9.664   7.317   0.718
 6673WAT     H120261   9.751   7.335   0.672
 6673WAT     H220262   9.666   7.225   0.757
 6674WAT      O20263   8.216   5.186   5.061
 6674WAT     H120264   8.133   5.219   5.017
 6674WAT     H220265   8.284   5.259   5.065
 6675WAT      O20266   4.865   2.496   2.397
 6675WAT     H120267   4.924   2.541   2.463
 6675WAT     H220268   4.898   2.403   2.381
 6676WAT      O20269   2.391   7.363   2.954
 6676WAT     H120270   2.304   7.376   2.906
 6676WAT     H220271   2.376   7.374   3.052
 6677WAT      O20272   5.118   8.219   3.600
 6677WAT     H120273   5.115   8.121   3.616
 6677WAT     H220274   5.143   8.267   3.684
 6678WAT      O20275   5.849   5.431   6.487
 6678WAT     H120276   5.762   5.381   6.492
 6678WAT     H220277   5.916   5.376   6.436
 6679WAT      O20278   6.673   5.323   1.494
 6679WAT     H120279   6.652   5.256   1.565
 6679WAT     H220280   6.640   5.413   1.523
 6680WAT      O20281   5.919   6.549   6.857
 6680WAT     H120282   5.827   6.514   6.841
 6680WAT     H220283   5.987   6.478   6.839
 6681WAT      O20284   6.067   4.557   6.718
 6681WAT     H120285   6.028   4.584   6.805
 6681WAT     H220286   6.054   4.630   6.651
 6682WAT      O20287   0.943   5.961   4.240
 6682WAT     H120288   0.874   5.891   4.260
 6682WAT     H220289   0.925   6.001   4.150
 6683WAT      O20290   0.446   7.829   0.419
 6683WAT     H120291   0.429   7.927   0.413
 6683WAT     H220292   0.531   7.813   0.470
 6684WAT      O20293   9.226   1.878   8.548
 6684WAT     H120294   9.129   1.882   8.522
 6684WAT     H220295   9.234   1.855   8.645
 6685WAT      O20296   2.134   8.835   1.219
 6685WAT     H120297   2.142   8.911   1.155
 6685WAT     H220298   2.150   8.749   1.171
 6686WAT      O20299   9.396   6.397   5.762
 6686WAT     H120300   9.310   6.427   5.802
 6686WAT     H220301   9.458   6.366   5.835
 6687WAT      O20302   3.026   4.272   6.871
 6687WAT     H120303   2.983   4.193   6.825
 6687WAT     H220304   2.959   4.315   6.932
 6688WAT      O20305   4.126   8.067   5.531
 6688WAT     H120306   4.048   8.089   5.590
 6688WAT     H220307   4.141   8.142   5.467
 6689WAT      O20308   0.554   8.299   5.982
 6689WAT     H120309   0.511   8.299   6.072
 6689WAT     H220310   0.525   8.379   5.930
 6690WAT      O20311   5.569   9.563   6.552
 6690WAT     H120312   5.661   9.555   6.514
 6690WAT     H220313   5.575   9.602   6.644
 6691WAT      O20314   5.790   0.453   8.619
 6691WAT     H120315   5.860   0.522   8.637
 6691WAT     H220316   5.812   0.403   8.536
 6692WAT      O20317   8.938   9.284   5.856
 6692WAT     H120318   8.879   9.352   5.900
 6692WAT     H220319   8.894   9.252   5.772
 6693WAT      O20320   1.025   0.108   1.877
 6693WAT     H120321   1.019   0.012   1.852
 6693WAT     H220322   1.111   0.147   1.845
 6694WAT      O20323   9.225   0.333   7.794
 6694WAT     H120324   9.241   0.236   7.775
 6694WAT     H220325   9.143   0.363   7.746
 6695WAT      O20326   8.598   7.095   3.281
 6695WAT     H120327   8.506   7.108   3.319
 6695WAT     H220328   8.592   7.046   3.194
 6696WAT      O20329   7.317   5.145   2.292
 6696WAT     H120330   7.378   5.212   2.334
 6696WAT     H220331   7.296   5.172   2.199
 6697WAT      O20332   3.454   9.271   4.334
 6697WAT     H120333   3.455   9.185   4.384
 6697WAT     H220334   3.547   9.308   4.329
 6698WAT      O20335   7.709   9.219   0.652
 6698WAT     H120336   7.743   9.157   0.582
 6698WAT     H220337   7.707   9.312   0.617
 6699WAT      O20338   7.272   6.861   7.125
 6699WAT     H120339   7.266   6.923   7.203
 6699WAT     H220340   7.182   6.854   7.081
 6700WAT      O20341   2.277   0.267   1.696
 6700WAT     H120342   2.242   0.336   1.632
 6700WAT     H220343   2.331   0.200   1.646
 6701WAT      O20344   6.389   1.904   7.622
 6701WAT     H120345   6.393   1.858   7.710
 6701WAT     H220346   6.387   1.836   7.549
 6702WAT      O20347   7.887   6.523   2.103
 6702WAT     H120348   7.982   6.556   2.096
 6702WAT     H220349   7.875   6.443   2.045
 6703WAT      O20350   4.301   4.347   3.276
 6703WAT     H120351   4.254   4.274   3.326
 6703WAT     H220352   4.384   4.373   3.326
 6704WAT      O20353   8.832   0.259   4.179
 6704WAT     H120354   8.795   0.333   4.123
 6704WAT     H220355   8.901   0.209   4.127
 6705WAT      O20356   7.073   7.440   6.423
 6705WAT     H120357   7.019   7.501   6.365
 6705WAT     H220358   7.146   7.493   6.466
 6706WAT      O20359   2.640   4.362   1.027
 6706WAT     H120360   2.720   4.400   0.979
 6706WAT     H220361   2.657   4.266   1.049
 6707WAT      O20362   2.554   4.662   5.681
 6707WAT     H120363   2.570   4.621   5.592
 6707WAT     H220364   2.586   4.599   5.753
 6708WAT      O20365   6.706   7.473   9.556
 6708WAT     H120366   6.767   7.536   9.605
 6708WAT     H220367   6.651   7.524   9.490
 6709WAT      O20368   0.565   0.476   5.971
 6709WAT     H120369   0.531   0.570   5.976
 6709WAT     H220370   0.553   0.431   6.060
 6710WAT      O20371   3.666   2.613   4.659
 6710WAT     H120372   3.725   2.596   4.738
 6710WAT     H220373   3.692   2.553   4.583
 6711WAT      O20374   7.686   3.026   1.212
 6711WAT     H120375   7.729   3.098   1.266
 6711WAT     H220376   7.587   3.026   1.229
 6712WAT      O20377   4.601   6.510   8.526
 6712WAT     H120378   4.648   6.564   8.456
 6712WAT     H220379   4.656   6.508   8.609
 6713WAT      O20380   2.571   8.529   1.987
 6713WAT     H120381   2.528   8.569   1.906
 6713WAT     H220382   2.504   8.520   2.060
 6714WAT      O20383   0.188   4.447   9.859
 6714WAT     H120384   0.271   4.393   9.858
 6714WAT     H220385   0.169   4.477   9.952
 6715WAT      O20386   7.396   6.579   2.457
 6715WAT     H120387   7.407   6.665   2.408
 6715WAT     H220388   7.486   6.540   2.477
 6716WAT      O20389   5.419   3.828   1.640
 6716WAT     H120390   5.506   3.859   1.601
 6716WAT     H220391   5.433   3.740   1.685
 6717WAT      O20392   9.884   7.088   1.160
 6717WAT     H120393   9.837   7.173   1.136
 6717WAT     H220394   9.866   7.067   1.256
 6718WAT      O20395   2.467   8.255   6.777
 6718WAT     H120396   2.482   8.230   6.873
 6718WAT     H220397   2.518   8.193   6.718
 6719WAT      O20398   9.515   7.792   7.717
 6719WAT     H120399   9.460   7.863   7.674
 6719WAT     H220400   9.592   7.834   7.766
 6720WAT      O20401   1.854   5.016   6.359
 6720WAT     H120402   1.856   4.949   6.434
 6720WAT     H220403   1.929   5.081   6.370
 6721WAT      O20404   3.037   7.531   9.752
 6721WAT     H120405   3.075   7.442   9.729
 6721WAT     H220406   2.954   7.547   9.698
 6722WAT      O20407   7.378   4.748   0.754
 6722WAT     H120408   7.442   4.711   0.687
 6722WAT     H220409   7.286   4.714   0.736
 6723WAT      O20410   0.805   0.863   4.850
 6723WAT     H120411   0.858   0.857   4.765
 6723WAT     H220412   0.732   0.796   4.849
 6724WAT      O20413   5.621   4.108   0.282
 6724WAT     H120414   5.647   4.150   0.370
 6724WAT     H220415   5.617   4.008   0.293
 6725WAT      O20416   8.428   3.876   5.706
 6725WAT     H120417   8.449   3.889   5.609
 6725WAT     H220418   8.333   3.845   5.715
 6726WAT      O20419   3.991   1.507   2.081
 6726WAT     H120420   3.908   1.470   2.040
 6726WAT     H220421   3.973   1.534   2.175
 6727WAT      O20422   0.407   8.774   7.672
 6727WAT     H120423   0.439   8.700   7.731
 6727WAT     H220424   0.346   8.834   7.723
 6728WAT      O20425   6.717   2.211   8.815
 6728WAT     H120426   6.713   2.216   8.915
 6728WAT     H220427   6.812   2.197   8.786
 6729WAT      O20428   9.185   0.636   0.358
 6729WAT     H120429   9.169   0.732   0.332
 6729WAT     H220430   9.128   0.576   0.301
 6730WAT      O20431   7.149   0.199   6.867
 6730WAT     H120432   7.193   0.285   6.841
 6730WAT     H220433   7.175   0.128   6.801
 6731WAT      O20434   7.960   2.321   5.551
 6731WAT     H120435   7.987   2.228   5.576
 6731WAT     H220436   7.929   2.370   5.633
 6732WAT      O20437   8.543   1.201   2.195
 6732WAT     H120438   8.493   1.239   2.117
 6732WAT     H220439   8.520   1.105   2.205
 6733WAT      O20440   6.722   3.955   3.410
 6733WAT     H120441   6.703   3.901   3.492
 6733WAT     H220442   6.813   3.996   3.418
 6734WAT      O20443   1.894   8.844   3.640
 6734WAT     H120444   1.947   8.920   3.603
 6734WAT     H220445   1.955   8.780   3.686
 6735WAT      O20446   2.662   4.618   0.373
 6735WAT     H120447   2.625   4.703   0.411
 6735WAT     H220448   2.724   4.640   0.298
 6736WAT      O20449   6.810   5.737   6.705
 6736WAT     H120450   6.751   5.772   6.779
 6736WAT     H220451   6.770   5.653   6.668
 6737WAT      O20452   7.938   5.357   4.459
 6737WAT     H120453   8.035   5.338   4.447
 6737WAT     H220454   7.899   5.388   4.372
 6738WAT      O20455   6.986   9.581   5.997
 6738WAT     H120456   7.060   9.514   5.989
 6738WAT     H220457   6.916   9.546   6.059
 6739WAT      O20458   7.142   7.452   0.949
 6739WAT     H120459   7.205   7.488   0.881
 6739WAT     H220460   7.107   7.364   0.919
 6740WAT      O20461   0.767   6.572   0.240
 6740WAT     H120462   0.718   6.557   0.154
 6740WAT     H220463   0.735   6.506   0.308
 6741WAT      O20464   3.972   7.258   7.608
 6741WAT     H120465   4.058   7.221   7.642
 6741WAT     H220466   3.913   7.183   7.577
 6742WAT      O20467   5.777   7.237   2.958
 6742WAT     H120468   5.702   7.289   2.917
 6742WAT     H220469   5.864   7.267   2.918
 6743WAT      O20470   6.400   5.542   4.379
 6743WAT     H120471   6.464   5.477   4.420
 6743WAT     H220472   6.309   5.501   4.375
 6744WAT      O20473   0.344   6.329   5.200
 6744WAT     H120474   0.364   6.326   5.298
 6744WAT     H220475   0.426   6.358   5.150
 6745WAT      O20476   2.044   7.619   5.431
 6745WAT     H120477   1.962   7.665   5.398
 6745WAT     H220478   2.022   7.568   5.514
 6746WAT      O20479   8.555   1.446   4.910
 6746WAT     H120480   8.603   1.525   4.949
 6746WAT     H220481   8.614   1.402   4.842
 6747WAT      O20482   6.559   3.837   3.020
 6747WAT     H120483   6.557   3.872   2.926
 6747WAT     H220484   6.544   3.913   3.083
 6748WAT      O20485   8.927   6.542   3.762
 6748WAT     H120486   8.840   6.494   3.774
 6748WAT     H220487   8.958   6.530   3.668
 6749WAT      O20488   4.160   3.512   8.106
 6749WAT     H120489   4.102   3.432   8.087
 6749WAT     H220490   4.232   3.518   8.037
 6750WAT      O20491   8.274   4.085   7.432
 6750WAT     H120492   8.176   4.064   7.438
 6750WAT     H220493   8.308   4.058   7.342
 6751WAT      O20494   2.885   3.379   1.530
 6751WAT     H120495   2.944   3.328   1.467
 6751WAT     H220496   2.792   3.380   1.493
 6752WAT      O20497   8.151   1.980   1.392
 6752WAT     H120498   8.129   1.926   1.473
 6752WAT     H220499   8.074   1.979   1.328
 6753WAT      O20500   8.948   9.240   1.686
 6753WAT     H120501   8.949   9.312   1.616
 6753WAT     H220502   9.013   9.263   1.758
 6754WAT      O20503   6.234   5.973   9.677
 6754WAT     H120504   6.238   6.029   9.760
 6754WAT     H220505   6.277   6.023   9.601
 6755WAT      O20506   3.794   5.921   0.780
 6755WAT     H120507   3.777   5.991   0.711
 6755WAT     H220508   3.724   5.849   0.772
 6756WAT      O20509   9.790   2.914   5.873
 6756WAT     H120510   9.851   2.922   5.794
 6756WAT     H220511   9.760   2.819   5.882
 6757WAT      O20512   2.185   5.738   2.838
 6757WAT     H120513   2.200   5.772   2.931
 6757WAT     H220514   2.184   5.814   2.774
 6758WAT      O20515   1.219   2.682   0.590
 6758WAT     H120516   1.199   2.620   0.514
 6758WAT     H220517   1.283   2.753   0.559
 6759WAT      O20518   4.729   3.698   0.482
 6759WAT     H120519   4.655   3.763   0.498
 6759WAT     H220520   4.753   3.698   0.385
 6760WAT      O20521   6.154   6.234   1.677
 6760WAT     H120522   6.172   6.136   1.690
 6760WAT     H220523   6.216   6.287   1.735
 6761WAT      O20524   7.149   7.408   3.360
 6761WAT     H120525   7.067   7.405   3.417
 6761WAT     H220526   7.200   7.492   3.379
 6762WAT      O20527   9.535   4.183   6.117
 6762WAT     H120528   9.550   4.222   6.208
 6762WAT     H220529   9.527   4.258   6.051
 6763WAT      O20530   8.988   3.393   1.858
 6763WAT     H120531   8.979   3.409   1.957
 6763WAT     H220532   8.990   3.481   1.810
 6764WAT      O20533   0.297   0.490   5.633
 6764WAT     H120534   0.218   0.448   5.677
 6764WAT     H220535   0.377   0.431   5.643
 6765WAT      O20536   6.241   8.286   0.050
 6765WAT     H120537   6.229   8.331  -0.038
 6765WAT     H220538   6.159   8.233   0.073
 6766WAT      O20539   4.277   3.066   5.665
 6766WAT     H120540   4.305   3.029   5.576
 6766WAT     H220541   4.209   3.006   5.706
 6767WAT      O20542   3.757   3.033   8.137
 6767WAT     H120543   3.853   3.048   8.158
 6767WAT     H220544   3.701   3.103   8.182
 6768WAT      O20545   7.785   6.198   0.959
 6768WAT     H120546   7.775   6.253   0.877
 6768WAT     H220547   7.803   6.257   1.038
 6769WAT      O20548   2.240   5.301   0.579
 6769WAT     H120549   2.178   5.252   0.640
 6769WAT     H220550   2.226   5.400   0.589
 6770WAT      O20551   5.651   1.128   3.361
 6770WAT     H120552   5.651   1.131   3.461
 6770WAT     H220553   5.601   1.047   3.331
 6771WAT      O20554   4.827   4.134   0.458
 6771WAT     H120555   4.873   4.126   0.547
 6771WAT     H220556   4.874   4.076   0.391
 6772WAT      O20557   4.440   9.010   6.519
 6772WAT     H120558   4.484   9.041   6.435
 6772WAT     H220559   4.461   8.913   6.534
 6773WAT      O20560   2.801   8.505   6.801
 6773WAT     H120561   2.842   8.502   6.892
 6773WAT     H220562   2.827   8.423   6.750
 6774WAT      O20563   9.006   0.671   2.866
 6774WAT     H120564   8.974   0.585   2.827
 6774WAT     H220565   9.055   0.653   2.951
 6775WAT      O20566   7.779   4.272   8.486
 6775WAT     H120567   7.703   4.271   8.420
 6775WAT     H220568   7.865   4.272   8.436
 6776WAT      O20569   6.392   8.692   0.431
 6776WAT     H120570   6.293   8.703   0.432
 6776WAT     H220571   6.419   8.625   0.499
 6777WAT      O20572   5.052   5.583   9.704
 6777WAT     H120573   4.985   5.515   9.735
 6777WAT     H220574   5.016   5.631   9.624
 6778WAT      O20575   2.725   3.181   2.608
 6778WAT     H120576   2.704   3.166   2.512
 6778WAT     H220577   2.761   3.096   2.648
 6779WAT      O20578   2.690   3.863   8.105
 6779WAT     H120579   2.675   3.773   8.145
 6779WAT     H220580   2.604   3.899   8.068
 6780WAT      O20581   5.993   1.586   3.221
 6780WAT     H120582   5.907   1.545   3.254
 6780WAT     H220583   6.007   1.560   3.126
 6781WAT      O20584   1.625   5.111   3.493
 6781WAT     H120585   1.671   5.178   3.551
 6781WAT     H220586   1.527   5.131   3.490
 6782WAT      O20587   1.702   6.973   4.396
 6782WAT     H120588   1.724   7.046   4.462
 6782WAT     H220589   1.622   6.922   4.428
 6783WAT      O20590   2.103   6.196   0.912
 6783WAT     H120591   2.024   6.224   0.967
 6783WAT     H220592   2.112   6.257   0.833
 6784WAT      O20593   1.066   4.855   9.759
 6784WAT     H120594   1.038   4.763   9.730
 6784WAT     H220595   1.046   4.920   9.686
 6785WAT      O20596   2.618   4.670   7.589
 6785WAT     H120597   2.627   4.610   7.509
 6785WAT     H220598   2.705   4.715   7.606
 6786WAT      O20599   9.456   2.483   8.491
 6786WAT     H120600   9.459   2.580   8.466
 6786WAT     H220601   9.404   2.433   8.423
 6787WAT      O20602   8.223   8.194   8.859
 6787WAT     H120603   8.307   8.238   8.828
 6787WAT     H220604   8.144   8.248   8.829
 6788WAT      O20605   2.008   4.249   9.427
 6788WAT     H120606   2.011   4.318   9.499
 6788WAT     H220607   1.929   4.190   9.441
 6789WAT      O20608   5.272   1.466   0.979
 6789WAT     H120609   5.305   1.389   1.033
 6789WAT     H220610   5.318   1.550   1.009
 6790WAT      O20611   4.253   1.147   5.726
 6790WAT     H120612   4.174   1.111   5.776
 6790WAT     H220613   4.310   1.072   5.695
 6791WAT      O20614   5.226   4.329   5.809
 6791WAT     H120615   5.306   4.350   5.865
 6791WAT     H220616   5.185   4.414   5.776
 6792WAT      O20617   7.557   5.698   6.509
 6792WAT     H120618   7.599   5.624   6.561
 6792WAT     H220619   7.604   5.708   6.421
 6793WAT      O20620   7.445   8.805   4.754
 6793WAT     H120621   7.404   8.837   4.668
 6793WAT     H220622   7.533   8.763   4.736
 6794WAT      O20623   9.201   2.928   6.419
 6794WAT     H120624   9.166   3.011   6.462
 6794WAT     H220625   9.130   2.889   6.361
 6795WAT      O20626   0.938   6.580   4.276
 6795WAT     H120627   0.954   6.651   4.207
 6795WAT     H220628   1.011   6.584   4.345
 6796WAT      O20629   6.208   3.427   6.564
 6796WAT     H120630   6.182   3.479   6.483
 6796WAT     H220631   6.199   3.329   6.545
 6797WAT      O20632   3.174   8.421   4.164
 6797WAT     H120633   3.269   8.405   4.137
 6797WAT     H220634   3.131   8.333   4.185
 6798WAT      O20635   1.553   8.610   8.897
 6798WAT     H120636   1.496   8.562   8.963
 6798WAT     H220637   1.638   8.638   8.941
 6799WAT      O20638   0.890   5.023   8.817
 6799WAT     H120639   0.853   4.999   8.727
 6799WAT     H220640   0.832   4.984   8.889
 6800WAT      O20641   5.188   9.285   9.373
 6800WAT     H120642   5.178   9.374   9.418
 6800WAT     H220643   5.269   9.239   9.407
 6801WAT      O20644   2.366   1.499   0.851
 6801WAT     H120645   2.384   1.489   0.949
 6801WAT     H220646   2.444   1.544   0.807
 6802WAT      O20647   4.942   2.333   6.794
 6802WAT     H120648   4.925   2.402   6.864
 6802WAT     H220649   4.912   2.243   6.828
 6803WAT      O20650   2.857   6.451   0.264
 6803WAT     H120651   2.808   6.525   0.218
 6803WAT     H220652   2.841   6.365   0.216
 6804WAT      O20653   4.846   2.934   7.948
 6804WAT     H120654   4.797   2.938   7.861
 6804WAT     H220655   4.782   2.908   8.021
 6805WAT      O20656   6.317   5.483   6.104
 6805WAT     H120657   6.385   5.485   6.031
 6805WAT     H220658   6.311   5.391   6.142
 6806WAT      O20659   9.447   8.651   3.023
 6806WAT     H120660   9.388   8.699   3.088
 6806WAT     H220661   9.488   8.571   3.067
 6807WAT      O20662   5.309   6.471   2.745
 6807WAT     H120663   5.229   6.449   2.801
 6807WAT     H220664   5.353   6.386   2.715
 6808WAT      O20665   1.654   4.711   4.106
 6808WAT     H120666   1.635   4.710   4.204
 6808WAT     H220667   1.582   4.760   4.058
 6809WAT      O20668   9.269   4.211   6.029
 6809WAT     H120669   9.234   4.143   5.963
 6809WAT     H220670   9.364   4.191   6.050
 6810WAT      O20671   3.462   8.780   7.592
 6810WAT     H120672   3.429   8.689   7.619
 6810WAT     H220673   3.554   8.772   7.554
 6811WAT      O20674   6.709   0.324   6.753
 6811WAT     H120675   6.728   0.345   6.657
 6811WAT     H220676   6.676   0.406   6.799
 6812WAT      O20677   6.942   7.234   3.124
 6812WAT     H120678   6.944   7.261   3.221
 6812WAT     H220679   7.027   7.264   3.080
 6813WAT      O20680   3.704   2.284   5.986
 6813WAT     H120681   3.699   2.361   5.922
 6813WAT     H220682   3.612   2.247   6.000
 6814WAT      O20683   5.981   2.463   5.471
 6814WAT     H120684   5.954   2.439   5.378
 6814WAT     H220685   6.069   2.510   5.469
 6815WAT      O20686   1.990   7.476   9.364
 6815WAT     H120687   2.068   7.446   9.419
 6815WAT     H220688   2.014   7.474   9.267
 6816WAT      O20689   1.372   8.948   2.233
 6816WAT     H120690   1.435   9.000   2.290
 6816WAT     H220691   1.416   8.926   2.146
 6817WAT      O20692   0.999   3.524   5.788
 6817WAT     H120693   1.024   3.427   5.788
 6817WAT     H220694   1.062   3.575   5.730
 6818WAT      O20695   6.389   2.252   3.262
 6818WAT     H120696   6.414   2.169   3.312
 6818WAT     H220697   6.467   2.282   3.207
 6819WAT      O20698   5.427   3.855   3.518
 6819WAT     H120699   5.397   3.763   3.495
 6819WAT     H220700   5.480   3.853   3.602
 6820WAT      O20701   2.014   3.018   7.734
 6820WAT     H120702   1.975   2.928   7.716
 6820WAT     H220703   1.960   3.088   7.688
 6821WAT      O20704   8.380   6.397   3.155
 6821WAT     H120705   8.375   6.455   3.237
 6821WAT     H220706   8.287   6.369   3.129
 6822WAT      O20707   9.298   8.465   2.126
 6822WAT     H120708   9.212   8.426   2.095
 6822WAT     H220709   9.349   8.395   2.178
 6823WAT      O20710   5.117   3.507   5.847
 6823WAT     H120711   5.059   3.581   5.880
 6823WAT     H220712   5.074   3.419   5.868
 6824WAT      O20713   6.687   9.341   1.757
 6824WAT     H120714   6.655   9.423   1.804
 6824WAT     H220715   6.612   9.303   1.702
 6825WAT      O20716   0.299   1.348   2.043
 6825WAT     H120717   0.270   1.433   1.999
 6825WAT     H220718   0.299   1.274   1.976
 6826WAT      O20719   7.275   8.441   7.366
 6826WAT     H120720   7.354   8.405   7.415
 6826WAT     H220721   7.267   8.539   7.382
 6827WAT      O20722   3.085   5.272   4.978
 6827WAT     H120723   3.039   5.273   4.890
 6827WAT     H220724   3.066   5.186   5.025
 6828WAT      O20725   3.803   1.503   7.809
 6828WAT     H120726   3.862   1.480   7.731
 6828WAT     H220727   3.713   1.529   7.775
 6829WAT      O20728   4.517   0.636   0.230
 6829WAT     H120729   4.606   0.674   0.253
 6829WAT     H220730   4.470   0.696   0.166
 6830WAT      O20731   5.232   3.112   8.114
 6830WAT     H120732   5.330   3.100   8.100
 6830WAT     H220733   5.195   3.031   8.161
 6831WAT      O20734   2.450   8.935   5.058
 6831WAT     H120735   2.374   9.000   5.063
 6831WAT     H220736   2.533   8.982   5.029
 6832WAT      O20737   2.584   8.820   2.090
 6832WAT     H120738   2.528   8.829   2.173
 6832WAT     H220739   2.617   8.726   2.083
 6833WAT      O20740   2.565   8.988   5.689
 6833WAT     H120741   2.628   8.927   5.640
 6833WAT     H220742   2.472   8.952   5.683
 6834WAT      O20743   7.056   0.641   3.959
 6834WAT     H120744   7.015   0.685   4.039
 6834WAT     H220745   7.051   0.542   3.969
 6835WAT      O20746   4.402   2.963   8.260
 6835WAT     H120747   4.456   2.964   8.176
 6835WAT     H220748   4.445   2.900   8.325
 6836WAT      O20749   3.728   4.779   6.312
 6836WAT     H120750   3.801   4.746   6.372
 6836WAT     H220751   3.768   4.823   6.232
 6837WAT      O20752   9.782   5.787   6.526
 6837WAT     H120753   9.830   5.820   6.445
 6837WAT     H220754   9.718   5.857   6.558
 6838WAT      O20755   9.390   0.072   6.395
 6838WAT     H120756   9.486   0.058   6.370
 6838WAT     H220757   9.386   0.122   6.482
 6839WAT      O20758   2.487   4.127   6.061
 6839WAT     H120759   2.514   4.221   6.041
 6839WAT     H220760   2.419   4.127   6.134
 6840WAT      O20761   4.104   6.540   2.102
 6840WAT     H120762   4.057   6.478   2.039
 6840WAT     H220763   4.201   6.544   2.079
 6841WAT      O20764   3.712   0.264   8.229
 6841WAT     H120765   3.778   0.338   8.242
 6841WAT     H220766   3.637   0.275   8.295
 6842WAT      O20767   3.171   7.100   4.983
 6842WAT     H120768   3.264   7.134   4.996
 6842WAT     H220769   3.174   7.007   4.946
 6843WAT      O20770   8.671   8.475   7.272
 6843WAT     H120771   8.676   8.516   7.363
 6843WAT     H220772   8.749   8.507   7.218
 6844WAT      O20773   1.051   9.293   5.689
 6844WAT     H120774   1.088   9.215   5.741
 6844WAT     H220775   0.976   9.334   5.740
 6845WAT      O20776   6.652   5.084   2.017
 6845WAT     H120777   6.640   5.177   2.053
 6845WAT     H220778   6.739   5.078   1.969
 6846WAT      O20779   4.461   1.261   9.762
 6846WAT     H120780   4.376   1.224   9.800
 6846WAT     H220781   4.528   1.187   9.754
 6847WAT      O20782   8.456   7.598   3.504
 6847WAT     H120783   8.519   7.628   3.433
 6847WAT     H220784   8.431   7.676   3.561
 6848WAT      O20785   9.232   1.517   4.154
 6848WAT     H120786   9.139   1.547   4.176
 6848WAT     H220787   9.288   1.596   4.130
 6849WAT      O20788   3.472   5.262   8.562
 6849WAT     H120789   3.566   5.229   8.574
 6849WAT     H220790   3.474   5.354   8.522
 6850WAT      O20791   6.982   7.689   2.471
 6850WAT     H120792   7.021   7.617   2.413
 6850WAT     H220793   6.884   7.695   2.455
 6851WAT      O20794   9.091   5.196   7.683
 6851WAT     H120795   9.068   5.186   7.780
 6851WAT     H220796   9.142   5.282   7.671
 6852WAT      O20797   4.782   1.792   2.379
 6852WAT     H120798   4.827   1.739   2.307
 6852WAT     H220799   4.683   1.778   2.374
 6853WAT      O20800   5.457   6.978   6.980
 6853WAT     H120801   5.458   7.003   7.077
 6853WAT     H220802   5.543   7.006   6.937
 6854WAT      O20803   9.315   2.326   2.695
 6854WAT     H120804   9.298   2.381   2.613
 6854WAT     H220805   9.261   2.242   2.690
 6855WAT      O20806   3.919   8.105   9.087
 6855WAT     H120807   4.011   8.068   9.070
 6855WAT     H220808   3.856   8.030   9.105
 6856WAT      O20809   0.185   0.040   7.080
 6856WAT     H120810   0.231  -0.019   7.146
 6856WAT     H220811   0.107  -0.008   7.041
 6857WAT      O20812   8.251   5.471   9.834
 6857WAT     H120813   8.295   5.421   9.760
 6857WAT     H220814   8.299   5.558   9.849
 6858WAT      O20815   0.044   9.739   9.105
 6858WAT     H120816  -0.012   9.657   9.114
 6858WAT     H220817   0.040   9.792   9.190
 6859WAT      O20818   7.292   4.400   9.220
 6859WAT     H120819   7.367   4.383   9.284
 6859WAT     H220820   7.325   4.453   9.142
 6860WAT      O20821   8.120   9.216   4.167
 6860WAT     H120822   8.101   9.118   4.167
 6860WAT     H220823   8.071   9.259   4.243
 6861WAT      O20824   6.126   1.915   8.900
 6861WAT     H120825   6.098   1.828   8.860
 6861WAT     H220826   6.221   1.934   8.876
 6862WAT      O20827   9.616   4.315   9.838
 6862WAT     H120828   9.636   4.258   9.759
 6862WAT     H220829   9.542   4.274   9.891
 6863WAT      O20830   7.211   8.675   9.317
 6863WAT     H120831   7.183   8.707   9.227
 6863WAT     H220832   7.218   8.575   9.317
 6864WAT      O20833   1.497   4.409   3.730
 6864WAT     H120834   1.521   4.354   3.810
 6864WAT     H220835   1.498   4.506   3.754
 6865WAT      O20836   3.404   5.737   4.331
 6865WAT     H120837   3.433   5.728   4.426
 6865WAT     H220838   3.477   5.705   4.270
 6866WAT      O20839   8.320   7.190   6.129
 6866WAT     H120840   8.387   7.214   6.199
 6866WAT     H220841   8.364   7.196   6.039
 6867WAT      O20842   7.631   4.024   3.004
 6867WAT     H120843   7.636   4.107   2.949
 6867WAT     H220844   7.723   3.993   3.027
 6868WAT      O20845   1.496   4.265   3.973
 6868WAT     H120846   1.481   4.166   3.963
 6868WAT     H220847   1.515   4.286   4.069
 6869WAT      O20848   4.261   7.004   9.464
 6869WAT     H120849   4.232   6.953   9.383
 6869WAT     H220850   4.341   6.959   9.504
 6870WAT      O20851   8.227   6.851   3.874
 6870WAT     H120852   8.227   6.899   3.961
 6870WAT     H220853   8.176   6.903   3.806
 6871WAT      O20854   1.528   6.748   2.939
 6871WAT     H120855   1.507   6.729   2.843
 6871WAT     H220856   1.472   6.689   2.998
 6872WAT      O20857   4.203   9.232   0.796
 6872WAT     H120858   4.140   9.303   0.826
 6872WAT     H220859   4.192   9.151   0.853
 6873WAT      O20860   2.947   3.379   0.090
 6873WAT     H120861   3.026   3.423   0.048
 6873WAT     H220862   2.918   3.303   0.033
 6874WAT      O20863   3.511   6.567   9.709
 6874WAT     H120864   3.603   6.606   9.715
 6874WAT     H220865   3.449   6.619   9.768
 6875WAT      O20866   0.358   3.713   1.888
 6875WAT     H120867   0.349   3.740   1.984
 6875WAT     H220868   0.334   3.790   1.829
 6876WAT      O20869   1.646   9.299   5.988
 6876WAT     H120870   1.636   9.399   5.994
 6876WAT     H220871   1.561   9.260   5.952
 6877WAT      O20872   9.517   1.515   4.367
 6877WAT     H120873   9.434   1.471   4.403
 6877WAT     H220874   9.575   1.446   4.325
 6878WAT      O20875   8.093   0.233   9.086
 6878WAT     H120876   8.164   0.282   9.035
 6878WAT     H220877   8.004   0.276   9.070
 6879WAT      O20878   5.020   5.040   6.889
 6879WAT     H120879   5.021   5.061   6.791
 6879WAT     H220880   5.113   5.035   6.923
 6880WAT      O20881   6.360   0.706   6.344
 6880WAT     H120882   6.298   0.765   6.292
 6880WAT     H220883   6.448   0.699   6.296
 6881WAT      O20884   5.892   5.749   6.181
 6881WAT     H120885   5.896   5.793   6.271
 6881WAT     H220886   5.941   5.662   6.184
 6882WAT      O20887   1.043   9.153   3.576
 6882WAT     H120888   1.138   9.170   3.549
 6882WAT     H220889   1.041   9.088   3.652
 6883WAT      O20890   3.684   2.847   1.680
 6883WAT     H120891   3.662   2.765   1.733
 6883WAT     H220892   3.738   2.909   1.737
 6884WAT      O20893   6.751   8.527   1.144
 6884WAT     H120894   6.835   8.482   1.172
 6884WAT     H220895   6.748   8.535   1.044
 6885WAT      O20896   3.167   7.570   8.082
 6885WAT     H120897   3.195   7.490   8.136
 6885WAT     H220898   3.197   7.558   7.987
 6886WAT      O20899   4.715   2.025   8.720
 6886WAT     H120900   4.786   1.979   8.667
 6886WAT     H220901   4.705   2.119   8.687
 6887WAT      O20902   1.342   6.766   4.748
 6887WAT     H120903   1.273   6.693   4.746
 6887WAT     H220904   1.298   6.854   4.731
 6888WAT      O20905   1.442   0.209   9.237
 6888WAT     H120906   1.434   0.159   9.323
 6888WAT     H220907   1.385   0.291   9.240
 6889WAT      O20908   9.850   5.299   1.433
 6889WAT     H120909   9.927   5.360   1.411
 6889WAT     H220910   9.847   5.225   1.366
 6890WAT      O20911   8.868   8.166   6.329
 6890WAT     H120912   8.818   8.117   6.400
 6890WAT     H220913   8.873   8.263   6.353
 6891WAT      O20914   8.834   7.223   2.200
 6891WAT     H120915   8.851   7.140   2.147
 6891WAT     H220916   8.890   7.222   2.283
 6892WAT      O20917   1.540   8.614   4.957
 6892WAT     H120918   1.588   8.534   4.922
 6892WAT     H220919   1.442   8.602   4.947
 6893WAT      O20920   1.078   5.793   2.904
 6893WAT     H120921   1.162   5.845   2.916
 6893WAT     H220922   1.018   5.840   2.838
 6894WAT      O20923   7.841   3.481   5.414
 6894WAT     H120924   7.857   3.382   5.414
 6894WAT     H220925   7.758   3.500   5.467
 6895WAT      O20926   0.438   1.122   5.413
 6895WAT     H120927   0.410   1.060   5.338
 6895WAT     H220928   0.495   1.072   5.477
 6896WAT      O20929   5.576   1.764   5.186
 6896WAT     H120930   5.508   1.692   5.201
 6896WAT     H220931   5.529   1.849   5.163
 6897WAT      O20932   1.842   1.059   6.529
 6897WAT     H120933   1.896   1.120   6.586
 6897WAT     H220934   1.839   0.968   6.571
 6898WAT      O20935   4.611   8.398   2.911
 6898WAT     H120936   4.570   8.489   2.899
 6898WAT     H220937   4.694   8.405   2.966
 6899WAT      O20938   1.681   3.836   4.311
 6899WAT     H120939   1.712   3.773   4.240
 6899WAT     H220940   1.622   3.906   4.270
 6900WAT      O20941   0.658   8.057   7.805
 6900WAT     H120942   0.726   7.986   7.821
 6900WAT     H220943   0.573   8.033   7.853
 6901WAT      O20944   6.545   3.197   9.242
 6901WAT     H120945   6.585   3.118   9.197
 6901WAT     H220946   6.614   3.269   9.252
 6902WAT      O20947   6.829   3.249   0.925
 6902WAT     H120948   6.783   3.205   0.848
 6902WAT     H220949   6.765   3.256   1.002
 6903WAT      O20950   2.255   2.056   6.813
 6903WAT     H120951   2.278   2.003   6.731
 6903WAT     H220952   2.217   1.995   6.882
 6904WAT      O20953   1.024   7.701   2.597
 6904WAT     H120954   1.019   7.796   2.566
 6904WAT     H220955   0.936   7.674   2.637
 6905WAT      O20956   2.897   1.988   2.100
 6905WAT     H120957   2.907   1.902   2.151
 6905WAT     H220958   2.851   1.970   2.013
 6906WAT      O20959   2.128   1.661   3.903
 6906WAT     H120960   2.157   1.753   3.876
 6906WAT     H220961   2.185   1.629   3.978
 6907WAT      O20962   2.595   5.576   8.909
 6907WAT     H120963   2.639   5.540   8.827
 6907WAT     H220964   2.598   5.676   8.907
 6908WAT      O20965   3.689   2.535   4.384
 6908WAT     H120966   3.597   2.501   4.400
 6908WAT     H220967   3.756   2.468   4.416
 6909WAT      O20968   3.442   8.109   4.828
 6909WAT     H120969   3.432   8.165   4.909
 6909WAT     H220970   3.513   8.148   4.769
 6910WAT      O20971   8.907   5.705   2.243
 6910WAT     H120972   8.833   5.769   2.221
 6910WAT     H220973   8.948   5.732   2.330
 6911WAT      O20974   6.694   2.913   7.428
 6911WAT     H120975   6.640   2.947   7.351
 6911WAT     H220976   6.689   2.978   7.504
 6912WAT      O20977  -0.002   5.325   5.182
 6912WAT     H120978   0.055   5.369   5.251
 6912WAT     H220979   0.053   5.259   5.131
 6913WAT      O20980   3.194   8.007   5.753
 6913WAT     H120981   3.145   7.947   5.815
 6913WAT     H220982   3.128   8.065   5.704
 6914WAT      O20983   1.306   8.289   3.721
 6914WAT     H120984   1.297   8.322   3.815
 6914WAT     H220985   1.330   8.365   3.661
 6915WAT      O20986   0.950   7.314   9.096
 6915WAT     H120987   1.008   7.389   9.064
 6915WAT     H220988   1.000   7.228   9.089
 6916WAT      O20989   0.454   8.501   7.225
 6916WAT     H120990   0.500   8.499   7.136
 6916WAT     H220991   0.355   8.492   7.212
 6917WAT      O20992   3.324   7.395   0.072
 6917WAT     H120993   3.339   7.428  -0.021
 6917WAT     H220994   3.330   7.471   0.136
 6918WAT      O20995   1.829   6.780   9.373
 6918WAT     H120996   1.774   6.751   9.294
 6918WAT     H220997   1.844   6.879   9.369
 6919WAT      O20998   5.488   7.120   7.838
 6919WAT     H120999   5.539   7.074   7.766
 6919WAT     H221000   5.393   7.089   7.838
 6920WAT      O21001   1.324   4.076   9.661
 6920WAT     H121002   1.404   4.091   9.603
 6920WAT     H221003   1.303   4.161   9.710
 6921WAT      O21004   3.119   3.010   9.208
 6921WAT     H121005   3.031   2.963   9.203
 6921WAT     H221006   3.136   3.058   9.121
 6922WAT      O21007   7.406   4.667   5.032
 6922WAT     H121008   7.401   4.617   4.946
 6922WAT     H221009   7.317   4.665   5.078
 6923WAT      O21010   2.216   4.793   9.072
 6923WAT     H121011   2.218   4.738   9.155
 6923WAT     H221012   2.128   4.840   9.065
 6924WAT      O21013   6.383   7.603   1.454
 6924WAT     H121014   6.380   7.689   1.403
 6924WAT     H221015   6.371   7.526   1.391
 6925WAT      O21016   4.888   1.686   8.891
 6925WAT     H121017   4.959   1.734   8.941
 6925WAT     H221018   4.930   1.617   8.831
 6926WAT      O21019   9.772   8.956   8.019
 6926WAT     H121020   9.794   8.974   7.923
 6926WAT     H221021   9.810   8.867   8.046
 6927WAT      O21022   6.629   1.576   6.332
 6927WAT     H121023   6.564   1.594   6.406
 6927WAT     H221024   6.668   1.484   6.344
 6928WAT      O21025   6.058   5.526   6.182
 6928WAT     H121026   6.141   5.517   6.129
 6928WAT     H221027   5.990   5.459   6.151
 6929WAT      O21028   0.337   8.996   3.857
 6929WAT     H121029   0.429   9.034   3.869
 6929WAT     H221030   0.269   9.068   3.868
 6930WAT      O21031   7.657   7.927   2.495
 6930WAT     H121032   7.704   8.012   2.518
 6930WAT     H221033   7.717   7.849   2.516
 6931WAT      O21034   9.540   2.669   4.986
 6931WAT     H121035   9.576   2.755   5.023
 6931WAT     H221036   9.604   2.633   4.918
 6932WAT      O21037   8.322   7.930   0.708
 6932WAT     H121038   8.299   7.841   0.669
 6932WAT     H221039   8.270   8.001   0.660
 6933WAT      O21040   9.084   3.253   2.404
 6933WAT     H121041   9.148   3.292   2.337
 6933WAT     H221042   9.002   3.309   2.409
 6934WAT      O21043   6.767   5.392   8.056
 6934WAT     H121044   6.740   5.487   8.044
 6934WAT     H221045   6.857   5.377   8.016
 6935WAT      O21046   4.987   9.083   4.213
 6935WAT     H121047   5.063   9.147   4.200
 6935WAT     H221048   4.941   9.103   4.300
 6936WAT      O21049   6.785   3.613   7.809
 6936WAT     H121050   6.844   3.532   7.813
 6936WAT     H221051   6.758   3.630   7.714
 6937WAT      O21052   8.983   2.834   2.439
 6937WAT     H121053   8.936   2.858   2.523
 6937WAT     H221054   9.051   2.904   2.417
 6938WAT      O21055   6.649   3.568   3.756
 6938WAT     H121056   6.684   3.622   3.833
 6938WAT     H221057   6.583   3.501   3.790
 6939WAT      O21058   8.509   9.612   4.571
 6939WAT     H121059   8.551   9.522   4.557
 6939WAT     H221060   8.414   9.601   4.599
 6940WAT      O21061   6.920   8.309   3.340
 6940WAT     H121062   6.952   8.246   3.270
 6940WAT     H221063   6.990   8.319   3.411
 6941WAT      O21064   2.348   4.334   8.961
 6941WAT     H121065   2.266   4.391   8.966
 6941WAT     H221066   2.349   4.284   8.874
 6942WAT      O21067   1.013   8.162   7.700
 6942WAT     H121068   1.109   8.154   7.725
 6942WAT     H221069   1.005   8.194   7.606
 6943WAT      O21070   8.837   8.648   0.143
 6943WAT     H121071   8.833   8.624   0.046
 6943WAT     H221072   8.748   8.680   0.174
 6944WAT      O21073   9.714   8.788   2.234
 6944WAT     H121074   9.739   8.863   2.295
 6944WAT     H221075   9.690   8.707   2.287
 6945WAT      O21076   3.919   4.831   5.877
 6945WAT     H121077   4.017   4.848   5.885
 6945WAT     H221078   3.901   4.775   5.796
 6946WAT      O21079   2.720   6.969   0.460
 6946WAT     H121080   2.736   7.036   0.388
 6946WAT     H221081   2.637   6.994   0.511
 6947WAT      O21082   8.277   1.855   5.804
 6947WAT     H121083   8.287   1.770   5.752
 6947WAT     H221084   8.270   1.933   5.741
 6948WAT      O21085   9.783   1.799   4.673
 6948WAT     H121086   9.733   1.882   4.649
 6948WAT     H221087   9.880   1.821   4.686
 6949WAT      O21088   0.012   1.209   5.508
 6949WAT     H121089  -0.016   1.180   5.417
 6949WAT     H221090   0.055   1.133   5.556
 6950WAT      O21091   7.109   3.270   8.198
 6950WAT     H121092   7.176   3.344   8.190
 6950WAT     H221093   7.028   3.304   8.246
 6951WAT      O21094   9.074   4.945   6.206
 6951WAT     H121095   9.124   4.858   6.206
 6951WAT     H221096   8.984   4.932   6.247
 6952WAT      O21097   9.877   2.142   8.453
 6952WAT     H121098   9.893   2.239   8.438
 6952WAT     H221099   9.799   2.129   8.513
 6953WAT      O21100   4.376   6.578   1.998
 6953WAT     H121101   4.420   6.541   2.080
 6953WAT     H221102   4.426   6.548   1.917
 6954WAT      O21103   8.765   9.175   9.655
 6954WAT     H121104   8.689   9.144   9.597
 6954WAT     H221105   8.750   9.144   9.749
 6955WAT      O21106   5.597   2.323   9.389
 6955WAT     H121107   5.677   2.271   9.362
 6955WAT     H221108   5.540   2.342   9.309
 6956WAT      O21109   3.495   0.611   6.804
 6956WAT     H121110   3.535   0.676   6.869
 6956WAT     H221111   3.534   0.627   6.714
 6957WAT      O21112   9.560   8.288   0.148
 6957WAT     H121113   9.591   8.203   0.191
 6957WAT     H221114   9.464   8.304   0.173
 6958WAT      O21115   8.896   4.079   7.304
 6958WAT     H121116   8.915   4.055   7.399
 6958WAT     H221117   8.804   4.050   7.280
 6959WAT      O21118   5.938   9.473   7.909
 6959WAT     H121119   6.006   9.465   7.981
 6959WAT     H221120   5.908   9.381   7.881
 6960WAT      O21121   5.085   8.298   1.397
 6960WAT     H121122   5.042   8.327   1.482
 6960WAT     H221123   5.037   8.219   1.360
 6961WAT      O21124   4.173   6.007   7.357
 6961WAT     H121125   4.207   5.926   7.307
 6961WAT     H221126   4.189   5.994   7.455
 6962WAT      O21127   7.146   0.851   0.009
 6962WAT     H121128   7.103   0.785  -0.052
 6962WAT     H221129   7.085   0.929   0.021
 6963WAT      O21130   0.128   2.916   8.315
 6963WAT     H121131   0.074   2.914   8.231
 6963WAT     H221132   0.205   2.852   8.307
 6964WAT      O21133   5.038   9.411   7.987
 6964WAT     H121134   5.005   9.376   8.075
 6964WAT     H221135   5.138   9.403   7.984
 6965WAT      O21136   2.318   6.214   9.488
 6965WAT     H121137   2.291   6.219   9.391
 6965WAT     H221138   2.306   6.303   9.531
 6966WAT      O21139   9.636   1.491   0.167
 6966WAT     H121140   9.628   1.549   0.086
 6966WAT     H221141   9.732   1.481   0.193
 6967WAT      O21142   5.755   6.596   5.916
 6967WAT     H121143   5.694   6.589   5.838
 6967WAT     H221144   5.701   6.607   6.000
 6968WAT      O21145   3.227   0.486   1.212
 6968WAT     H121146   3.198   0.430   1.134
 6968WAT     H221147   3.306   0.541   1.186
 6969WAT      O21148   1.080   6.446   0.421
 6969WAT     H121149   1.090   6.375   0.351
 6969WAT     H221150   1.114   6.533   0.385
 6970WAT      O21151   2.103   0.103   8.387
 6970WAT     H121152   2.074   0.133   8.296
 6970WAT     H221153   2.105   0.182   8.449
 6971WAT      O21154   0.750   7.743   1.838
 6971WAT     H121155   0.708   7.832   1.817
 6971WAT     H221156   0.849   7.751   1.826
 6972WAT      O21157   2.191   2.542   8.088
 6972WAT     H121158   2.216   2.619   8.030
 6972WAT     H221159   2.227   2.555   8.180
 6973WAT      O21160   3.050   6.249   7.246
 6973WAT     H121161   3.062   6.333   7.298
 6973WAT     H221162   2.956   6.217   7.255
 6974WAT      O21163   8.910   2.706   8.660
 6974WAT     H121164   8.888   2.647   8.582
 6974WAT     H221165   8.879   2.799   8.642
 6975WAT      O21166   3.284   4.683   1.778
 6975WAT     H121167   3.283   4.699   1.680
 6975WAT     H221168   3.208   4.623   1.803
 6976WAT      O21169   6.562   0.186   8.816
 6976WAT     H121170   6.491   0.152   8.877
 6976WAT     H221171   6.556   0.140   8.728
 6977WAT      O21172   9.883   8.493   9.889
 6977WAT     H121173   9.834   8.415   9.851
 6977WAT     H221174   9.912   8.472   9.982
 6978WAT      O21175   6.116   8.756   7.888
 6978WAT     H121176   6.096   8.854   7.894
 6978WAT     H221177   6.133   8.720   7.979
 6979WAT      O21178   3.081   4.044   5.275
 6979WAT     H121179   3.074   3.945   5.263
 6979WAT     H221180   3.036   4.070   5.360
 6980WAT      O21181   1.386   4.865   4.866
 6980WAT     H121182   1.344   4.792   4.813
 6980WAT     H221183   1.413   4.831   4.956
 6981WAT      O21184   2.553   9.085   7.777
 6981WAT     H121185   2.608   9.098   7.860
 6981WAT     H221186   2.460   9.057   7.803
 6982WAT      O21187   6.323   8.522   3.945
 6982WAT     H121188   6.280   8.445   3.898
 6982WAT     H221189   6.302   8.607   3.895
 6983WAT      O21190   0.137   6.462   8.934
 6983WAT     H121191   0.101   6.484   8.843
 6983WAT     H221192   0.138   6.545   8.990
 6984WAT      O21193   1.614   6.357   0.568
 6984WAT     H121194   1.620   6.259   0.554
 6984WAT     H221195   1.549   6.376   0.641
 6985WAT      O21196   9.741   5.093   9.341
 6985WAT     H121197   9.681   5.167   9.312
 6985WAT     H221198   9.833   5.129   9.358
 6986WAT      O21199   5.515   7.187   5.781
 6986WAT     H121200   5.430   7.205   5.832
 6986WAT     H221201   5.582   7.146   5.842
 6987WAT      O21202   3.060   0.564   0.303
 6987WAT     H121203   3.115   0.482   0.315
 6987WAT     H221204   2.981   0.543   0.245
 6988WAT      O21205   3.176   8.400   1.252
 6988WAT     H121206   3.095   8.436   1.205
 6988WAT     H221207   3.158   8.397   1.351
 6989WAT      O21208   6.088   9.628   4.153
 6989WAT     H121209   6.036   9.551   4.118
 6989WAT     H221210   6.179   9.597   4.182
 6990WAT      O21211   4.549   9.284   3.077
 6990WAT     H121212   4.579   9.359   3.019
 6990WAT     H221213   4.621   9.261   3.142
 6991WAT      O21214   8.014   0.593   2.109
 6991WAT     H121215   7.921   0.627   2.126
 6991WAT     H221216   8.071   0.669   2.079
 6992WAT      O21217   6.451   0.779   0.385
 6992WAT     H121218   6.358   0.802   0.355
 6992WAT     H221219   6.488   0.853   0.440
 6993WAT      O21220   1.869   9.357   1.132
 6993WAT     H121221   1.881   9.275   1.189
 6993WAT     H221222   1.918   9.344   1.046
 6994WAT      O21223   6.133   6.809   2.088
 6994WAT     H121224   6.100   6.871   2.016
 6994WAT     H221225   6.152   6.862   2.171
 6995WAT      O21226   5.952   0.492   1.855
 6995WAT     H121227   6.050   0.471   1.852
 6995WAT     H221228   5.901   0.415   1.816
 6996WAT      O21229   0.922   5.533   1.551
 6996WAT     H121230   0.928   5.479   1.635
 6996WAT     H221231   1.002   5.515   1.494
 6997WAT      O21232   7.859   0.492   3.126
 6997WAT     H121233   7.772   0.463   3.166
 6997WAT     H221234   7.841   0.548   3.045
 6998WAT      O21235   7.495   5.656   7.306
 6998WAT     H121236   7.496   5.557   7.295
 6998WAT     H221237   7.464   5.699   7.221
 6999WAT      O21238   5.160   0.546   2.776
 6999WAT     H121239   5.154   0.627   2.834
 6999WAT     H221240   5.113   0.469   2.820
 7000WAT      O21241   2.114   9.690   1.944
 7000WAT     H121242   2.154   9.770   1.898
 7000WAT     H221243   2.140   9.692   2.041
 7001WAT      O21244   2.746   2.606   3.376
 7001WAT     H121245   2.692   2.686   3.403
 7001WAT     H221246   2.805   2.629   3.299
 7002WAT      O21247   9.213   5.954   3.061
 7002WAT     H121248   9.141   5.955   2.992
 7002WAT     H221249   9.300   5.980   3.018
 7003WAT      O21250   7.109   1.208   4.017
 7003WAT     H121251   7.131   1.305   4.028
 7003WAT     H221252   7.033   1.198   3.952
 7004WAT      O21253   6.115   8.622   1.025
 7004WAT     H121254   6.161   8.541   1.061
 7004WAT     H221255   6.016   8.605   1.023
 7005WAT      O21256   7.252   7.935   5.073
 7005WAT     H121257   7.257   7.988   4.988
 7005WAT     H221258   7.317   7.973   5.139
 7006WAT      O21259   6.559   2.479   1.682
 7006WAT     H121260   6.619   2.554   1.709
 7006WAT     H221261   6.605   2.422   1.614
 7007WAT      O21262   0.111   9.090   1.198
 7007WAT     H121263   0.056   9.094   1.115
 7007WAT     H221264   0.208   9.091   1.174
 7008WAT      O21265   4.426   5.756   6.828
 7008WAT     H121266   4.366   5.693   6.780
 7008WAT     H221267   4.471   5.709   6.904
 7009WAT      O21268   8.769   9.603   7.491
 7009WAT     H121269   8.829   9.576   7.566
 7009WAT     H221270   8.813   9.676   7.438
 7010WAT      O21271   2.563   3.163   3.056
 7010WAT     H121272   2.530   3.167   2.961
 7010WAT     H221273   2.485   3.176   3.118
 7011WAT      O21274   1.281   1.960   0.861
 7011WAT     H121275   1.343   2.034   0.887
 7011WAT     H221276   1.192   1.998   0.837
 7012WAT      O21277   7.514   8.190   9.669
 7012WAT     H121278   7.448   8.248   9.717
 7012WAT     H221279   7.570   8.142   9.736
 7013WAT      O21280   4.451   9.168   6.745
 7013WAT     H121281   4.468   9.113   6.663
 7013WAT     H221282   4.533   9.171   6.801
 7014WAT      O21283   4.871   0.355   6.368
 7014WAT     H121284   4.898   0.414   6.445
 7014WAT     H221285   4.815   0.407   6.304
 7015WAT      O21286   8.449   1.359   7.998
 7015WAT     H121287   8.445   1.278   8.056
 7015WAT     H221288   8.366   1.413   8.010
 7016WAT      O21289   9.740   4.317   3.379
 7016WAT     H121290   9.770   4.398   3.431
 7016WAT     H221291   9.641   4.309   3.384
 7017WAT      O21292   7.989   0.289   0.946
 7017WAT     H121293   7.922   0.311   1.017
 7017WAT     H221294   7.947   0.296   0.856
 7018WAT      O21295   7.438   0.148   4.614
 7018WAT     H121296   7.350   0.195   4.621
 7018WAT     H221297   7.508   0.212   4.582
 7019WAT      O21298   6.177   6.393   9.425
 7019WAT     H121299   6.169   6.302   9.383
 7019WAT     H221300   6.177   6.463   9.354
 7020WAT      O21301   1.285   4.195   4.834
 7020WAT     H121302   1.350   4.170   4.906
 7020WAT     H221303   1.201   4.144   4.846
 7021WAT      O21304   2.787   2.011   2.960
 7021WAT     H121305   2.703   1.973   2.998
 7021WAT     H221306   2.774   2.029   2.863
 7022WAT      O21307   6.929   2.277   4.724
 7022WAT     H121308   7.025   2.254   4.705
 7022WAT     H221309   6.876   2.268   4.640
 7023WAT      O21310   6.629   3.249   0.426
 7023WAT     H121311   6.580   3.285   0.505
 7023WAT     H221312   6.719   3.293   0.419
 7024WAT      O21313   8.104   6.394   8.906
 7024WAT     H121314   8.171   6.425   8.838
 7024WAT     H221315   8.134   6.307   8.945
 7025WAT      O21316   7.283   1.574   4.668
 7025WAT     H121317   7.291   1.496   4.605
 7025WAT     H221318   7.342   1.648   4.636
 7026WAT      O21319   2.480   9.619   6.261
 7026WAT     H121320   2.436   9.705   6.288
 7026WAT     H221321   2.411   9.546   6.259
 7027WAT      O21322   1.939   3.790   8.965
 7027WAT     H121323   1.913   3.693   8.968
 7027WAT     H221324   1.892   3.835   8.889
 7028WAT      O21325   0.709   2.016   5.624
 7028WAT     H121326   0.672   1.952   5.557
 7028WAT     H221327   0.783   2.068   5.582
 7029WAT      O21328   0.510   8.152   0.782
 7029WAT     H121329   0.477   8.237   0.823
 7029WAT     H221330   0.553   8.173   0.694
 7030WAT      O21331   3.524   4.481   5.537
 7030WAT     H121332   3.471   4.561   5.510
 7030WAT     H221333   3.621   4.506   5.545
 7031WAT      O21334   1.228   8.186   2.217
 7031WAT     H121335   1.290   8.125   2.266
 7031WAT     H221336   1.209   8.148   2.127
 7032WAT      O21337   0.142   0.435   8.459
 7032WAT     H121338   0.199   0.509   8.493
 7032WAT     H221339   0.046   0.462   8.462
 7033WAT      O21340   3.429   4.464   0.306
 7033WAT     H121341   3.476   4.377   0.317
 7033WAT     H221342   3.479   4.520   0.239
 7034WAT      O21343   8.471   5.207   0.912
 7034WAT     H121344   8.528   5.164   0.983
 7034WAT     H221345   8.418   5.136   0.865
 7035WAT      O21346   1.687   3.054   9.053
 7035WAT     H121347   1.656   3.047   9.148
 7035WAT     H221348   1.627   2.999   8.994
 7036WAT      O21349   8.639   7.142   0.451
 7036WAT     H121350   8.701   7.080   0.402
 7036WAT     H221351   8.683   7.173   0.535
 7037WAT      O21352   4.999   7.915   8.680
 7037WAT     H121353   4.923   7.968   8.641
 7037WAT     H221354   4.972   7.819   8.685
 7038WAT      O21355   9.135   1.292   0.338
 7038WAT     H121356   9.126   1.200   0.301
 7038WAT     H221357   9.064   1.351   0.298
 7039WAT      O21358   8.262   2.588   9.472
 7039WAT     H121359   8.305   2.522   9.410
 7039WAT     H221360   8.207   2.539   9.540
 7040WAT      O21361   5.100   2.671   1.623
 7040WAT     H121362   5.152   2.751   1.591
 7040WAT     H221363   5.060   2.691   1.713
 7041WAT      O21364   4.332   5.256   3.910
 7041WAT     H121365   4.351   5.353   3.896
 7041WAT     H221366   4.390   5.202   3.849
 7042WAT      O21367   3.550   4.362   0.610
 7042WAT     H121368   3.632   4.381   0.664
 7042WAT     H221369   3.542   4.430   0.537
 7043WAT      O21370   6.609   6.679   6.988
 7043WAT     H121371   6.689   6.679   7.048
 7043WAT     H221372   6.527   6.697   7.043
 7044WAT      O21373   8.356   2.674   4.215
 7044WAT     H121374   8.390   2.666   4.122
 7044WAT     H221375   8.412   2.620   4.277
 7045WAT      O21376   6.622   8.446   1.957
 7045WAT     H121377   6.562   8.520   1.927
 7045WAT     H221378   6.648   8.461   2.053
 7046WAT      O21379   8.592   7.643   4.873
 7046WAT     H121380   8.548   7.568   4.922
 7046WAT     H221381   8.616   7.716   4.937
 7047WAT      O21382   7.027   5.746   3.271
 7047WAT     H121383   7.062   5.653   3.286
 7047WAT     H221384   7.052   5.803   3.349
 7048WAT      O21385   6.343   4.315   8.877
 7048WAT     H121386   6.379   4.322   8.970
 7048WAT     H221387   6.406   4.360   8.813
 7049WAT      O21388   9.126   0.657   7.731
 7049WAT     H121389   9.126   0.755   7.753
 7049WAT     H221390   9.077   0.607   7.802
 7050WAT      O21391   2.484   6.160   1.206
 7050WAT     H121392   2.457   6.256   1.215
 7050WAT     H221393   2.521   6.127   1.293
 7051WAT      O21394   0.291   2.641   8.613
 7051WAT     H121395   0.229   2.709   8.651
 7051WAT     H221396   0.353   2.608   8.684
 7052WAT      O21397   2.315   3.697   7.131
 7052WAT     H121398   2.273   3.788   7.126
 7052WAT     H221399   2.373   3.692   7.213
 7053WAT      O21400   5.719   2.602   5.259
 7053WAT     H121401   5.725   2.504   5.278
 7053WAT     H221402   5.694   2.651   5.342
 7054WAT      O21403   8.935   7.261   1.576
 7054WAT     H121404   9.002   7.335   1.566
 7054WAT     H221405   8.901   7.260   1.670
 7055WAT      O21406   9.583   4.041   2.877
 7055WAT     H121407   9.498   3.988   2.879
 7055WAT     H221408   9.654   3.991   2.926
 7056WAT      O21409   9.807   4.203   2.939
 7056WAT     H121410   9.708   4.203   2.930
 7056WAT     H221411   9.848   4.153   2.863
 7057WAT      O21412   1.827   6.828   3.483
 7057WAT     H121413   1.738   6.784   3.493
 7057WAT     H221414   1.863   6.809   3.391
 7058WAT      O21415   9.253   8.076   2.446
 7058WAT     H121416   9.231   8.097   2.351
 7058WAT     H221417   9.256   8.161   2.499
 7059WAT      O21418   7.225   9.349   6.590
 7059WAT     H121419   7.192   9.399   6.670
 7059WAT     H221420   7.323   9.366   6.577
 7060WAT      O21421   3.987   2.604   6.785
 7060WAT     H121422   3.918   2.533   6.792
 7060WAT     H221423   3.942   2.692   6.764
 7061WAT      O21424   8.194   7.015   9.077
 7061WAT     H121425   8.198   6.915   9.082
 7061WAT     H221426   8.287   7.052   9.076
 7062WAT      O21427   0.252   3.905   7.121
 7062WAT     H121428   0.301   3.902   7.033
 7062WAT     H221429   0.199   3.989   7.126
 7063WAT      O21430   5.995   4.425   1.590
 7063WAT     H121431   5.956   4.341   1.627
 7063WAT     H221432   5.988   4.498   1.658
 7064WAT      O21433   9.582   4.755   3.791
 7064WAT     H121434   9.510   4.691   3.764
 7064WAT     H221435   9.560   4.846   3.758
 7065WAT      O21436   7.008   8.048   2.916
 7065WAT     H121437   7.065   7.972   2.887
 7065WAT     H221438   6.913   8.031   2.888
 7066WAT      O21439   9.119   2.526   3.869
 7066WAT     H121440   9.096   2.616   3.908
 7066WAT     H221441   9.197   2.488   3.919
 7067WAT      O21442   7.487   3.471   8.911
 7067WAT     H121443   7.404   3.528   8.914
 7067WAT     H221444   7.567   3.529   8.928
 7068WAT      O21445   6.029   5.305   0.750
 7068WAT     H121446   6.045   5.249   0.832
 7068WAT     H221447   5.937   5.344   0.754
 7069WAT      O21448   1.283   9.342   1.582
 7069WAT     H121449   1.290   9.244   1.559
 7069WAT     H221450   1.294   9.354   1.680
 7070WAT      O21451   6.048   7.445   6.229
 7070WAT     H121452   6.063   7.468   6.325
 7070WAT     H221453   6.136   7.431   6.183
 7071WAT      O21454   9.368   4.317   5.748
 7071WAT     H121455   9.392   4.411   5.725
 7071WAT     H221456   9.269   4.309   5.761
 7072WAT      O21457   0.716   3.020   4.531
 7072WAT     H121458   0.632   3.072   4.517
 7072WAT     H221459   0.795   3.081   4.519
 7073WAT      O21460   3.092   4.296   6.589
 7073WAT     H121461   3.072   4.288   6.686
 7073WAT     H221462   3.083   4.391   6.560
 7074WAT      O21463   2.376   4.320   4.355
 7074WAT     H121464   2.356   4.380   4.278
 7074WAT     H221465   2.290   4.282   4.391
 7075WAT      O21466   3.704   6.337   6.766
 7075WAT     H121467   3.651   6.394   6.829
 7075WAT     H221468   3.649   6.260   6.735
 7076WAT      O21469   6.284   4.740   9.698
 7076WAT     H121470   6.353   4.691   9.751
 7076WAT     H221471   6.318   4.830   9.674
 7077WAT      O21472   6.525   9.655   9.061
 7077WAT     H121473   6.539   9.680   9.157
 7077WAT     H221474   6.613   9.630   9.020
 7078WAT      O21475   9.880   2.739   1.703
 7078WAT     H121476   9.912   2.817   1.649
 7078WAT     H221477   9.803   2.768   1.760
 7079WAT      O21478   3.070   9.366   6.620
 7079WAT     H121479   3.057   9.422   6.539
 7079WAT     H221480   3.044   9.271   6.600
 7080WAT      O21481   5.976   0.671   0.973
 7080WAT     H121482   6.019   0.749   0.928
 7080WAT     H221483   5.950   0.603   0.903
 7081WAT      O21484   0.472   6.084   8.860
 7081WAT     H121485   0.386   6.134   8.855
 7081WAT     H221486   0.480   6.038   8.948
 7082WAT      O21487   0.168   9.315   7.783
 7082WAT     H121488   0.126   9.339   7.695
 7082WAT     H221489   0.213   9.226   7.776
 7083WAT      O21490   2.597   6.107   2.098
 7083WAT     H121491   2.673   6.168   2.121
 7083WAT     H221492   2.631   6.032   2.042
 7084WAT      O21493   1.372   3.137   3.427
 7084WAT     H121494   1.321   3.109   3.508
 7084WAT     H221495   1.359   3.235   3.412
 7085WAT      O21496   4.539   4.475   3.614
 7085WAT     H121497   4.628   4.494   3.656
 7085WAT     H221498   4.466   4.500   3.677
 7086WAT      O21499   2.364   0.907   2.169
 7086WAT     H121500   2.289   0.904   2.102
 7086WAT     H221501   2.365   0.823   2.222
 7087WAT      O21502   8.992   9.013   7.201
 7087WAT     H121503   8.924   9.010   7.127
 7087WAT     H221504   9.084   9.006   7.162
 7088WAT      O21505   1.356   7.020   4.233
 7088WAT     H121506   1.385   7.116   4.229
 7088WAT     H221507   1.383   6.974   4.149
 7089WAT      O21508   7.288   6.900   7.859
 7089WAT     H121509   7.212   6.943   7.908
 7089WAT     H221510   7.371   6.907   7.915
 7090WAT      O21511   0.003   7.556   2.621
 7090WAT     H121512   0.069   7.631   2.623
 7090WAT     H221513  -0.010   7.525   2.527
 7091WAT      O21514   1.068   6.030   3.508
 7091WAT     H121515   1.151   6.045   3.562
 7091WAT     H221516   1.015   5.955   3.549
 7092WAT      O21517   8.977   8.556   5.103
 7092WAT     H121518   8.921   8.619   5.158
 7092WAT     H221519   8.930   8.468   5.095
 7093WAT      O21520   6.853   1.343   9.829
 7093WAT     H121521   6.887   1.270   9.888
 7093WAT     H221522   6.776   1.308   9.774
 7094WAT      O21523   5.816   7.019   9.323
 7094WAT     H121524   5.790   6.936   9.274
 7094WAT     H221525   5.808   7.098   9.262
 7095WAT      O21526   9.194   8.183   5.731
 7095WAT     H121527   9.160   8.147   5.818
 7095WAT     H221528   9.120   8.183   5.664
 7096WAT      O21529   5.079   0.358   2.953
 7096WAT     H121530   5.169   0.342   2.994
 7096WAT     H221531   5.009   0.356   3.025
 7097WAT      O21532   4.275   1.159   0.074
 7097WAT     H121533   4.232   1.074   0.104
 7097WAT     H221534   4.373   1.155   0.094
 7098WAT      O21535   5.960   6.900   1.851
 7098WAT     H121536   5.886   6.952   1.895
 7098WAT     H221537   6.006   6.957   1.783
 7099WAT      O21538   2.565   0.496   3.963
 7099WAT     H121539   2.494   0.436   3.927
 7099WAT     H221540   2.567   0.581   3.910
 7100WAT      O21541   9.578   7.126   5.241
 7100WAT     H121542   9.516   7.098   5.313
 7100WAT     H221543   9.671   7.133   5.277
 7101WAT      O21544   5.909   1.276   0.780
 7101WAT     H121545   5.904   1.180   0.753
 7101WAT     H221546   5.855   1.331   0.716
 7102WAT      O21547   0.402   8.652   0.984
 7102WAT     H121548   0.314   8.681   1.022
 7102WAT     H221549   0.470   8.648   1.057
 7103WAT      O21550   0.239   0.569   2.999
 7103WAT     H121551   0.317   0.583   2.938
 7103WAT     H221552   0.271   0.567   3.094
 7104WAT      O21553   8.278   5.681   5.452
 7104WAT     H121554   8.309   5.707   5.360
 7104WAT     H221555   8.305   5.586   5.471
 7105WAT      O21556   8.608   2.564   5.576
 7105WAT     H121557   8.670   2.634   5.540
 7105WAT     H221558   8.584   2.586   5.671
 7106WAT      O21559   2.931   5.342   8.272
 7106WAT     H121560   2.901   5.341   8.177
 7106WAT     H221561   2.977   5.255   8.294
 7107WAT      O21562   0.368   9.358   8.360
 7107WAT     H121563   0.457   9.376   8.403
 7107WAT     H221564   0.319   9.289   8.413
 7108WAT      O21565   3.214   0.669   7.134
 7108WAT     H121566   3.124   0.624   7.136
 7108WAT     H221567   3.284   0.601   7.112
 7109WAT      O21568   4.176   1.527   6.341
 7109WAT     H121569   4.199   1.532   6.244
 7109WAT     H221570   4.175   1.431   6.370
 7110WAT      O21571   8.089   5.904   4.886
 7110WAT     H121572   8.019   5.976   4.887
 7110WAT     H221573   8.167   5.934   4.831
 7111WAT      O21574   3.534   2.177   3.139
 7111WAT     H121575   3.546   2.117   3.218
 7111WAT     H221576   3.622   2.215   3.112
 7112WAT      O21577   2.029   6.645   3.814
 7112WAT     H121578   1.947   6.688   3.777
 7112WAT     H221579   2.068   6.583   3.746
 7113WAT      O21580   7.535   1.191   0.456
 7113WAT     H121581   7.560   1.223   0.364
 7113WAT     H221582   7.545   1.266   0.521
 7114WAT      O21583   9.838   3.796   1.940
 7114WAT     H121584   9.910   3.800   1.870
 7114WAT     H221585   9.773   3.723   1.916
 7115WAT      O21586   0.573   1.473   6.712
 7115WAT     H121587   0.496   1.505   6.656
 7115WAT     H221588   0.656   1.473   6.656
 7116WAT      O21589   2.332   6.290   7.049
 7116WAT     H121590   2.408   6.300   6.985
 7116WAT     H221591   2.318   6.377   7.097
 7117WAT      O21592   5.115   0.434   4.498
 7117WAT     H121593   5.141   0.342   4.471
 7117WAT     H221594   5.029   0.432   4.549
 7118WAT      O21595   8.095   6.334   4.083
 7118WAT     H121596   8.165   6.263   4.081
 7118WAT     H221597   8.137   6.421   4.106
 7119WAT      O21598   8.138   1.083   7.260
 7119WAT     H121599   8.097   1.158   7.311
 7119WAT     H221600   8.154   1.005   7.321
 7120WAT      O21601   3.238   0.098   7.177
 7120WAT     H121602   3.177   0.160   7.226
 7120WAT     H221603   3.195   0.069   7.091
 7121WAT      O21604   7.247   0.009   6.454
 7121WAT     H121605   7.198   0.096   6.461
 7121WAT     H221606   7.301  -0.005   6.536
 7122WAT      O21607   3.743   7.881   9.161
 7122WAT     H121608   3.647   7.905   9.150
 7122WAT     H221609   3.757   7.786   9.134
 7123WAT      O21610   7.108   5.161   4.865
 7123WAT     H121611   7.118   5.062   4.854
 7123WAT     H221612   7.181   5.208   4.815
 7124WAT      O21613   3.688   1.030   4.086
 7124WAT     H121614   3.746   0.957   4.050
 7124WAT     H221615   3.735   1.077   4.161
 7125WAT      O21616   3.810   8.750   4.339
 7125WAT     H121617   3.837   8.819   4.271
 7125WAT     H221618   3.816   8.788   4.430
 7126WAT      O21619   1.693   3.225   4.242
 7126WAT     H121620   1.780   3.259   4.278
 7126WAT     H221621   1.699   3.219   4.142
 7127WAT      O21622   0.940   8.179   1.429
 7127WAT     H121623   0.943   8.270   1.387
 7127WAT     H221624   1.009   8.172   1.500
 7128WAT      O21625   2.338   2.390   9.667
 7128WAT     H121626   2.334   2.397   9.766
 7128WAT     H221627   2.416   2.333   9.641
 7129WAT      O21628   7.366   5.145   1.728
 7129WAT     H121629   7.447   5.202   1.716
 7129WAT     H221630   7.379   5.057   1.683
 7130WAT      O21631   4.690   1.492   0.223
 7130WAT     H121632   4.593   1.469   0.230
 7130WAT     H221633   4.719   1.488   0.128
 7131WAT      O21634   6.181   5.982   3.124
 7131WAT     H121635   6.168   5.961   3.027
 7131WAT     H221636   6.201   5.897   3.174
 7132WAT      O21637   3.628   6.387   1.471
 7132WAT     H121638   3.556   6.366   1.537
 7132WAT     H221639   3.608   6.340   1.385
 7133WAT      O21640   3.761   7.810   0.919
 7133WAT     H121641   3.836   7.748   0.897
 7133WAT     H221642   3.726   7.789   1.010
 7134WAT      O21643   7.514   8.424   6.986
 7134WAT     H121644   7.463   8.379   6.912
 7134WAT     H221645   7.453   8.487   7.034
 7135WAT      O21646   7.786   5.628   7.694
 7135WAT     H121647   7.765   5.539   7.654
 7135WAT     H221648   7.772   5.699   7.625
 7136WAT      O21649   3.738   3.350   1.005
 7136WAT     H121650   3.741   3.443   1.044
 7136WAT     H221651   3.811   3.340   0.938
 7137WAT      O21652   0.641   9.285   7.586
 7137WAT     H121653   0.632   9.236   7.673
 7137WAT     H221654   0.559   9.340   7.570
 7138WAT      O21655   7.703   2.249   8.601
 7138WAT     H121656   7.782   2.264   8.661
 7138WAT     H221657   7.735   2.214   8.513
 7139WAT      O21658   9.760   0.570   8.081
 7139WAT     H121659   9.745   0.607   7.990
 7139WAT     H221660   9.692   0.608   8.144
 7140WAT      O21661   3.073   4.132   9.431
 7140WAT     H121662   2.986   4.083   9.438
 7140WAT     H221663   3.057   4.229   9.449
 7141WAT      O21664   3.500   4.491   1.394
 7141WAT     H121665   3.495   4.588   1.371
 7141WAT     H221666   3.495   4.436   1.310
 7142WAT      O21667   9.268   8.728   5.917
 7142WAT     H121668   9.229   8.761   5.830
 7142WAT     H221669   9.272   8.628   5.915
 7143WAT      O21670   7.417   7.688   5.168
 7143WAT     H121671   7.491   7.753   5.190
 7143WAT     H221672   7.350   7.733   5.108
 7144WAT      O21673   7.743   0.941   8.447
 7144WAT     H121674   7.791   0.853   8.449
 7144WAT     H221675   7.682   0.947   8.526
 7145WAT      O21676   4.014   3.697   8.228
 7145WAT     H121677   4.029   3.774   8.167
 7145WAT     H221678   4.075   3.622   8.203
 7146WAT      O21679   8.075   1.431   8.413
 7146WAT     H121680   8.052   1.500   8.482
 7146WAT     H221681   8.009   1.356   8.419
 7147WAT      O21682   1.937   9.584   1.609
 7147WAT     H121683   2.011   9.652   1.610
 7147WAT     H221684   1.972   9.497   1.574
 7148WAT      O21685   7.843   6.572   1.421
 7148WAT     H121686   7.772   6.635   1.389
 7148WAT     H221687   7.803   6.483   1.441
 7149WAT      O21688   9.598   6.645   2.856
 7149WAT     H121689   9.582   6.638   2.758
 7149WAT     H221690   9.624   6.555   2.892
 7150WAT      O21691   9.493   2.462   0.606
 7150WAT     H121692   9.587   2.451   0.637
 7150WAT     H221693   9.491   2.523   0.527
 7151WAT      O21694   9.007   3.802   3.311
 7151WAT     H121695   8.985   3.888   3.358
 7151WAT     H221696   9.041   3.822   3.219
 7152WAT      O21697   5.206   0.073   9.281
 7152WAT     H121698   5.117   0.092   9.238
 7152WAT     H221699   5.268   0.149   9.265
 7153WAT      O21700   2.840   1.035   8.712
 7153WAT     H121701   2.921   1.015   8.768
 7153WAT     H221702   2.771   1.081   8.768
 7154WAT      O21703   5.055   8.180   9.006
 7154WAT     H121704   4.971   8.234   9.008
 7154WAT     H221705   5.106   8.202   8.922
 7155WAT      O21706   4.486   8.850   0.515
 7155WAT     H121707   4.533   8.788   0.452
 7155WAT     H221708   4.549   8.876   0.589
 7156WAT      O21709   7.449   4.898   2.397
 7156WAT     H121710   7.415   4.990   2.379
 7156WAT     H221711   7.534   4.903   2.448
 7157WAT      O21712   8.869   4.807   2.335
 7157WAT     H121713   8.941   4.752   2.292
 7157WAT     H221714   8.821   4.860   2.266
 7158WAT      O21715   6.769   5.432   6.827
 7158WAT     H121716   6.741   5.481   6.744
 7158WAT     H221717   6.689   5.409   6.881
 7159WAT      O21718   7.758   5.267   0.869
 7159WAT     H121719   7.766   5.261   0.769
 7159WAT     H221720   7.831   5.326   0.904
 7160WAT      O21721   6.792   3.237   4.822
 7160WAT     H121722   6.776   3.297   4.900
 7160WAT     H221723   6.886   3.249   4.790
 7161WAT      O21724   5.188   8.287   0.213
 7161WAT     H121725   5.281   8.273   0.249
 7161WAT     H221726   5.151   8.372   0.249
 7162WAT      O21727   2.506   9.554   4.142
 7162WAT     H121728   2.548   9.480   4.194
 7162WAT     H221729   2.406   9.547   4.147
 7163WAT      O21730   8.430   1.780   7.969
 7163WAT     H121731   8.453   1.728   7.887
 7163WAT     H221732   8.341   1.750   8.004
 7164WAT      O21733   6.412   7.358   8.900
 7164WAT     H121734   6.464   7.436   8.866
 7164WAT     H221735   6.463   7.273   8.883
 7165WAT      O21736   8.742   1.516   3.571
 7165WAT     H121737   8.761   1.576   3.649
 7165WAT     H221738   8.645   1.491   3.572
 7166WAT      O21739   6.414   8.878   2.866
 7166WAT     H121740   6.471   8.881   2.784
 7166WAT     H221741   6.376   8.786   2.877
 7167WAT      O21742   2.789   8.637   1.338
 7167WAT     H121743   2.730   8.566   1.377
 7167WAT     H221744   2.872   8.645   1.393
 7168WAT      O21745   0.265   8.628   5.375
 7168WAT     H121746   0.230   8.691   5.305
 7168WAT     H221747   0.335   8.674   5.429
 7169WAT      O21748   8.469   7.498   1.770
 7169WAT     H121749   8.547   7.453   1.812
 7169WAT     H221750   8.417   7.432   1.716
 7170WAT      O21751   3.310   1.448   9.647
 7170WAT     H121752   3.282   1.540   9.618
 7170WAT     H221753   3.341   1.396   9.567
 7171WAT      O21754   0.126   8.825   2.311
 7171WAT     H121755   0.030   8.846   2.332
 7171WAT     H221756   0.183   8.851   2.389
 7172WAT      O21757   3.173   4.069   0.745
 7172WAT     H121758   3.251   4.109   0.698
 7172WAT     H221759   3.203   3.990   0.799
 7173WAT      O21760   4.878   1.168   2.386
 7173WAT     H121761   4.829   1.210   2.462
 7173WAT     H221762   4.813   1.142   2.315
 7174WAT      O21763   0.442   0.985   8.273
 7174WAT     H121764   0.493   0.933   8.205
 7174WAT     H221765   0.483   1.076   8.283
 7175WAT      O21766   8.237   7.038   3.030
 7175WAT     H121767   8.333   7.035   3.005
 7175WAT     H221768   8.214   7.128   3.068
 7176WAT      O21769   0.233   3.568   6.034
 7176WAT     H121770   0.157   3.630   6.050
 7176WAT     H221771   0.281   3.595   5.951
 7177WAT      O21772   5.247   9.794   1.058
 7177WAT     H121773   5.213   9.876   1.103
 7177WAT     H221774   5.298   9.738   1.123
 7178WAT      O21775   7.482   0.831   0.382
 7178WAT     H121776   7.431   0.904   0.428
 7178WAT     H221777   7.509   0.862   0.291
 7179WAT      O21778   3.606   1.176   3.276
 7179WAT     H121779   3.649   1.174   3.366
 7179WAT     H221780   3.603   1.083   3.239
 7180WAT      O21781   1.740   3.326   0.067
 7180WAT     H121782   1.680   3.404   0.083
 7180WAT     H221783   1.803   3.346  -0.008
 7181WAT      O21784   8.524   0.176   4.193
 7181WAT     H121785   8.591   0.110   4.228
 7181WAT     H221786   8.567   0.265   4.184
 7182WAT      O21787   0.338   8.096   0.071
 7182WAT     H121788   0.377   8.004   0.059
 7182WAT     H221789   0.395   8.163   0.023
 7183WAT      O21790   6.406   7.716   5.763
 7183WAT     H121791   6.332   7.688   5.703
 7183WAT     H221792   6.494   7.685   5.726
 7184WAT      O21793   4.869   7.407   7.632
 7184WAT     H121794   4.777   7.437   7.604
 7184WAT     H221795   4.914   7.481   7.681
 7185WAT      O21796   0.051   1.730   9.707
 7185WAT     H121797   0.128   1.741   9.770
 7185WAT     H221798  -0.012   1.661   9.744
 7186WAT      O21799   2.882   5.182   9.245
 7186WAT     H121800   2.953   5.135   9.297
 7186WAT     H221801   2.855   5.125   9.167
 7187WAT      O21802   7.375   0.186   5.152
 7187WAT     H121803   7.453   0.137   5.112
 7187WAT     H221804   7.328   0.237   5.080
 7188WAT      O21805   6.711   5.999   3.718
 7188WAT     H121806   6.683   6.057   3.641
 7188WAT     H221807   6.689   6.045   3.804
 7189WAT      O21808   2.400   0.584   7.322
 7189WAT     H121809   2.477   0.577   7.258
 7189WAT     H221810   2.356   0.673   7.312
 7190WAT      O21811   3.339   3.526   2.787
 7190WAT     H121812   3.242   3.533   2.767
 7190WAT     H221813   3.355   3.543   2.884
 7191WAT      O21814   6.677   4.969   8.692
 7191WAT     H121815   6.627   5.040   8.742
 7191WAT     H221816   6.617   4.890   8.678
 7192WAT      O21817   4.333   2.067   8.207
 7192WAT     H121818   4.316   1.968   8.202
 7192WAT     H221819   4.280   2.113   8.137
 7193WAT      O21820   7.637   4.014   0.972
 7193WAT     H121821   7.680   4.074   1.040
 7193WAT     H221822   7.603   4.070   0.896
 7194WAT      O21823   9.408   3.772   7.654
 7194WAT     H121824   9.503   3.750   7.630
 7194WAT     H221825   9.348   3.744   7.579
 7195WAT      O21826   0.947   6.545   3.163
 7195WAT     H121827   0.964   6.486   3.242
 7195WAT     H221828   0.941   6.640   3.194
 7196WAT      O21829   2.473   9.052   1.103
 7196WAT     H121830   2.429   8.993   1.036
 7196WAT     H221831   2.545   9.106   1.058
 7197WAT      O21832   9.552   1.805   0.965
 7197WAT     H121833   9.605   1.890   0.968
 7197WAT     H221834   9.512   1.788   1.055
 7198WAT      O21835   0.113   4.918   5.353
 7198WAT     H121836   0.211   4.910   5.369
 7198WAT     H221837   0.095   4.923   5.255
 7199WAT      O21838   7.556   4.528   0.108
 7199WAT     H121839   7.550   4.626   0.129
 7199WAT     H221840   7.555   4.514   0.009
 7200WAT      O21841   7.873   5.694   6.505
 7200WAT     H121842   7.893   5.683   6.408
 7200WAT     H221843   7.954   5.727   6.552
 7201WAT      O21844   9.474   2.265   7.014
 7201WAT     H121845   9.573   2.278   7.002
 7201WAT     H221846   9.436   2.345   7.061
 7202WAT      O21847   5.409   7.656   9.299
 7202WAT     H121848   5.323   7.611   9.321
 7202WAT     H221849   5.452   7.610   9.221
 7203WAT      O21850   1.583   8.931   6.376
 7203WAT     H121851   1.533   9.018   6.381
 7203WAT     H221852   1.662   8.942   6.315
 7204WAT      O21853   6.132   0.273   3.416
 7204WAT     H121854   6.210   0.297   3.359
 7204WAT     H221855   6.052   0.326   3.387
 7205WAT      O21856   5.213   8.206   0.684
 7205WAT     H121857   5.267   8.275   0.732
 7205WAT     H221858   5.121   8.243   0.668
 7206WAT      O21859   0.286   8.101   7.456
 7206WAT     H121860   0.384   8.087   7.466
 7206WAT     H221861   0.237   8.021   7.490
 7207WAT      O21862   6.641   8.279   7.434
 7207WAT     H121863   6.683   8.285   7.344
 7207WAT     H221864   6.642   8.368   7.478
 7208WAT      O21865   4.782   1.945   5.629
 7208WAT     H121866   4.739   1.859   5.601
 7208WAT     H221867   4.758   1.964   5.724
 7209WAT      O21868   6.646   5.653   8.111
 7209WAT     H121869   6.624   5.712   8.033
 7209WAT     H221870   6.647   5.707   8.194
 7210WAT      O21871   0.950   5.348   1.791
 7210WAT     H121872   1.020   5.277   1.789
 7210WAT     H221873   0.960   5.402   1.875
 7211WAT      O21874   8.283   7.207   1.251
 7211WAT     H121875   8.220   7.257   1.192
 7211WAT     H221876   8.236   7.179   1.334
 7212WAT      O21877   9.556   1.146   7.337
 7212WAT     H121878   9.499   1.086   7.281
 7212WAT     H221879   9.632   1.093   7.376
 7213WAT      O21880   6.203   4.321   7.083
 7213WAT     H121881   6.130   4.310   7.016
 7213WAT     H221882   6.187   4.261   7.161
 7214WAT      O21883   9.499   4.899   3.453
 7214WAT     H121884   9.409   4.930   3.423
 7214WAT     H221885   9.546   4.856   3.376
 7215WAT      O21886   8.501   1.584   6.347
 7215WAT     H121887   8.529   1.546   6.258
 7215WAT     H221888   8.402   1.593   6.349
 7216WAT      O21889   4.621   9.623   1.150
 7216WAT     H121890   4.542   9.622   1.211
 7216WAT     H221891   4.677   9.704   1.169
 7217WAT      O21892   2.562   4.741   5.028
 7217WAT     H121893   2.638   4.762   5.089
 7217WAT     H221894   2.596   4.724   4.936
 7218WAT      O21895   1.248   9.089   8.321
 7218WAT     H121896   1.202   9.121   8.239
 7218WAT     H221897   1.243   8.990   8.327
 7219WAT      O21898   3.589   9.407   2.043
 7219WAT     H121899   3.671   9.423   2.098
 7219WAT     H221900   3.614   9.407   1.946
 7220WAT      O21901   6.753   4.366   0.010
 7220WAT     H121902   6.830   4.420  -0.025
 7220WAT     H221903   6.780   4.269   0.014
 7221WAT      O21904   5.965   6.964   7.086
 7221WAT     H121905   6.031   6.912   7.031
 7221WAT     H221906   5.940   7.047   7.037
 7222WAT      O21907   1.458   0.217   9.726
 7222WAT     H121908   1.364   0.224   9.760
 7222WAT     H221909   1.500   0.134   9.761
 7223WAT      O21910   9.802   5.681   3.061
 7223WAT     H121911   9.802   5.583   3.040
 7223WAT     H221912   9.708   5.710   3.081
 7224WAT      O21913   0.045   0.741   2.299
 7224WAT     H121914   0.088   0.694   2.375
 7224WAT     H221915  -0.051   0.714   2.293
 7225WAT      O21916   8.531   7.430   0.367
 7225WAT     H121917   8.535   7.474   0.278
 7225WAT     H221918   8.623   7.425   0.406
 7226WAT      O21919   3.808   7.574   5.797
 7226WAT     H121920   3.757   7.570   5.711
 7226WAT     H221921   3.755   7.530   5.869
 7227WAT      O21922   5.906   0.938   1.532
 7227WAT     H121923   5.872   0.933   1.626
 7227WAT     H221924   5.977   0.869   1.518
 7228WAT      O21925   6.755   5.514   8.561
 7228WAT     H121926   6.681   5.453   8.533
 7228WAT     H221927   6.823   5.519   8.487
 7229WAT      O21928   4.356   4.791   5.405
 7229WAT     H121929   4.363   4.879   5.358
 7229WAT     H221930   4.260   4.766   5.416
 7230WAT      O21931   1.699   9.035   7.278
 7230WAT     H121932   1.771   8.967   7.265
 7230WAT     H221933   1.678   9.043   7.375
 7231WAT      O21934   6.077   9.014   0.181
 7231WAT     H121935   6.122   8.925   0.185
 7231WAT     H221936   6.141   9.082   0.145
 7232WAT      O21937   5.971   3.671   9.444
 7232WAT     H121938   5.944   3.640   9.353
 7232WAT     H221939   5.950   3.768   9.453
 7233WAT      O21940   7.923   0.148   0.068
 7233WAT     H121941   7.945   0.230   0.121
 7233WAT     H221942   7.889   0.175  -0.022
 7234WAT      O21943   4.301   1.626   6.572
 7234WAT     H121944   4.275   1.597   6.480
 7234WAT     H221945   4.272   1.557   6.638
 7235WAT      O21946   6.125   3.055   3.706
 7235WAT     H121947   6.154   3.073   3.800
 7235WAT     H221948   6.161   2.967   3.676
 7236WAT      O21949   6.010   1.972   5.734
 7236WAT     H121950   5.930   2.014   5.692
 7236WAT     H221951   6.076   2.043   5.759
 7237WAT      O21952   3.316   1.199   6.054
 7237WAT     H121953   3.313   1.285   6.105
 7237WAT     H221954   3.372   1.210   5.973
 7238WAT      O21955   7.941   1.875   3.095
 7238WAT     H121956   7.875   1.806   3.066
 7238WAT     H221957   7.955   1.868   3.194
 7239WAT      O21958   4.351   3.175   0.829
 7239WAT     H121959   4.252   3.175   0.844
 7239WAT     H221960   4.383   3.269   0.822
 7240WAT      O21961   9.742   6.432   5.468
 7240WAT     H121962   9.762   6.403   5.374
 7240WAT     H221963   9.644   6.427   5.484
 7241WAT      O21964   2.683   2.714   5.536
 7241WAT     H121965   2.749   2.665   5.479
 7241WAT     H221966   2.694   2.686   5.631
 7242WAT      O21967   2.802   0.959   2.806
 7242WAT     H121968   2.888   0.908   2.802
 7242WAT     H221969   2.816   1.045   2.856
 7243WAT      O21970   4.057   4.545   9.304
 7243WAT     H121971   4.060   4.462   9.360
 7243WAT     H221972   4.017   4.620   9.358
 7244WAT      O21973   8.137   5.797   2.909
 7244WAT     H121974   8.164   5.827   3.001
 7244WAT     H221975   8.065   5.728   2.917
 7245WAT      O21976   6.653   6.143   8.023
 7245WAT     H121977   6.706   6.195   8.090
 7245WAT     H221978   6.612   6.205   7.957
 7246WAT      O21979   4.057   1.552   6.953
 7246WAT     H121980   3.979   1.597   6.995
 7246WAT     H221981   4.085   1.474   7.010
 7247WAT      O21982   1.084   9.600   2.818
 7247WAT     H121983   1.128   9.681   2.856
 7247WAT     H221984   1.057   9.618   2.723
 7248WAT      O21985   8.710   9.225   6.635
 7248WAT     H121986   8.728   9.140   6.684
 7248WAT     H221987   8.637   9.210   6.568
 7249WAT      O21988   5.161   6.297   3.240
 7249WAT     H121989   5.184   6.209   3.281
 7249WAT     H221990   5.131   6.360   3.311
 7250WAT      O21991   1.589   5.209   7.331
 7250WAT     H121992   1.535   5.131   7.300
 7250WAT     H221993   1.583   5.216   7.431
 7251WAT      O21994   5.192   7.177   2.537
 7251WAT     H121995   5.270   7.211   2.485
 7251WAT     H221996   5.213   7.181   2.635
 7252WAT      O21997   0.416   1.198   4.947
 7252WAT     H121998   0.459   1.163   4.864
 7252WAT     H221999   0.320   1.220   4.928
 7253WAT      O22000   8.587   1.968   2.324
 7253WAT     H122001   8.540   1.908   2.390
 7253WAT     H222002   8.675   1.927   2.299
 7254WAT      O22003   2.027   4.598   4.088
 7254WAT     H122004   2.009   4.623   4.183
 7254WAT     H222005   1.958   4.532   4.058
 7255WAT      O22006   6.039   7.247   0.969
 7255WAT     H122007   6.060   7.165   0.916
 7255WAT     H222008   5.966   7.299   0.923
 7256WAT      O22009   7.594   5.147   4.396
 7256WAT     H122010   7.537   5.154   4.478
 7256WAT     H222011   7.584   5.230   4.341
 7257WAT      O22012   0.036   1.778   5.807
 7257WAT     H122013  -0.005   1.816   5.724
 7257WAT     H222014   0.119   1.728   5.783
 7258WAT      O22015   5.157   8.003   7.157
 7258WAT     H122016   5.184   8.059   7.079
 7258WAT     H222017   5.229   8.005   7.226
 7259WAT      O22018   2.475   6.734   6.596
 7259WAT     H122019   2.418   6.792   6.538
 7259WAT     H222020   2.571   6.763   6.588
 7260WAT      O22021   7.977   2.612   4.819
 7260WAT     H122022   7.945   2.532   4.870
 7260WAT     H222023   7.921   2.691   4.844
 7261WAT      O22024   6.132   4.761   7.294
 7261WAT     H122025   6.227   4.778   7.266
 7261WAT     H222026   6.096   4.682   7.245
 7262WAT      O22027   8.306   4.722   3.134
 7262WAT     H122028   8.331   4.808   3.180
 7262WAT     H222029   8.250   4.667   3.195
 7263WAT      O22030   1.395   8.884   2.827
 7263WAT     H122031   1.415   8.913   2.734
 7263WAT     H222032   1.304   8.841   2.830
 7264WAT      O22033   3.595   8.229   2.933
 7264WAT     H122034   3.677   8.287   2.923
 7264WAT     H222035   3.545   8.228   2.847
 7265WAT      O22036   6.170   7.402   9.740
 7265WAT     H122037   6.101   7.366   9.803
 7265WAT     H222038   6.149   7.372   9.647
 7266WAT      O22039   8.153   8.973   6.065
 7266WAT     H122040   8.114   9.045   6.122
 7266WAT     H222041   8.136   8.884   6.108
 7267WAT      O22042   9.310   5.051   9.392
 7267WAT     H122043   9.254   4.992   9.334
 7267WAT     H222044   9.326   5.138   9.345
 7268WAT      O22045   1.890   9.254   6.650
 7268WAT     H122046   1.910   9.162   6.614
 7268WAT     H222047   1.972   9.291   6.692
 7269WAT      O22048   3.021   2.319   7.841
 7269WAT     H122049   3.110   2.298   7.801
 7269WAT     H222050   3.022   2.413   7.875
 7270WAT      O22051   0.842   9.640   0.730
 7270WAT     H122052   0.783   9.641   0.649
 7270WAT     H222053   0.828   9.553   0.779
 7271WAT      O22054   4.330   0.876   9.194
 7271WAT     H122055   4.429   0.865   9.199
 7271WAT     H222056   4.304   0.969   9.223
 7272WAT      O22057   5.068   3.050   2.534
 7272WAT     H122058   5.014   3.040   2.450
 7272WAT     H222059   5.041   2.980   2.600
 7273WAT      O22060   6.462   4.546   9.261
 7273WAT     H122061   6.438   4.639   9.234
 7273WAT     H222062   6.529   4.549   9.335
 7274WAT      O22063   6.176   8.759   7.273
 7274WAT     H122064   6.084   8.796   7.262
 7274WAT     H222065   6.171   8.659   7.277
 7275WAT      O22066   2.609   3.933   0.614
 7275WAT     H122067   2.648   3.943   0.522
 7275WAT     H222068   2.618   3.838   0.644
 7276WAT      O22069   5.763   0.110   5.080
 7276WAT     H122070   5.780   0.111   4.981
 7276WAT     H222071   5.790   0.021   5.117
 7277WAT      O22072   1.221   7.601   2.423
 7277WAT     H122073   1.233   7.670   2.352
 7277WAT     H222074   1.154   7.633   2.490
 7278WAT      O22075   8.009   9.091   9.432
 7278WAT     H122076   7.953   9.085   9.515
 7278WAT     H222077   7.992   9.178   9.387
 7279WAT      O22078   7.586   4.205   4.737
 7279WAT     H122079   7.551   4.254   4.816
 7279WAT     H222080   7.577   4.262   4.655
 7280WAT      O22081   0.020   6.969   8.356
 7280WAT     H122082   0.076   7.037   8.308
 7280WAT     H222083   0.080   6.902   8.400
 7281WAT      O22084   7.701   3.695   6.502
 7281WAT     H122085   7.775   3.709   6.568
 7281WAT     H222086   7.648   3.779   6.493
 7282WAT      O22087   0.487   7.670   8.669
 7282WAT     H122088   0.421   7.740   8.697
 7282WAT     H222089   0.509   7.682   8.572
 7283WAT      O22090   0.793   0.399   7.903
 7283WAT     H122091   0.741   0.323   7.863
 7283WAT     H222092   0.776   0.482   7.851
 7284WAT      O22093   3.286   2.022   6.933
 7284WAT     H122094   3.293   2.088   6.858
 7284WAT     H222095   3.291   2.070   7.020
 7285WAT      O22096   9.072   6.701   6.244
 7285WAT     H122097   8.999   6.724   6.180
 7285WAT     H222098   9.096   6.782   6.298
 7286WAT      O22099   2.057   1.549   9.162
 7286WAT     H122100   2.028   1.475   9.101
 7286WAT     H222101   2.033   1.637   9.121
 7287WAT      O22102   7.048   2.428   6.330
 7287WAT     H122103   7.049   2.412   6.428
 7287WAT     H222104   6.959   2.402   6.293
 7288WAT      O22105   8.874   0.898   8.857
 7288WAT     H122106   8.897   0.805   8.887
 7288WAT     H222107   8.905   0.964   8.927
 7289WAT      O22108   0.406   5.772   7.289
 7289WAT     H122109   0.313   5.755   7.258
 7289WAT     H222110   0.455   5.686   7.299
 7290WAT      O22111   8.706   0.896   3.887
 7290WAT     H122112   8.794   0.854   3.908
 7290WAT     H222113   8.632   0.833   3.911
 7291WAT      O22114   8.004   2.715   2.337
 7291WAT     H122115   8.070   2.788   2.354
 7291WAT     H222116   8.051   2.627   2.340
 7292WAT      O22117   7.969   6.029   3.188
 7292WAT     H122118   8.007   5.994   3.273
 7292WAT     H222119   7.933   6.121   3.204
 7293WAT      O22120   1.317   7.956   4.170
 7293WAT     H122121   1.328   7.857   4.160
 7293WAT     H222122   1.394   7.994   4.221
 7294WAT      O22123   2.516   5.820   4.586
 7294WAT     H122124   2.421   5.848   4.575
 7294WAT     H222125   2.520   5.720   4.592
 7295WAT      O22126   9.173   2.022   3.921
 7295WAT     H122127   9.208   1.929   3.921
 7295WAT     H222128   9.137   2.044   3.831
 7296WAT      O22129   8.858   9.493   4.961
 7296WAT     H122130   8.845   9.461   4.867
 7296WAT     H222131   8.955   9.509   4.977
 7297WAT      O22132   8.184   9.243   7.188
 7297WAT     H122133   8.122   9.165   7.174
 7297WAT     H222134   8.140   9.326   7.153
 7298WAT      O22135   1.605   4.033   6.120
 7298WAT     H122136   1.663   3.977   6.179
 7298WAT     H222137   1.529   3.978   6.085
 7299WAT      O22138   1.227   4.375   5.092
 7299WAT     H122139   1.152   4.382   5.158
 7299WAT     H222140   1.254   4.279   5.083
 7300WAT      O22141   6.972   2.617   9.823
 7300WAT     H122142   6.970   2.641   9.726
 7300WAT     H222143   6.897   2.665   9.871
 7301WAT      O22144   3.413   8.518   6.023
 7301WAT     H122145   3.392   8.482   6.114
 7301WAT     H222146   3.414   8.618   6.026
 7302WAT      O22147   5.785   3.961   1.791
 7302WAT     H122148   5.812   3.869   1.762
 7302WAT     H222149   5.687   3.962   1.812
 7303WAT      O22150   5.886   0.569   2.158
 7303WAT     H122151   5.935   0.539   2.239
 7303WAT     H222152   5.924   0.525   2.077
 7304WAT      O22153   2.955   9.471   1.934
 7304WAT     H122154   3.027   9.523   1.979
 7304WAT     H222155   2.916   9.405   1.999
 7305WAT      O22156   9.825   3.821   5.502
 7305WAT     H122157   9.790   3.889   5.566
 7305WAT     H222158   9.789   3.839   5.411
 7306WAT      O22159   2.433   9.170   6.883
 7306WAT     H122160   2.430   9.267   6.909
 7306WAT     H222161   2.387   9.115   6.953
 7307WAT      O22162   8.697   4.785   4.101
 7307WAT     H122163   8.623   4.720   4.087
 7307WAT     H222164   8.660   4.867   4.146
 7308WAT      O22165   2.886   5.437   9.367
 7308WAT     H122166   2.841   5.474   9.286
 7308WAT     H222167   2.894   5.338   9.358
 7309WAT      O22168   6.695   0.279   2.766
 7309WAT     H122169   6.785   0.242   2.742
 7309WAT     H222170   6.707   0.371   2.805
 7310WAT      O22171   4.077   0.094   0.012
 7310WAT     H122172   4.164   0.047   0.023
 7310WAT     H222173   4.062   0.114  -0.085
 7311WAT      O22174   2.627   4.935   0.144
 7311WAT     H122175   2.666   5.013   0.095
 7311WAT     H222176   2.699   4.867   0.161
 7312WAT      O22177   1.071   2.494   3.301
 7312WAT     H122178   1.106   2.585   3.277
 7312WAT     H222179   1.106   2.427   3.236
 7313WAT      O22180   0.816   6.545   1.459
 7313WAT     H122181   0.766   6.500   1.533
 7313WAT     H222182   0.910   6.562   1.488
 7314WAT      O22183   5.831   0.023   0.429
 7314WAT     H122184   5.774   0.076   0.367
 7314WAT     H222185   5.914  -0.007   0.381
 7315WAT      O22186   8.934   8.691   6.996
 7315WAT     H122187   8.945   8.617   7.062
 7315WAT     H222188   9.011   8.689   6.931
 7316WAT      O22189   5.400   8.047   1.718
 7316WAT     H122190   5.340   7.968   1.730
 7316WAT     H222191   5.445   8.069   1.804
 7317WAT      O22192   1.112   8.625   9.460
 7317WAT     H122193   1.025   8.576   9.455
 7317WAT     H222194   1.101   8.708   9.514
 7318WAT      O22195   8.407   8.667   4.727
 7318WAT     H122196   8.386   8.763   4.705
 7318WAT     H222197   8.505   8.652   4.714
 7319WAT      O22198   0.355   7.461   2.345
 7319WAT     H122199   0.429   7.468   2.412
 7319WAT     H222200   0.308   7.373   2.356
 7320WAT      O22201   6.968   4.020   9.325
 7320WAT     H122202   7.009   4.106   9.295
 7320WAT     H222203   6.906   3.986   9.254
 7321WAT      O22204   7.431   9.833   6.239
 7321WAT     H122205   7.476   9.748   6.213
 7321WAT     H222206   7.370   9.816   6.317
 7322WAT      O22207   8.192   3.453   3.548
 7322WAT     H122208   8.203   3.490   3.640
 7322WAT     H222209   8.113   3.495   3.504
 7323WAT      O22210   6.429   5.435   0.523
 7323WAT     H122211   6.332   5.439   0.546
 7323WAT     H222212   6.475   5.515   0.561
 7324WAT      O22213   3.640   0.301   5.709
 7324WAT     H122214   3.723   0.245   5.720
 7324WAT     H222215   3.652   0.361   5.629
 7325WAT      O22216   3.443   1.269   9.022
 7325WAT     H122217   3.504   1.213   9.077
 7325WAT     H222218   3.470   1.365   9.030
 7326WAT      O22219   5.538   5.461   3.526
 7326WAT     H122220   5.596   5.385   3.498
 7326WAT     H222221   5.583   5.510   3.602
 7327WAT      O22222   7.535   3.395   2.676
 7327WAT     H122223   7.543   3.439   2.765
 7327WAT     H222224   7.440   3.397   2.646
 7328WAT      O22225   5.156   8.592   7.719
 7328WAT     H122226   5.168   8.647   7.802
 7328WAT     H222227   5.067   8.546   7.722
 7329WAT      O22228   8.489   8.972   3.892
 7329WAT     H122229   8.460   9.064   3.919
 7329WAT     H222230   8.546   8.933   3.964
 7330WAT      O22231   7.063   1.073   2.664
 7330WAT     H122232   7.023   1.037   2.579
 7330WAT     H222233   7.020   1.161   2.686
 7331WAT      O22234   0.997   5.143   2.149
 7331WAT     H122235   0.949   5.071   2.099
 7331WAT     H222236   0.931   5.198   2.200
 7332WAT      O22237   2.106   6.468   3.620
 7332WAT     H122238   2.200   6.442   3.642
 7332WAT     H222239   2.098   6.484   3.522
 7333WAT      O22240   4.720   8.974   6.241
 7333WAT     H122241   4.797   8.959   6.179
 7333WAT     H222242   4.672   8.888   6.256
 7334WAT      O22243   4.368   7.345   0.884
 7334WAT     H122244   4.282   7.338   0.933
 7334WAT     H222245   4.403   7.253   0.864
 7335WAT      O22246   4.332   9.784   1.691
 7335WAT     H122247   4.285   9.829   1.767
 7335WAT     H222248   4.422   9.753   1.720
 7336WAT      O22249   7.043   6.094   3.432
 7336WAT     H122250   7.142   6.094   3.441
 7336WAT     H222251   7.018   6.107   3.336
 7337WAT      O22252   7.519   4.577   2.666
 7337WAT     H122253   7.447   4.547   2.603
 7337WAT     H222254   7.504   4.537   2.756
 7338WAT      O22255   5.449   8.590   6.409
 7338WAT     H122256   5.403   8.509   6.445
 7338WAT     H222257   5.382   8.663   6.394
 7339WAT      O22258   5.627   7.372   9.577
 7339WAT     H122259   5.675   7.372   9.665
 7339WAT     H222260   5.538   7.417   9.588
 7340WAT      O22261   0.148   6.723   9.716
 7340WAT     H122262   0.185   6.730   9.623
 7340WAT     H222263   0.183   6.800   9.770
 7341WAT      O22264   1.259   9.777   9.623
 7341WAT     H122265   1.173   9.815   9.590
 7341WAT     H222266   1.271   9.801   9.720
 7342WAT      O22267   6.401   7.323   2.062
 7342WAT     H122268   6.407   7.345   2.159
 7342WAT     H222269   6.492   7.320   2.022
 7343WAT      O22270   9.747   5.021   3.915
 7343WAT     H122271   9.843   4.992   3.907
 7343WAT     H222272   9.705   5.024   3.825
 7344WAT      O22273   4.297   9.533   4.397
 7344WAT     H122274   4.291   9.554   4.495
 7344WAT     H222275   4.205   9.532   4.357
 7345WAT      O22276   6.117   9.018   8.126
 7345WAT     H122277   6.124   8.928   8.170
 7345WAT     H222278   6.090   9.006   8.031
 7346WAT      O22279   6.595   9.769   5.647
 7346WAT     H122280   6.586   9.763   5.547
 7346WAT     H222281   6.684   9.809   5.670
 7347WAT      O22282   4.279   1.269   2.335
 7347WAT     H122283   4.266   1.260   2.236
 7347WAT     H222284   4.367   1.229   2.360
 7348WAT      O22285   9.764   4.332   0.323
 7348WAT     H122286   9.715   4.276   0.390
 7348WAT     H222287   9.862   4.309   0.326
 7349WAT      O22288   2.142   3.089   1.160
 7349WAT     H122289   2.093   3.017   1.210
 7349WAT     H222290   2.080   3.131   1.094
 7350WAT      O22291   5.014   1.260   5.175
 7350WAT     H122292   5.107   1.259   5.139
 7350WAT     H222293   4.953   1.304   5.108
 7351WAT      O22294   3.017   9.513   6.387
 7351WAT     H122295   2.966   9.594   6.359
 7351WAT     H222296   3.115   9.531   6.380
 7352WAT      O22297   4.591   8.930   5.969
 7352WAT     H122298   4.578   9.018   6.015
 7352WAT     H222299   4.661   8.939   5.899
 7353WAT      O22300   6.045   9.817   0.147
 7353WAT     H122301   6.007   9.909   0.135
 7353WAT     H222302   6.100   9.793   0.068
 7354WAT      O22303   7.707   8.646   4.739
 7354WAT     H122304   7.753   8.601   4.816
 7354WAT     H222305   7.774   8.693   4.682
 7355WAT      O22306   8.683   8.970   3.692
 7355WAT     H122307   8.763   8.995   3.747
 7355WAT     H222308   8.606   8.949   3.752
 7356WAT      O22309   0.130   8.044   6.756
 7356WAT     H122310   0.051   8.048   6.817
 7356WAT     H222311   0.142   8.133   6.712
 7357WAT      O22312   0.382   6.901   0.645
 7357WAT     H122313   0.377   7.001   0.647
 7357WAT     H222314   0.398   6.867   0.738
 7358WAT      O22315   0.837   9.108   4.812
 7358WAT     H122316   0.788   9.079   4.894
 7358WAT     H222317   0.925   9.060   4.807
 7359WAT      O22318   2.668   6.922   1.806
 7359WAT     H122319   2.656   6.849   1.738
 7359WAT     H222320   2.683   7.009   1.759
 7360WAT      O22321   7.537   5.376   5.131
 7360WAT     H122322   7.575   5.373   5.224
 7360WAT     H222323   7.441   5.347   5.134
 7361WAT      O22324   3.080   0.025   6.959
 7361WAT     H122325   3.024  -0.042   7.007
 7361WAT     H222326   3.149  -0.023   6.904
 7362WAT      O22327   1.691   4.935   8.571
 7362WAT     H122328   1.781   4.923   8.529
 7362WAT     H222329   1.667   5.032   8.571
 7363WAT      O22330   2.084   7.272   7.374
 7363WAT     H122331   2.042   7.296   7.286
 7363WAT     H222332   2.130   7.183   7.365
 7364WAT      O22333   8.312   7.953   6.230
 7364WAT     H122334   8.249   7.888   6.187
 7364WAT     H222335   8.364   7.906   6.301
 7365WAT      O22336   8.143   1.384   7.994
 7365WAT     H122337   8.104   1.322   8.062
 7365WAT     H222338   8.085   1.386   7.913
 7366WAT      O22339   8.481   1.153   8.191
 7366WAT     H122340   8.558   1.213   8.213
 7366WAT     H222341   8.436   1.124   8.275
 7367WAT      O22342   2.308   9.741   1.132
 7367WAT     H122343   2.318   9.715   1.036
 7367WAT     H222344   2.301   9.840   1.139
 7368WAT      O22345   0.170   4.084   5.313
 7368WAT     H122346   0.194   4.025   5.391
 7368WAT     H222347   0.225   4.167   5.316
 7369WAT      O22348   2.208   7.036   7.299
 7369WAT     H122349   2.211   6.938   7.320
 7369WAT     H222350   2.216   7.049   7.200
 7370WAT      O22351   8.072   5.478   1.747
 7370WAT     H122352   8.091   5.567   1.789
 7370WAT     H222353   8.023   5.491   1.661
 7371WAT      O22354   9.761   1.961   4.288
 7371WAT     H122355   9.725   1.894   4.353
 7371WAT     H222356   9.686   1.995   4.231
 7372WAT      O22357   9.258   8.711   9.603
 7372WAT     H122358   9.256   8.801   9.646
 7372WAT     H222359   9.241   8.720   9.505
 7373WAT      O22360   7.131   5.806   7.081
 7373WAT     H122361   7.043   5.816   7.034
 7373WAT     H222362   7.122   5.842   7.174
 7374WAT      O22363   7.533   9.652   9.392
 7374WAT     H122364   7.446   9.614   9.360
 7374WAT     H222365   7.609   9.605   9.347
 7375WAT      O22366   1.897   8.639   9.614
 7375WAT     H122367   1.807   8.661   9.576
 7375WAT     H222368   1.961   8.714   9.594
 7376WAT      O22369   8.996   8.037   3.593
 7376WAT     H122370   9.017   8.131   3.566
 7376WAT     H222371   8.952   8.037   3.683
 7377WAT      O22372   2.111   9.129   4.610
 7377WAT     H122373   2.096   9.062   4.683
 7377WAT     H222374   2.082   9.090   4.523
 7378WAT      O22375   7.421   3.425   6.186
 7378WAT     H122376   7.423   3.353   6.117
 7378WAT     H222377   7.475   3.398   6.265
 7379WAT      O22378   9.657   4.078   8.533
 7379WAT     H122379   9.719   4.010   8.572
 7379WAT     H222380   9.605   4.121   8.606
 7380WAT      O22381   5.267   7.682   2.365
 7380WAT     H122382   5.222   7.730   2.289
 7380WAT     H222383   5.313   7.748   2.424
 7381WAT      O22384   0.659   0.716   3.962
 7381WAT     H122385   0.670   0.784   3.890
 7381WAT     H222386   0.624   0.761   4.045
 7382WAT      O22387   7.792   8.558   9.174
 7382WAT     H122388   7.756   8.465   9.183
 7382WAT     H222389   7.753   8.602   9.093
 7383WAT      O22390   0.115   5.205   9.418
 7383WAT     H122391   0.111   5.160   9.329
 7383WAT     H222392   0.141   5.139   9.488
 7384WAT      O22393   3.877   2.193   1.875
 7384WAT     H122394   3.815   2.207   1.952
 7384WAT     H222395   3.837   2.127   1.812
 7385WAT      O22396   5.043   9.198   6.038
 7385WAT     H122397   5.054   9.286   6.084
 7385WAT     H222398   5.088   9.201   5.949
 7386WAT      O22399   0.663   9.765   9.330
 7386WAT     H122400   0.600   9.736   9.258
 7386WAT     H222401   0.639   9.858   9.360
 7387WAT      O22402   0.546   5.305   2.486
 7387WAT     H122403   0.562   5.370   2.412
 7387WAT     H222404   0.632   5.262   2.512
 7388WAT      O22405   4.538   3.689   1.584
 7388WAT     H122406   4.614   3.632   1.614
 7388WAT     H222407   4.562   3.786   1.593
 7389WAT      O22408   1.255   7.378   0.939
 7389WAT     H122409   1.276   7.285   0.968
 7389WAT     H222410   1.187   7.376   0.865
 7390WAT      O22411   8.960   1.947   4.677
 7390WAT     H122412   8.922   1.959   4.585
 7390WAT     H222413   8.941   2.030   4.731
 7391WAT      O22414   8.735   9.445   7.763
 7391WAT     H122415   8.811   9.420   7.824
 7391WAT     H222416   8.686   9.523   7.801
 7392WAT      O22417   2.785   4.935   9.445
 7392WAT     H122418   2.855   5.006   9.435
 7392WAT     H222419   2.755   4.905   9.354
 7393WAT      O22420   5.768   1.504   8.708
 7393WAT     H122421   5.731   1.564   8.638
 7393WAT     H222422   5.837   1.552   8.761
 7394WAT      O22423   9.722   3.726   4.287
 7394WAT     H122424   9.763   3.770   4.366
 7394WAT     H222425   9.672   3.794   4.233
 7395WAT      O22426   9.665   4.150   9.408
 7395WAT     H122427   9.684   4.070   9.351
 7395WAT     H222428   9.616   4.218   9.353
 7396WAT      O22429   3.542   7.972   6.055
 7396WAT     H122430   3.618   7.926   6.009
 7396WAT     H222431   3.501   8.038   5.993
 7397WAT      O22432   9.780   1.996   9.821
 7397WAT     H122433   9.845   1.993   9.745
 7397WAT     H222434   9.802   1.923   9.887
 7398WAT      O22435   8.194   1.302   2.713
 7398WAT     H122436   8.217   1.375   2.647
 7398WAT     H222437   8.103   1.267   2.692
 7399WAT      O22438   1.735   1.165   0.164
 7399WAT     H122439   1.651   1.172   0.218
 7399WAT     H222440   1.728   1.087   0.102
 7400WAT      O22441   3.957   8.542   8.576
 7400WAT     H122442   3.902   8.558   8.658
 7400WAT     H222443   4.015   8.461   8.589
 7401WAT      O22444   6.625   3.876   5.272
 7401WAT     H122445   6.649   3.876   5.175
 7401WAT     H222446   6.567   3.955   5.292
 7402WAT      O22447   8.866   1.329   1.923
 7402WAT     H122448   8.877   1.269   1.843
 7402WAT     H222449   8.940   1.396   1.924
 7403WAT      O22450   3.069   1.268   4.676
 7403WAT     H122451   3.153   1.300   4.632
 7403WAT     H222452   3.091   1.227   4.764
 7404WAT      O22453   1.582   7.289   7.390
 7404WAT     H122454   1.640   7.207   7.389
 7404WAT     H222455   1.491   7.265   7.424
 7405WAT      O22456   9.006   6.398   9.212
 7405WAT     H122457   9.065   6.318   9.201
 7405WAT     H222458   9.020   6.459   9.134
 7406WAT      O22459   8.100   5.078   6.191
 7406WAT     H122460   8.190   5.056   6.231
 7406WAT     H222461   8.113   5.138   6.113
 7407WAT      O22462   0.212   4.146   4.890
 7407WAT     H122463   0.191   4.234   4.932
 7407WAT     H222464   0.308   4.123   4.909
 7408WAT      O22465   2.154   3.790   1.473
 7408WAT     H122466   2.140   3.844   1.390
 7408WAT     H222467   2.211   3.710   1.452
 7409WAT      O22468   5.613   7.070   6.590
 7409WAT     H122469   5.618   7.170   6.595
 7409WAT     H222470   5.518   7.041   6.597
 7410WAT      O22471   1.533   4.103   1.135
 7410WAT     H122472   1.487   4.057   1.211
 7410WAT     H222473   1.481   4.185   1.110
 7411WAT      O22474   3.568   1.700   9.604
 7411WAT     H122475   3.570   1.615   9.551
 7411WAT     H222476   3.496   1.759   9.569
 7412WAT      O22477   4.182   4.012   0.109
 7412WAT     H122478   4.106   3.976   0.056
 7412WAT     H222479   4.152   4.092   0.161
 7413WAT      O22480   5.049   6.825   0.775
 7413WAT     H122481   4.989   6.746   0.768
 7413WAT     H222482   5.088   6.829   0.868
 7414WAT      O22483   3.352   2.859   8.598
 7414WAT     H122484   3.415   2.836   8.524
 7414WAT     H222485   3.404   2.888   8.678
 7415WAT      O22486   8.862   1.205   6.518
 7415WAT     H122487   8.875   1.121   6.464
 7415WAT     H222488   8.778   1.197   6.571
 7416WAT      O22489   4.109   0.888   2.976
 7416WAT     H122490   4.079   0.958   2.911
 7416WAT     H222491   4.191   0.920   3.024
 7417WAT      O22492   0.424   3.024   8.045
 7417WAT     H122493   0.376   3.111   8.034
 7417WAT     H222494   0.506   3.038   8.101
 7418WAT      O22495   6.253   0.965   4.978
 7418WAT     H122496   6.172   1.004   4.934
 7418WAT     H222497   6.235   0.952   5.075
 7419WAT      O22498   5.586   6.979   6.211
 7419WAT     H122499   5.613   6.941   6.123
 7419WAT     H222500   5.663   6.972   6.275
 7420WAT      O22501   0.485   5.103   9.097
 7420WAT     H122502   0.525   5.175   9.040
 7420WAT     H222503   0.449   5.030   9.039
 7421WAT      O22504   5.404   3.663   1.276
 7421WAT     H122505   5.421   3.644   1.179
 7421WAT     H222506   5.361   3.753   1.285
 7422WAT      O22507   5.337   6.046   5.062
 7422WAT     H122508   5.277   6.124   5.046
 7422WAT     H222509   5.413   6.074   5.121
 7423WAT      O22510   4.726   0.014   1.249
 7423WAT     H122511   4.640   0.040   1.206
 7423WAT     H222512   4.802   0.036   1.188
 7424WAT      O22513   6.367   9.237   3.842
 7424WAT     H122514   6.271   9.265   3.839
 7424WAT     H222515   6.375   9.141   3.814
 7425WAT      O22516   7.833   8.392   2.406
 7425WAT     H122517   7.891   8.471   2.383
 7425WAT     H222518   7.737   8.416   2.390
 7426WAT      O22519   0.809   5.556   4.284
 7426WAT     H122520   0.885   5.491   4.275
 7426WAT     H222521   0.761   5.562   4.196
 7427WAT      O22522   8.924   9.381   3.631
 7427WAT     H122523   8.873   9.467   3.635
 7427WAT     H222524   8.907   9.336   3.544
 7428WAT      O22525   4.091   6.035   2.494
 7428WAT     H122526   4.069   5.951   2.445
 7428WAT     H222527   4.147   6.014   2.574
 7429WAT      O22528   2.539   5.032   4.680
 7429WAT     H122529   2.465   4.989   4.731
 7429WAT     H222530   2.507   5.058   4.589
 7430WAT      O22531   7.651   0.115   3.878
 7430WAT     H122532   7.712   0.181   3.922
 7430WAT     H222533   7.701   0.066   3.807
 7431WAT      O22534   6.042   8.926   5.790
 7431WAT     H122535   6.077   8.900   5.880
 7431WAT     H222536   5.995   9.014   5.797
 7432WAT      O22537   0.594   7.614   3.498
 7432WAT     H122538   0.559   7.692   3.550
 7432WAT     H222539   0.667   7.569   3.550
 7433WAT      O22540   9.383   8.678   7.039
 7433WAT     H122541   9.472   8.632   7.045
 7433WAT     H222542   9.396   8.768   6.996
 7434WAT      O22543   1.306   6.384   8.922
 7434WAT     H122544   1.340   6.290   8.928
 7434WAT     H222545   1.261   6.397   8.834
 7435WAT      O22546   7.567   7.852   4.560
 7435WAT     H122547   7.647   7.794   4.577
 7435WAT     H222548   7.496   7.832   4.628
 7436WAT      O22549   5.959   6.807   5.542
 7436WAT     H122550   5.966   6.708   5.555
 7436WAT     H222551   6.051   6.845   5.529
 7437WAT      O22552   4.663   0.984   5.212
 7437WAT     H122553   4.687   0.892   5.181
 7437WAT     H222554   4.693   1.051   5.144
 7438WAT      O22555   0.742   8.567   7.101
 7438WAT     H122556   0.664   8.533   7.050
 7438WAT     H222557   0.815   8.498   7.101
 7439WAT      O22558   7.647   3.684   5.977
 7439WAT     H122559   7.699   3.735   5.909
 7439WAT     H222560   7.674   3.713   6.069
 7440WAT      O22561   1.194   4.404   2.198
 7440WAT     H122562   1.209   4.337   2.126
 7440WAT     H222563   1.237   4.491   2.173
 7441WAT      O22564   1.419   4.848   0.449
 7441WAT     H122565   1.354   4.810   0.515
 7441WAT     H222566   1.480   4.775   0.417
 7442WAT      O22567   0.413   7.570   0.340
 7442WAT     H122568   0.500   7.537   0.304
 7442WAT     H222569   0.424   7.662   0.375
 7443WAT      O22570   6.501   6.596   4.543
 7443WAT     H122571   6.518   6.534   4.467
 7443WAT     H222572   6.573   6.585   4.612
 7444WAT      O22573   7.834   9.303   0.365
 7444WAT     H122574   7.885   9.242   0.305
 7444WAT     H222575   7.884   9.314   0.451
 7445WAT      O22576   4.779   7.065   9.463
 7445WAT     H122577   4.723   6.993   9.422
 7445WAT     H222578   4.732   7.153   9.454
 7446WAT      O22579   3.508   3.433   4.760
 7446WAT     H122580   3.563   3.481   4.691
 7446WAT     H222581   3.445   3.498   4.803
 7447WAT      O22582   7.160   7.807   8.300
 7447WAT     H122583   7.163   7.894   8.350
 7447WAT     H222584   7.243   7.755   8.319
 7448WAT      O22585   4.205   6.783   4.887
 7448WAT     H122586   4.125   6.782   4.827
 7448WAT     H222587   4.233   6.689   4.907
 7449WAT      O22588   7.556   5.315   6.968
 7449WAT     H122589   7.577   5.403   7.012
 7449WAT     H222590   7.465   5.320   6.926
 7450WAT      O22591   9.674   4.439   2.393
 7450WAT     H122592   9.765   4.403   2.373
 7450WAT     H222593   9.670   4.536   2.370
 7451WAT      O22594   2.181   6.437   2.742
 7451WAT     H122595   2.251   6.367   2.730
 7451WAT     H222596   2.224   6.527   2.747
 7452WAT      O22597   6.661   9.012   1.908
 7452WAT     H122598   6.701   8.929   1.870
 7452WAT     H222599   6.730   9.085   1.909
 7453WAT      O22600   6.713   6.811   5.829
 7453WAT     H122601   6.798   6.824   5.778
 7453WAT     H222602   6.639   6.859   5.781
 7454WAT      O22603   3.298   7.797   5.364
 7454WAT     H122604   3.316   7.805   5.462
 7454WAT     H222605   3.330   7.708   5.331
 7455WAT      O22606   9.750   2.290   2.686
 7455WAT     H122607   9.726   2.243   2.601
 7455WAT     H222608   9.798   2.375   2.664
 7456WAT      O22609   7.454   8.246   4.686
 7456WAT     H122610   7.484   8.324   4.741
 7456WAT     H222611   7.533   8.197   4.651
 7457WAT      O22612   0.853   1.664   4.388
 7457WAT     H122613   0.802   1.597   4.334
 7457WAT     H222614   0.912   1.616   4.453
 7458WAT      O22615   8.888   2.621   0.765
 7458WAT     H122616   8.815   2.618   0.696
 7458WAT     H222617   8.898   2.531   0.807
 7459WAT      O22618   2.915   7.438   8.134
 7459WAT     H122619   3.013   7.454   8.122
 7459WAT     H222620   2.865   7.523   8.119
 7460WAT      O22621   5.892   8.151   3.611
 7460WAT     H122622   5.800   8.132   3.576
 7460WAT     H222623   5.938   8.215   3.550
 7461WAT      O22624   9.204   9.343   5.822
 7461WAT     H122625   9.258   9.344   5.907
 7461WAT     H222626   9.109   9.323   5.844
 7462WAT      O22627   5.348   8.843   2.231
 7462WAT     H122628   5.437   8.800   2.213
 7462WAT     H222629   5.362   8.932   2.275
 7463WAT      O22630   7.412   1.876   2.821
 7463WAT     H122631   7.459   1.876   2.733
 7463WAT     H222632   7.330   1.817   2.815
 7464WAT      O22633   0.564   3.766   3.883
 7464WAT     H122634   0.496   3.766   3.810
 7464WAT     H222635   0.519   3.785   3.970
 7465WAT      O22636   6.457   6.022   8.216
 7465WAT     H122637   6.513   6.105   8.219
 7465WAT     H222638   6.368   6.044   8.177
 7466WAT      O22639   5.822   9.006   7.220
 7466WAT     H122640   5.911   9.048   7.198
 7466WAT     H222641   5.837   8.915   7.259
 7467WAT      O22642   8.976   4.591   0.828
 7467WAT     H122643   9.003   4.540   0.746
 7467WAT     H222644   8.898   4.544   0.871
 7468WAT      O22645   2.701   3.895   5.035
 7468WAT     H122646   2.667   3.958   4.965
 7468WAT     H222647   2.705   3.803   4.998
 7469WAT      O22648   0.853   1.169   0.583
 7469WAT     H122649   0.953   1.178   0.576
 7469WAT     H222650   0.830   1.099   0.651
 7470WAT      O22651   8.612   3.410   1.395
 7470WAT     H122652   8.521   3.449   1.413
 7470WAT     H222653   8.607   3.310   1.398
 7471WAT      O22654   2.304   4.186   3.156
 7471WAT     H122655   2.361   4.246   3.212
 7471WAT     H222656   2.282   4.103   3.208
 7472WAT      O22657   9.500   8.518   5.948
 7472WAT     H122658   9.524   8.575   6.027
 7472WAT     H222659   9.536   8.426   5.961
 7473WAT      O22660   4.546   8.462   5.355
 7473WAT     H122661   4.525   8.520   5.277
 7473WAT     H222662   4.497   8.375   5.346
 7474WAT      O22663   5.452   1.959   9.435
 7474WAT     H122664   5.406   1.883   9.481
 7474WAT     H222665   5.461   1.939   9.338
 7475WAT      O22666   0.594   4.183   9.143
 7475WAT     H122667   0.628   4.148   9.056
 7475WAT     H222668   0.564   4.277   9.132
 7476WAT      O22669   9.517   5.763   8.752
 7476WAT     H122670   9.446   5.707   8.710
 7476WAT     H222671   9.490   5.785   8.846
 7477WAT      O22672   7.133   7.116   8.962
 7477WAT     H122673   7.209   7.075   9.012
 7477WAT     H222674   7.053   7.056   8.968
 7478WAT      O22675   8.974   2.380   0.537
 7478WAT     H122676   9.014   2.303   0.487
 7478WAT     H222677   8.961   2.355   0.633
 7479WAT      O22678   1.233   2.249   6.661
 7479WAT     H122679   1.282   2.203   6.587
 7479WAT     H222680   1.298   2.283   6.729
 7480WAT      O22681   5.724   3.139   2.566
 7480WAT     H122682   5.738   3.092   2.653
 7480WAT     H222683   5.632   3.120   2.533
 7481WAT      O22684   0.002   4.888   0.478
 7481WAT     H122685   0.034   4.804   0.435
 7481WAT     H222686   0.037   4.967   0.427
 7482WAT      O22687   3.353   8.906   0.891
 7482WAT     H122688   3.420   8.934   0.959
 7482WAT     H222689   3.303   8.826   0.924
 7483WAT      O22690   9.109   4.162   0.461
 7483WAT     H122691   9.064   4.081   0.498
 7483WAT     H222692   9.060   4.192   0.379
 7484WAT      O22693   5.909   4.358   3.292
 7484WAT     H122694   5.908   4.260   3.269
 7484WAT     H222695   5.997   4.381   3.333
 7485WAT      O22696   1.576   9.581   5.933
 7485WAT     H122697   1.550   9.643   6.007
 7485WAT     H222698   1.673   9.593   5.912
 7486WAT      O22699   3.347   3.956   6.836
 7486WAT     H122700   3.322   3.996   6.749
 7486WAT     H222701   3.268   3.907   6.874
 7487WAT      O22702   6.309   7.597   2.522
 7487WAT     H122703   6.322   7.549   2.609
 7487WAT     H222704   6.365   7.553   2.451
 7488WAT      O22705   1.040   4.997   9.145
 7488WAT     H122706   1.114   5.064   9.140
 7488WAT     H222707   1.054   4.927   9.074
 7489WAT      O22708   0.730   1.303   5.768
 7489WAT     H122709   0.658   1.271   5.830
 7489WAT     H222710   0.690   1.356   5.694
 7490WAT      O22711   3.479   2.787   4.583
 7490WAT     H122712   3.553   2.722   4.599
 7490WAT     H222713   3.511   2.880   4.603
 7491WAT      O22714   5.868   1.349   2.194
 7491WAT     H122715   5.835   1.384   2.282
 7491WAT     H222716   5.800   1.368   2.123
 7492WAT      O22717   3.740   1.638   0.616
 7492WAT     H122718   3.724   1.728   0.657
 7492WAT     H222719   3.825   1.640   0.564
 7493WAT      O22720   2.149   6.731   3.397
 7493WAT     H122721   2.087   6.796   3.353
 7493WAT     H222722   2.115   6.638   3.382
 7494WAT      O22723   3.568   5.778   1.311
 7494WAT     H122724   3.645   5.735   1.359
 7494WAT     H222725   3.520   5.839   1.373
 7495WAT      O22726   9.823   3.336   7.357
 7495WAT     H122727   9.894   3.332   7.427
 7495WAT     H222728   9.748   3.394   7.389
 7496WAT      O22729   1.076   5.417   3.244
 7496WAT     H122730   0.997   5.432   3.184
 7496WAT     H222731   1.061   5.334   3.298
 7497WAT      O22732   4.326   7.049   2.324
 7497WAT     H122733   4.309   7.021   2.230
 7497WAT     H222734   4.413   7.099   2.329
 7498WAT      O22735   5.982   6.689   4.585
 7498WAT     H122736   6.080   6.681   4.569
 7498WAT     H222737   5.959   6.783   4.611
 7499WAT      O22738   8.545   7.743   5.366
 7499WAT     H122739   8.612   7.813   5.339
 7499WAT     H222740   8.471   7.740   5.299
 7500WAT      O22741   7.463   0.453   3.461
 7500WAT     H122742   7.455   0.523   3.531
 7500WAT     H222743   7.375   0.406   3.451
 7501WAT      O22744   8.086   6.098   5.642
 7501WAT     H122745   8.106   6.190   5.674
 7501WAT     H222746   7.991   6.075   5.662
 7502WAT      O22747   9.358   8.492   8.268
 7502WAT     H122748   9.281   8.555   8.271
 7502WAT     H222749   9.327   8.399   8.285
 7503WAT      O22750   8.778   2.416   6.309
 7503WAT     H122751   8.751   2.512   6.307
 7503WAT     H222752   8.749   2.371   6.225
 7504WAT      O22753   3.376   2.555   7.494
 7504WAT     H122754   3.308   2.539   7.422
 7504WAT     H222755   3.400   2.467   7.537
 7505WAT      O22756   4.770   8.917   4.742
 7505WAT     H122757   4.683   8.872   4.721
 7505WAT     H222758   4.753   8.993   4.805
 7506WAT      O22759   8.680   1.903   0.799
 7506WAT     H122760   8.658   1.961   0.877
 7506WAT     H222761   8.763   1.937   0.754
 7507WAT      O22762   6.430   6.973   9.285
 7507WAT     H122763   6.409   7.024   9.368
 7507WAT     H222764   6.355   6.983   9.220
 7508WAT      O22765   5.098   2.990   3.507
 7508WAT     H122766   5.160   2.983   3.585
 7508WAT     H222767   5.148   3.023   3.427
 7509WAT      O22768   9.424   0.076   8.920
 7509WAT     H122769   9.415   0.098   9.018
 7509WAT     H222770   9.368   0.140   8.867
 7510WAT      O22771   6.872   1.629   7.750
 7510WAT     H122772   6.808   1.697   7.787
 7510WAT     H222773   6.821   1.552   7.713
 7511WAT      O22774   1.266   6.664   0.362
 7511WAT     H122775   1.352   6.631   0.401
 7511WAT     H222776   1.225   6.731   0.424
 7512WAT      O22777   0.121   9.289   9.564
 7512WAT     H122778   0.150   9.198   9.535
 7512WAT     H222779   0.034   9.283   9.613
 7513WAT      O22780   4.357   8.814   7.148
 7513WAT     H122781   4.422   8.761   7.094
 7513WAT     H222782   4.378   8.912   7.140
 7514WAT      O22783   4.593   9.191   6.343
 7514WAT     H122784   4.652   9.123   6.299
 7514WAT     H222785   4.624   9.207   6.437
 7515WAT      O22786   3.478   4.212   8.883
 7515WAT     H122787   3.384   4.245   8.892
 7515WAT     H222788   3.540   4.290   8.874
 7516WAT      O22789   6.556   9.386   3.710
 7516WAT     H122790   6.489   9.326   3.753
 7516WAT     H222791   6.607   9.334   3.641
 7517WAT      O22792   0.545   7.371   3.120
 7517WAT     H122793   0.474   7.340   3.057
 7517WAT     H222794   0.502   7.406   3.204
 7518WAT      O22795   0.466   6.683   9.082
 7518WAT     H122796   0.554   6.720   9.053
 7518WAT     H222797   0.432   6.621   9.012
 7519WAT      O22798   3.000   0.753   5.215
 7519WAT     H122799   2.977   0.687   5.144
 7519WAT     H222800   3.098   0.749   5.235
 7520WAT      O22801   8.222   9.341   5.017
 7520WAT     H122802   8.252   9.282   4.942
 7520WAT     H222803   8.129   9.317   5.043
 7521WAT      O22804   5.283   8.684   9.053
 7521WAT     H122805   5.276   8.699   9.151
 7521WAT     H222806   5.231   8.602   9.028
 7522WAT      O22807   5.779   5.986   8.696
 7522WAT     H122808   5.737   5.896   8.678
 7522WAT     H222809   5.854   6.000   8.631
 7523WAT      O22810   0.108   6.351   4.436
 7523WAT     H122811   0.038   6.378   4.503
 7523WAT     H222812   0.145   6.433   4.392
 7524WAT      O22813   8.822   3.561   1.533
 7524WAT     H122814   8.752   3.629   1.553
 7524WAT     H222815   8.784   3.490   1.474
 7525WAT      O22816   1.025   8.398   8.930
 7525WAT     H122817   1.070   8.487   8.920
 7525WAT     H222818   1.093   8.325   8.926
 7526WAT      O22819   0.959   4.700   1.736
 7526WAT     H122820   1.013   4.733   1.813
 7526WAT     H222821   0.876   4.754   1.727
 7527WAT      O22822   9.341   5.239   7.465
 7527WAT     H122823   9.280   5.186   7.406
 7527WAT     H222824   9.377   5.317   7.414
 7528WAT      O22825   0.916   9.370   2.878
 7528WAT     H122826   0.881   9.363   2.972
 7528WAT     H222827   0.975   9.450   2.871
 7529WAT      O22828   6.778   6.332   6.794
 7529WAT     H122829   6.766   6.428   6.769
 7529WAT     H222830   6.765   6.321   6.893
 7530WAT      O22831   7.852   7.598   8.541
 7530WAT     H122832   7.777   7.542   8.506
 7530WAT     H222833   7.873   7.671   8.476
 7531WAT      O22834   0.447   6.371   7.529
 7531WAT     H122835   0.418   6.464   7.554
 7531WAT     H222836   0.537   6.375   7.484
 7532WAT      O22837   4.411   3.180   0.444
 7532WAT     H122838   4.457   3.166   0.356
 7532WAT     H222839   4.479   3.188   0.516
 7533WAT      O22840   4.715   6.188   5.639
 7533WAT     H122841   4.716   6.181   5.739
 7533WAT     H222842   4.754   6.276   5.612
 7534WAT      O22843   3.051   2.375   2.058
 7534WAT     H122844   2.997   2.292   2.075
 7534WAT     H222845   3.018   2.419   1.974
 7535WAT      O22846   3.608   2.515   0.330
 7535WAT     H122847   3.540   2.586   0.347
 7535WAT     H222848   3.625   2.465   0.415
 7536WAT      O22849   1.255   9.122   7.750
 7536WAT     H122850   1.207   9.069   7.680
 7536WAT     H222851   1.189   9.184   7.795
 7537WAT      O22852   2.653   3.648   6.111
 7537WAT     H122853   2.720   3.575   6.123
 7537WAT     H222854   2.693   3.721   6.055
 7538WAT      O22855   9.574   0.592   1.366
 7538WAT     H122856   9.625   0.528   1.424
 7538WAT     H222857   9.491   0.621   1.414
 7539WAT      O22858   1.142   4.798   0.576
 7539WAT     H122859   1.121   4.724   0.640
 7539WAT     H222860   1.143   4.885   0.625
 7540WAT      O22861   3.919   6.216   2.387
 7540WAT     H122862   3.969   6.142   2.433
 7540WAT     H222863   3.968   6.302   2.398
 7541WAT      O22864   2.054   4.594   6.485
 7541WAT     H122865   1.978   4.658   6.475
 7541WAT     H222866   2.022   4.502   6.462
 7542WAT      O22867   5.054   9.647   1.916
 7542WAT     H122868   5.149   9.653   1.884
 7542WAT     H222869   4.994   9.692   1.851
 7543WAT      O22870   2.074   0.582   6.574
 7543WAT     H122871   2.115   0.649   6.512
 7543WAT     H222872   1.991   0.544   6.532
 7544WAT      O22873   2.803   7.885   6.555
 7544WAT     H122874   2.834   7.796   6.522
 7544WAT     H222875   2.838   7.957   6.495
 7545WAT      O22876   0.651   9.557   9.536
 7545WAT     H122877   0.646   9.613   9.453
 7545WAT     H222878   0.675   9.615   9.614
 7546WAT      O22879   9.806   2.029   7.900
 7546WAT     H122880   9.806   2.004   7.803
 7546WAT     H222881   9.720   2.073   7.923
 7547WAT      O22882   6.580   8.922   2.666
 7547WAT     H122883   6.577   9.014   2.628
 7547WAT     H222884   6.672   8.885   2.656
 7548WAT      O22885   4.577   8.576   0.837
 7548WAT     H122886   4.622   8.520   0.767
 7548WAT     H222887   4.496   8.621   0.797
 7549WAT      O22888   8.740   0.344   0.495
 7549WAT     H122889   8.724   0.252   0.458
 7549WAT     H222890   8.670   0.406   0.460
 7550WAT      O22891   6.104   1.468   1.985
 7550WAT     H122892   6.084   1.516   2.071
 7550WAT     H222893   6.056   1.380   1.984
 7551WAT      O22894   4.428   9.269   5.692
 7551WAT     H122895   4.382   9.182   5.677
 7551WAT     H222896   4.406   9.305   5.783
 7552WAT      O22897   4.652   9.694   2.712
 7552WAT     H122898   4.691   9.768   2.657
 7552WAT     H222899   4.553   9.697   2.707
 7553WAT      O22900   6.743   4.824   5.102
 7553WAT     H122901   6.714   4.900   5.160
 7553WAT     H222902   6.839   4.836   5.075
 7554WAT      O22903   4.034   9.702   7.165
 7554WAT     H122904   4.121   9.676   7.123
 7554WAT     H222905   4.016   9.798   7.145
 7555WAT      O22906   4.919   7.690   2.315
 7555WAT     H122907   4.834   7.657   2.274
 7555WAT     H222908   4.898   7.743   2.397
 7556WAT      O22909   9.529   9.089   0.106
 7556WAT     H122910   9.497   9.148   0.180
 7556WAT     H222911   9.574   9.008   0.145
 7557WAT      O22912   2.720   9.150   1.568
 7557WAT     H122913   2.630   9.190   1.551
 7557WAT     H222914   2.734   9.137   1.666
 7558WAT      O22915   5.822   0.224   2.227
 7558WAT     H122916   5.857   0.215   2.321
 7558WAT     H222917   5.741   0.283   2.227
 7559WAT      O22918   2.720   6.583   1.877
 7559WAT     H122919   2.702   6.484   1.871
 7559WAT     H222920   2.722   6.622   1.785
 7560WAT      O22921   7.872   0.319   6.015
 7560WAT     H122922   7.898   0.308   5.919
 7560WAT     H222923   7.911   0.244   6.068
 7561WAT      O22924   6.711   8.761   4.291
 7561WAT     H122925   6.767   8.771   4.373
 7561WAT     H222926   6.666   8.672   4.292
 7562WAT      O22927   7.665   6.398   9.726
 7562WAT     H122928   7.613   6.397   9.641
 7562WAT     H222929   7.763   6.392   9.705
 7563WAT      O22930   4.107   0.386   8.010
 7563WAT     H122931   4.178   0.334   8.059
 7563WAT     H222932   4.042   0.322   7.970
 7564WAT      O22933   4.717   3.772   9.150
 7564WAT     H122934   4.634   3.827   9.146
 7564WAT     H222935   4.733   3.743   9.244
 7565WAT      O22936   7.517   2.884   7.521
 7565WAT     H122937   7.572   2.831   7.586
 7565WAT     H222938   7.460   2.949   7.571
 7566WAT      O22939   1.679   7.072   2.580
 7566WAT     H122940   1.628   7.016   2.516
 7566WAT     H222941   1.715   7.015   2.654
 7567WAT      O22942   4.995   2.197   4.439
 7567WAT     H122943   4.977   2.291   4.409
 7567WAT     H222944   5.037   2.146   4.364
 7568WAT      O22945   2.090   6.175   6.971
 7568WAT     H122946   2.092   6.204   6.875
 7568WAT     H222947   2.174   6.206   7.016
 7569WAT      O22948   7.999   7.594   4.619
 7569WAT     H122949   8.026   7.522   4.556
 7569WAT     H222950   7.914   7.568   4.665
 7570WAT      O22951   4.944   1.026   4.897
 7570WAT     H122952   4.989   0.971   4.968
 7570WAT     H222953   4.848   1.040   4.922
 7571WAT      O22954   7.777   1.658   3.948
 7571WAT     H122955   7.688   1.651   3.993
 7571WAT     H222956   7.817   1.567   3.938
 7572WAT      O22957   6.912   6.866   5.658
 7572WAT     H122958   6.976   6.796   5.689
 7572WAT     H222959   6.963   6.943   5.619
 7573WAT      O22960   9.318   1.408   6.529
 7573WAT     H122961   9.311   1.323   6.477
 7573WAT     H222962   9.237   1.464   6.512
 7574WAT      O22963   1.319   1.272   3.392
 7574WAT     H122964   1.364   1.222   3.466
 7574WAT     H222965   1.225   1.292   3.418
 7575WAT      O22966   1.449   8.650   5.683
 7575WAT     H122967   1.519   8.640   5.613
 7575WAT     H222968   1.393   8.731   5.663
 7576WAT      O22969   6.867   5.600   1.468
 7576WAT     H122970   6.853   5.543   1.549
 7576WAT     H222971   6.898   5.691   1.495
 7577WAT      O22972   8.088   7.629   6.782
 7577WAT     H122973   8.083   7.572   6.700
 7577WAT     H222974   7.996   7.642   6.819
 7578WAT      O22975   4.649   5.902   1.659
 7578WAT     H122976   4.649   5.998   1.690
 7578WAT     H222977   4.700   5.895   1.574
 7579WAT      O22978   2.145   6.489   0.286
 7579WAT     H122979   2.048   6.465   0.295
 7579WAT     H222980   2.157   6.548   0.207
 7580WAT      O22981   4.275   8.196   6.566
 7580WAT     H122982   4.246   8.168   6.657
 7580WAT     H222983   4.374   8.184   6.557
 7581WAT      O22984   1.351   9.302   9.323
 7581WAT     H122985   1.268   9.292   9.268
 7581WAT     H222986   1.390   9.211   9.340
 7582WAT      O22987   1.569   4.092   9.363
 7582WAT     H122988   1.645   4.086   9.427
 7582WAT     H222989   1.536   4.000   9.342
 7583WAT      O22990   6.743   5.745   3.779
 7583WAT     H122991   6.752   5.844   3.771
 7583WAT     H222992   6.647   5.721   3.795
 7584WAT      O22993   1.913   4.529   7.635
 7584WAT     H122994   1.931   4.443   7.587
 7584WAT     H222995   1.850   4.511   7.711
 7585WAT      O22996   7.513   3.326   7.470
 7585WAT     H122997   7.466   3.401   7.516
 7585WAT     H222998   7.604   3.356   7.441
 7586WAT      O22999   7.184   7.476   9.066
 7586WAT     H123000   7.196   7.452   8.969
 7586WAT     H223001   7.098   7.435   9.099
 7587WAT      O23002   6.282   1.085   9.888
 7587WAT     H123003   6.346   1.018   9.924
 7587WAT     H223004   6.332   1.149   9.829
 7588WAT      O23005   6.451   1.475   7.595
 7588WAT     H123006   6.548   1.450   7.605
 7588WAT     H223007   6.411   1.490   7.685
 7589WAT      O23008   8.504   4.143   6.032
 7589WAT     H123009   8.455   4.229   6.043
 7589WAT     H223010   8.531   4.131   5.937
 7590WAT      O23011   9.110   2.221   0.360
 7590WAT     H123012   9.069   2.275   0.286
 7590WAT     H223013   9.204   2.250   0.373
 7591WAT      O23014   6.350   5.618   3.662
 7591WAT     H123015   6.263   5.574   3.684
 7591WAT     H223016   6.334   5.698   3.605
 7592WAT      O23017   5.751   9.512   4.841
 7592WAT     H123018   5.786   9.425   4.875
 7592WAT     H223019   5.651   9.506   4.831
 7593WAT      O23020   3.599   3.575   2.070
 7593WAT     H123021   3.604   3.538   2.163
 7593WAT     H223022   3.509   3.615   2.054
 7594WAT      O23023   7.098   3.831   1.832
 7594WAT     H123024   7.060   3.772   1.904
 7594WAT     H223025   7.196   3.842   1.847
 7595WAT      O23026   9.851   7.401   4.028
 7595WAT     H123027   9.752   7.394   4.014
 7595WAT     H223028   9.881   7.334   4.095
 7596WAT      O23029   6.130   4.405   7.513
 7596WAT     H123030   6.083   4.490   7.538
 7596WAT     H223031   6.118   4.337   7.586
 7597WAT      O23032   2.956   4.045   4.202
 7597WAT     H123033   3.034   4.106   4.213
 7597WAT     H223034   2.915   4.059   4.112
 7598WAT      O23035   2.440   6.593   6.846
 7598WAT     H123036   2.486   6.659   6.787
 7598WAT     H223037   2.484   6.504   6.837
 7599WAT      O23038   4.905   9.192   5.182
 7599WAT     H123039   4.843   9.176   5.259
 7599WAT     H223040   4.892   9.285   5.147
 7600WAT      O23041   3.958   3.856   5.038
 7600WAT     H123042   3.865   3.824   5.022
 7600WAT     H223043   4.015   3.834   4.959
 7601WAT      O23044   9.138   5.347   2.362
 7601WAT     H123045   9.064   5.345   2.295
 7601WAT     H223046   9.162   5.442   2.382
 7602WAT      O23047   1.835   0.872   5.533
 7602WAT     H123048   1.910   0.836   5.477
 7602WAT     H223049   1.757   0.894   5.474
 7603WAT      O23050   5.597   2.516   4.266
 7603WAT     H123051   5.663   2.499   4.339
 7603WAT     H223052   5.506   2.486   4.295
 7604WAT      O23053   8.260   6.934   6.145
 7604WAT     H123054   8.284   6.918   6.240
 7604WAT     H223055   8.265   7.032   6.126
 7605WAT      O23056   7.655   1.897   8.792
 7605WAT     H123057   7.561   1.923   8.816
 7605WAT     H223058   7.676   1.808   8.832
 7606WAT      O23059   4.131   9.556   8.759
 7606WAT     H123060   4.193   9.575   8.682
 7606WAT     H223061   4.060   9.626   8.762
 7607WAT      O23062   6.448   8.441   4.179
 7607WAT     H123063   6.397   8.496   4.113
 7607WAT     H223064   6.477   8.355   4.135
 7608WAT      O23065   9.307   1.489   2.577
 7608WAT     H123066   9.283   1.450   2.488
 7608WAT     H223067   9.246   1.566   2.597
 7609WAT      O23068   9.373   6.955   3.715
 7609WAT     H123069   9.412   6.978   3.626
 7609WAT     H223070   9.444   6.917   3.774
 7610WAT      O23071   5.334   0.940   5.134
 7610WAT     H123072   5.421   0.984   5.111
 7610WAT     H223073   5.342   0.841   5.118
 7611WAT      O23074   8.788   0.582   9.710
 7611WAT     H123075   8.702   0.551   9.669
 7611WAT     H223076   8.848   0.503   9.724
 7612WAT      O23077   8.373   7.617   7.208
 7612WAT     H123078   8.321   7.615   7.122
 7612WAT     H223079   8.324   7.673   7.275
 7613WAT      O23080   5.129   7.247   6.968
 7613WAT     H123081   5.193   7.271   7.041
 7613WAT     H223082   5.162   7.165   6.920
 7614WAT      O23083   5.977   5.610   1.861
 7614WAT     H123084   5.988   5.590   1.958
 7614WAT     H223085   6.040   5.553   1.808
 7615WAT      O23086   8.268   7.928   8.510
 7615WAT     H123087   8.265   8.025   8.486
 7615WAT     H223088   8.289   7.874   8.428
 7616WAT      O23089   1.512   5.827   4.277
 7616WAT     H123090   1.594   5.777   4.252
 7616WAT     H223091   1.491   5.812   4.374
 7617WAT      O23092   9.020   7.456   9.218
 7617WAT     H123093   9.100   7.396   9.210
 7617WAT     H223094   9.009   7.509   9.134
 7618WAT      O23095   2.127   4.088   2.455
 7618WAT     H123096   2.220   4.056   2.437
 7618WAT     H223097   2.074   4.087   2.370
 7619WAT      O23098   7.041   7.369   2.745
 7619WAT     H123099   6.984   7.295   2.711
 7619WAT     H223100   7.099   7.336   2.819
 7620WAT      O23101   0.580   9.094   3.916
 7620WAT     H123102   0.649   9.022   3.907
 7620WAT     H223103   0.604   9.154   3.992
 7621WAT      O23104   3.358   2.165   5.636
 7621WAT     H123105   3.291   2.211   5.578
 7621WAT     H223106   3.336   2.068   5.641
 7622WAT      O23107   8.483   7.175   0.205
 7622WAT     H123108   8.392   7.214   0.193
 7622WAT     H223109   8.533   7.227   0.275
 7623WAT      O23110   1.385   0.637   8.357
 7623WAT     H123111   1.384   0.733   8.382
 7623WAT     H223112   1.390   0.628   8.258
 7624WAT      O23113   7.760   5.624   0.775
 7624WAT     H123114   7.759   5.718   0.809
 7624WAT     H223115   7.855   5.597   0.755
 7625WAT      O23116   3.463   3.000   0.950
 7625WAT     H123117   3.432   2.905   0.943
 7625WAT     H223118   3.417   3.044   1.027
 7626WAT      O23119   3.433   0.850   7.074
 7626WAT     H123120   3.452   0.947   7.087
 7626WAT     H223121   3.338   0.831   7.099
 7627WAT      O23122   1.529   1.052   7.168
 7627WAT     H123123   1.506   1.110   7.245
 7627WAT     H223124   1.611   0.999   7.189
 7628WAT      O23125   8.494   5.045   3.498
 7628WAT     H123126   8.420   5.105   3.529
 7628WAT     H223127   8.529   4.993   3.576
 7629WAT      O23128   3.050   7.876   4.256
 7629WAT     H123129   3.055   7.881   4.355
 7629WAT     H223130   3.140   7.893   4.216
 7630WAT      O23131   1.086   1.090   6.544
 7630WAT     H123132   1.042   1.051   6.624
 7630WAT     H223133   1.110   1.185   6.562
 7631WAT      O23134   5.630   2.426   6.416
 7631WAT     H123135   5.590   2.339   6.447
 7631WAT     H223136   5.716   2.442   6.464
 7632WAT      O23137   1.202   4.218   3.181
 7632WAT     H123138   1.252   4.292   3.225
 7632WAT     H223139   1.266   4.158   3.133
 7633WAT      O23140   6.735   3.635   7.514
 7633WAT     H123141   6.771   3.545   7.490
 7633WAT     H223142   6.801   3.705   7.488
 7634WAT      O23143   7.736   0.438   8.088
 7634WAT     H123144   7.738   0.450   8.187
 7634WAT     H223145   7.650   0.473   8.052
 7635WAT      O23146   6.897   6.551   2.390
 7635WAT     H123147   6.974   6.595   2.436
 7635WAT     H223148   6.857   6.614   2.324
 7636WAT      O23149   4.493   2.552   5.560
 7636WAT     H123150   4.543   2.466   5.566
 7636WAT     H223151   4.407   2.538   5.512
 7637WAT      O23152   9.757   4.646   0.867
 7637WAT     H123153   9.783   4.571   0.927
 7637WAT     H223154   9.686   4.615   0.804
 7638WAT      O23155   3.280   0.695   5.217
 7638WAT     H123156   3.344   0.758   5.174
 7638WAT     H223157   3.330   0.633   5.278
 7639WAT      O23158   0.587   1.130   6.435
 7639WAT     H123159   0.554   1.041   6.403
 7639WAT     H223160   0.546   1.152   6.523
 7640WAT      O23161   4.523   5.233   2.233
 7640WAT     H123162   4.622   5.219   2.233
 7640WAT     H223163   4.478   5.149   2.266
 7641WAT      O23164   5.160   8.398   4.316
 7641WAT     H123165   5.239   8.443   4.275
 7641WAT     H223166   5.171   8.395   4.416
 7642WAT      O23167   0.017   6.076   3.283
 7642WAT     H123168   0.086   6.003   3.283
 7642WAT     H223169   0.057   6.160   3.320
 7643WAT      O23170   1.038   6.258   1.378
 7643WAT     H123171   1.039   6.270   1.279
 7643WAT     H223172   1.132   6.250   1.412
 7644WAT      O23173   6.837   8.814   3.148
 7644WAT     H123174   6.845   8.716   3.164
 7644WAT     H223175   6.755   8.833   3.094
 7645WAT      O23176   7.149   5.112   6.766
 7645WAT     H123177   7.055   5.120   6.799
 7645WAT     H223178   7.153   5.048   6.690
 7646WAT      O23179   5.785   8.134   6.533
 7646WAT     H123180   5.741   8.220   6.558
 7646WAT     H223181   5.884   8.145   6.538
 7647WAT      O23182   5.976   9.380   7.629
 7647WAT     H123183   5.998   9.463   7.577
 7647WAT     H223184   5.886   9.347   7.601
 7648WAT      O23185   5.769   4.566   3.377
 7648WAT     H123186   5.814   4.495   3.322
 7648WAT     H223187   5.678   4.584   3.340
 7649WAT      O23188   2.776   3.341   3.027
 7649WAT     H123189   2.705   3.271   3.037
 7649WAT     H223190   2.770   3.406   3.102
 7650WAT      O23191   7.342   4.926   4.561
 7650WAT     H123192   7.366   5.015   4.601
 7650WAT     H223193   7.243   4.913   4.566
 7651WAT      O23194   1.808   9.069   1.523
 7651WAT     H123195   1.773   8.977   1.507
 7651WAT     H223196   1.733   9.135   1.519
 7652WAT      O23197   6.304   3.089   1.107
 7652WAT     H123198   6.348   3.049   1.188
 7652WAT     H223199   6.244   3.164   1.136
 7653WAT      O23200   4.885   5.021   3.201
 7653WAT     H123201   4.973   4.981   3.175
 7653WAT     H223202   4.836   5.051   3.119
 7654WAT      O23203   9.267   4.466   6.299
 7654WAT     H123204   9.197   4.394   6.306
 7654WAT     H223205   9.306   4.484   6.389
 7655WAT      O23206   3.530   1.538   7.278
 7655WAT     H123207   3.589   1.469   7.318
 7655WAT     H223208   3.582   1.623   7.263
 7656WAT      O23209   1.718   8.338   0.829
 7656WAT     H123210   1.687   8.434   0.833
 7656WAT     H223211   1.774   8.318   0.909
 7657WAT      O23212   3.679   5.844   5.786
 7657WAT     H123213   3.713   5.750   5.779
 7657WAT     H223214   3.719   5.900   5.713
 7658WAT      O23215   7.656   8.901   5.394
 7658WAT     H123216   7.631   8.945   5.307
 7658WAT     H223217   7.577   8.903   5.456
 7659WAT      O23218   4.663   2.108   6.097
 7659WAT     H123219   4.627   2.046   6.167
 7659WAT     H223220   4.746   2.152   6.132
 7660WAT      O23221   3.277   3.318   4.276
 7660WAT     H123222   3.280   3.266   4.191
 7660WAT     H223223   3.304   3.412   4.258
 7661WAT      O23224   1.801   2.191   6.408
 7661WAT     H123225   1.869   2.129   6.447
 7661WAT     H223226   1.710   2.151   6.418
 7662WAT      O23227   8.192   1.843   8.715
 7662WAT     H123228   8.182   1.815   8.620
 7662WAT     H223229   8.195   1.942   8.721
 7663WAT      O23230   7.993   3.521   7.674
 7663WAT     H123231   8.017   3.517   7.771
 7663WAT     H223232   8.015   3.612   7.638
 7664WAT      O23233   1.814   0.051   0.677
 7664WAT     H123234   1.733   0.047   0.620
 7664WAT     H223235   1.891   0.007   0.630
 7665WAT      O23236   9.678   4.488   6.543
 7665WAT     H123237   9.672   4.587   6.559
 7665WAT     H223238   9.757   4.451   6.593
 7666WAT      O23239   6.987   3.897   0.330
 7666WAT     H123240   6.953   3.990   0.318
 7666WAT     H223241   6.947   3.837   0.261
 7667WAT      O23242   7.892   0.264   0.683
 7667WAT     H123243   7.821   0.326   0.650
 7667WAT     H223244   7.863   0.169   0.671
 7668WAT      O23245   4.503   3.992   6.498
 7668WAT     H123246   4.558   4.025   6.575
 7668WAT     H223247   4.470   4.069   6.445
 7669WAT      O23248   0.508   3.583   6.294
 7669WAT     H123249   0.422   3.533   6.303
 7669WAT     H223250   0.578   3.523   6.255
 7670WAT      O23251   1.106   3.866   1.871
 7670WAT     H123252   1.011   3.885   1.895
 7670WAT     H223253   1.115   3.772   1.840
 7671WAT      O23254   8.189   3.564   4.785
 7671WAT     H123255   8.222   3.581   4.878
 7671WAT     H223256   8.202   3.467   4.763
 7672WAT      O23257   9.139   4.400   7.334
 7672WAT     H123258   9.155   4.315   7.283
 7672WAT     H223259   9.227   4.436   7.367
 7673WAT      O23260   7.941   3.978   2.004
 7673WAT     H123261   7.870   3.988   1.934
 7673WAT     H223262   7.945   3.883   2.034
 7674WAT      O23263   8.831   2.318   5.869
 7674WAT     H123264   8.906   2.361   5.919
 7674WAT     H223265   8.823   2.361   5.779
 7675WAT      O23266   9.543   6.641   0.943
 7675WAT     H123267   9.491   6.646   0.858
 7675WAT     H223268   9.525   6.553   0.989
 7676WAT      O23269   5.811   8.249   1.079
 7676WAT     H123270   5.719   8.263   1.042
 7676WAT     H223271   5.807   8.246   1.179
 7677WAT      O23272   3.511   4.750   0.776
 7677WAT     H123273   3.471   4.834   0.812
 7677WAT     H223274   3.598   4.771   0.731
 7678WAT      O23275   8.698   4.758   0.920
 7678WAT     H123276   8.770   4.762   0.989
 7678WAT     H223277   8.632   4.687   0.945
 7679WAT      O23278   4.614   7.734   1.493
 7679WAT     H123279   4.652   7.801   1.556
 7679WAT     H223280   4.620   7.643   1.534
 7680WAT      O23281   8.242   0.370   5.625
 7680WAT     H123282   8.302   0.353   5.547
 7680WAT     H223283   8.295   0.366   5.710
 7681WAT      O23284   1.904   8.718   3.094
 7681WAT     H123285   1.825   8.779   3.098
 7681WAT     H223286   1.882   8.632   3.141
 7682WAT      O23287   5.694   1.660   1.068
 7682WAT     H123288   5.737   1.574   1.095
 7682WAT     H223289   5.758   1.735   1.082
 7683WAT      O23290   3.672   6.828   5.708
 7683WAT     H123291   3.752   6.817   5.648
 7683WAT     H223292   3.607   6.890   5.664
 7684WAT      O23293   1.240   7.875   2.467
 7684WAT     H123294   1.303   7.923   2.406
 7684WAT     H223295   1.290   7.841   2.547
 7685WAT      O23296   5.894   2.461   9.660
 7685WAT     H123297   5.932   2.552   9.673
 7685WAT     H223298   5.796   2.467   9.644
 7686WAT      O23299   4.129   3.769   0.315
 7686WAT     H123300   4.072   3.758   0.396
 7686WAT     H223301   4.084   3.832   0.251
 7687WAT      O23302   6.436   2.551   6.327
 7687WAT     H123303   6.369   2.555   6.401
 7687WAT     H223304   6.525   2.583   6.361
 7688WAT      O23305   0.623   8.389   2.190
 7688WAT     H123306   0.528   8.418   2.174
 7688WAT     H223307   0.675   8.396   2.105
 7689WAT      O23308   0.215   6.209   8.874
 7689WAT     H123309   0.159   6.161   8.806
 7689WAT     H223310   0.176   6.300   8.891
 7690WAT      O23311   7.287   6.606   9.205
 7690WAT     H123312   7.303   6.560   9.292
 7690WAT     H223313   7.340   6.691   9.202
 7691WAT      O23314   6.720   1.575   0.985
 7691WAT     H123315   6.752   1.516   0.911
 7691WAT     H223316   6.621   1.563   0.998
 7692WAT      O23317   5.069   5.659   6.793
 7692WAT     H123318   5.140   5.590   6.786
 7692WAT     H223319   4.980   5.615   6.801
 7693WAT      O23320   1.837   0.545   5.751
 7693WAT     H123321   1.803   0.454   5.772
 7693WAT     H223322   1.777   0.614   5.792
 7694WAT      O23323   6.128   4.283   2.153
 7694WAT     H123324   6.075   4.230   2.087
 7694WAT     H223325   6.214   4.236   2.173
 7695WAT      O23326   2.485   7.279   7.373
 7695WAT     H123327   2.575   7.237   7.382
 7695WAT     H223328   2.422   7.238   7.439
 7696WAT      O23329   7.830   1.967   6.967
 7696WAT     H123330   7.866   1.953   7.060
 7696WAT     H223331   7.788   1.883   6.935
 7697WAT      O23332   2.089   7.593   6.553
 7697WAT     H123333   2.091   7.540   6.638
 7697WAT     H223334   2.109   7.532   6.476
 7698WAT      O23335   4.052   9.012   3.851
 7698WAT     H123336   4.040   8.932   3.911
 7698WAT     H223337   3.975   9.017   3.787
 7699WAT      O23338   7.432   4.282   7.634
 7699WAT     H123339   7.414   4.283   7.732
 7699WAT     H223340   7.482   4.199   7.610
 7700WAT      O23341   5.624   9.834   1.196
 7700WAT     H123342   5.712   9.791   1.177
 7700WAT     H223343   5.639   9.923   1.239
 7701WAT      O23344   0.335   1.843   8.340
 7701WAT     H123345   0.344   1.890   8.252
 7701WAT     H223346   0.403   1.879   8.403
 7702WAT      O23347   3.449   3.245   2.106
 7702WAT     H123348   3.488   3.335   2.125
 7702WAT     H223349   3.485   3.211   2.019
 7703WAT      O23350   8.497   8.453   1.763
 7703WAT     H123351   8.519   8.437   1.860
 7703WAT     H223352   8.429   8.526   1.756
 7704WAT      O23353   7.428   1.427   8.019
 7704WAT     H123354   7.420   1.448   7.922
 7704WAT     H223355   7.494   1.353   8.032
 7705WAT      O23356   3.447   3.205   2.653
 7705WAT     H123357   3.500   3.249   2.581
 7705WAT     H223358   3.355   3.185   2.621
 7706WAT      O23359   4.637   7.863   2.416
 7706WAT     H123360   4.612   7.942   2.361
 7706WAT     H223361   4.563   7.796   2.412
 7707WAT      O23362   3.027   3.546   3.259
 7707WAT     H123363   3.042   3.509   3.167
 7707WAT     H223364   2.934   3.525   3.288
 7708WAT      O23365   8.206   6.741   9.067
 7708WAT     H123366   8.284   6.714   9.009
 7708WAT     H223367   8.148   6.662   9.083
 7709WAT      O23368   0.275   2.955   0.565
 7709WAT     H123369   0.217   2.882   0.529
 7709WAT     H223370   0.221   3.014   0.625
 7710WAT      O23371   3.208   4.170   9.203
 7710WAT     H123372   3.185   4.171   9.300
 7710WAT     H223373   3.218   4.076   9.171
 7711WAT      O23374   4.566   8.059   0.542
 7711WAT     H123375   4.538   8.120   0.616
 7711WAT     H223376   4.549   8.104   0.454
 7712WAT      O23377   7.334   8.675   7.771
 7712WAT     H123378   7.425   8.648   7.741
 7712WAT     H223379   7.340   8.756   7.830
 7713WAT      O23380   9.857   2.128   4.942
 7713WAT     H123381   9.790   2.059   4.968
 7713WAT     H223382   9.923   2.140   5.016
 7714WAT      O23383   1.364   3.983   6.766
 7714WAT     H123384   1.277   3.958   6.809
 7714WAT     H223385   1.438   3.976   6.833
 7715WAT      O23386   2.341   9.777   3.728
 7715WAT     H123387   2.355   9.856   3.667
 7715WAT     H223388   2.243   9.754   3.730
 7716WAT      O23389   3.335   9.333   7.221
 7716WAT     H123390   3.374   9.306   7.133
 7716WAT     H223391   3.242   9.367   7.208
 7717WAT      O23392   0.417   7.546   3.314
 7717WAT     H123393   0.334   7.555   3.370
 7717WAT     H223394   0.498   7.563   3.371
 7718WAT      O23395   8.124   6.265   1.037
 7718WAT     H123396   8.053   6.290   1.102
 7718WAT     H223397   8.109   6.315   0.951
 7719WAT      O23398   7.017   3.512   4.395
 7719WAT     H123399   6.980   3.423   4.422
 7719WAT     H223400   7.113   3.518   4.424
 7720WAT      O23401   5.463   5.445   9.501
 7720WAT     H123402   5.374   5.407   9.476
 7720WAT     H223403   5.466   5.460   9.599
 7721WAT      O23404   3.626   4.530   8.222
 7721WAT     H123405   3.695   4.536   8.294
 7721WAT     H223406   3.634   4.609   8.162
 7722WAT      O23407   7.618   8.685   7.196
 7722WAT     H123408   7.533   8.634   7.185
 7722WAT     H223409   7.634   8.702   7.293
 7723WAT      O23410   2.878   8.600   2.926
 7723WAT     H123411   2.807   8.670   2.911
 7723WAT     H223412   2.879   8.576   3.023
 7724WAT      O23413   0.844   3.575   7.705
 7724WAT     H123414   0.758   3.601   7.661
 7724WAT     H223415   0.908   3.543   7.636
 7725WAT      O23416   9.871   3.244   0.234
 7725WAT     H123417   9.926   3.322   0.204
 7725WAT     H223418   9.924   3.188   0.298
 7726WAT      O23419   7.020   5.829   5.257
 7726WAT     H123420   7.097   5.770   5.283
 7726WAT     H223421   6.940   5.772   5.237
 7727WAT      O23422   4.696   9.027   0.390
 7727WAT     H123423   4.612   9.048   0.440
 7727WAT     H223424   4.684   9.048   0.294
 7728WAT      O23425   3.115   5.033   1.144
 7728WAT     H123426   3.047   4.978   1.192
 7728WAT     H223427   3.093   5.130   1.156
 7729WAT      O23428   3.236   7.347   8.205
 7729WAT     H123429   3.180   7.313   8.280
 7729WAT     H223430   3.331   7.316   8.217
 7730WAT      O23431   5.775   1.245   7.345
 7730WAT     H123432   5.810   1.312   7.411
 7730WAT     H223433   5.676   1.239   7.354
 7731WAT      O23434   5.847   1.879   3.663
 7731WAT     H123435   5.852   1.923   3.573
 7731WAT     H223436   5.821   1.946   3.732
 7732WAT      O23437   6.415   5.222   5.318
 7732WAT     H123438   6.386   5.235   5.413
 7732WAT     H223439   6.341   5.180   5.266
 7733WAT      O23440   6.145   8.026   2.676
 7733WAT     H123441   6.133   8.100   2.611
 7733WAT     H223442   6.179   7.945   2.629
 7734WAT      O23443   8.903   5.835   6.704
 7734WAT     H123444   8.812   5.850   6.666
 7734WAT     H223445   8.955   5.774   6.645
 7735WAT      O23446   9.644   2.566   3.237
 7735WAT     H123447   9.671   2.539   3.145
 7735WAT     H223448   9.668   2.493   3.301
 7736WAT      O23449   1.645   5.063   0.252
 7736WAT     H123450   1.556   5.035   0.214
 7736WAT     H223451   1.640   5.159   0.282
 7737WAT      O23452   1.303   6.183   1.363
 7737WAT     H123453   1.348   6.272   1.373
 7737WAT     H223454   1.366   6.119   1.319
 7738WAT      O23455   8.247   6.222   7.135
 7738WAT     H123456   8.205   6.273   7.210
 7738WAT     H223457   8.313   6.281   7.087
 7739WAT      O23458   4.163   8.670   6.051
 7739WAT     H123459   4.066   8.652   6.068
 7739WAT     H223460   4.195   8.615   5.974
 7740WAT      O23461   8.043   6.875   8.044
 7740WAT     H123462   7.954   6.877   8.089
 7740WAT     H223463   8.106   6.819   8.099
 7741WAT      O23464   5.424   4.378   9.323
 7741WAT     H123465   5.488   4.412   9.255
 7741WAT     H223466   5.453   4.408   9.414
 7742WAT      O23467   3.124   3.976   8.998
 7742WAT     H123468   3.034   3.959   8.956
 7742WAT     H223469   3.195   3.936   8.940
 7743WAT      O23470   2.331   1.363   9.011
 7743WAT     H123471   2.322   1.416   9.095
 7743WAT     H223472   2.384   1.280   9.029
 7744WAT      O23473   2.732   5.279   1.065
 7744WAT     H123474   2.665   5.336   1.113
 7744WAT     H223475   2.819   5.328   1.059
 7745WAT      O23476   1.144   1.890   5.147
 7745WAT     H123477   1.066   1.846   5.193
 7745WAT     H223478   1.228   1.867   5.196
 7746WAT      O23479   6.934   0.989   2.443
 7746WAT     H123480   6.843   0.950   2.451
 7746WAT     H223481   6.968   0.977   2.350
 7747WAT      O23482   6.155   7.162   9.237
 7747WAT     H123483   6.147   7.072   9.193
 7747WAT     H223484   6.153   7.233   9.166
 7748WAT      O23485   7.158   4.420   3.603
 7748WAT     H123486   7.145   4.456   3.510
 7748WAT     H223487   7.077   4.440   3.658
 7749WAT      O23488   4.187   7.634   7.012
 7749WAT     H123489   4.154   7.542   7.031
 7749WAT     H223490   4.226   7.638   6.920
 7750WAT      O23491   0.621   2.492   0.349
 7750WAT     H123492   0.669   2.550   0.414
 7750WAT     H223493   0.615   2.399   0.385
 7751WAT      O23494   9.489   4.972   8.957
 7751WAT     H123495   9.567   5.012   8.909
 7751WAT     H223496   9.417   5.041   8.965
 7752WAT      O23497   2.307   2.968   4.400
 7752WAT     H123498   2.236   2.975   4.470
 7752WAT     H223499   2.339   2.873   4.394
 7753WAT      O23500   4.523   3.941   9.175
 7753WAT     H123501   4.474   3.982   9.252
 7753WAT     H223502   4.465   3.942   9.094
 7754WAT      O23503   0.809   2.489   5.120
 7754WAT     H123504   0.823   2.583   5.087
 7754WAT     H223505   0.805   2.427   5.041
 7755WAT      O23506   7.496   9.548   3.346
 7755WAT     H123507   7.427   9.614   3.376
 7755WAT     H223508   7.585   9.594   3.340
 7756WAT      O23509   1.072   2.963   7.392
 7756WAT     H123510   1.165   2.998   7.403
 7756WAT     H223511   1.046   2.966   7.296
 7757WAT      O23512   3.606   2.741   4.234
 7757WAT     H123513   3.522   2.785   4.267
 7757WAT     H223514   3.649   2.692   4.310
 7758WAT      O23515   6.591   5.425   3.301
 7758WAT     H123516   6.561   5.416   3.396
 7758WAT     H223517   6.664   5.494   3.295
 7759WAT      O23518   6.673   7.858   1.408
 7759WAT     H123519   6.741   7.791   1.437
 7759WAT     H223520   6.654   7.921   1.483
 7760WAT      O23521   8.106   7.087   0.996
 7760WAT     H123522   8.021   7.134   1.021
 7760WAT     H223523   8.098   7.049   0.904
 7761WAT      O23524   4.676   1.335   1.238
 7761WAT     H123525   4.624   1.399   1.294
 7761WAT     H223526   4.613   1.280   1.183
 7762WAT      O23527   1.840   5.823   4.391
 7762WAT     H123528   1.929   5.812   4.437
 7762WAT     H223529   1.840   5.909   4.341
 7763WAT      O23530   5.525   9.044   5.435
 7763WAT     H123531   5.513   8.948   5.461
 7763WAT     H223532   5.532   9.100   5.518
 7764WAT      O23533   2.646   2.546   8.866
 7764WAT     H123534   2.670   2.542   8.769
 7764WAT     H223535   2.581   2.621   8.881
 7765WAT      O23536   1.693   5.910   4.614
 7765WAT     H123537   1.741   5.875   4.534
 7765WAT     H223538   1.718   5.856   4.695
 7766WAT      O23539   6.673   3.219   2.857
 7766WAT     H123540   6.683   3.304   2.806
 7766WAT     H223541   6.643   3.146   2.794
 7767WAT      O23542   4.704   8.741   9.080
 7767WAT     H123543   4.766   8.798   9.134
 7767WAT     H223544   4.683   8.658   9.131
 7768WAT      O23545   5.134   8.456   6.977
 7768WAT     H123546   5.205   8.526   6.988
 7768WAT     H223547   5.049   8.487   7.019
 7769WAT      O23548   9.678   9.161   8.175
 7769WAT     H123549   9.743   9.211   8.232
 7769WAT     H223550   9.727   9.094   8.119
 7770WAT      O23551   0.524   8.487   6.969
 7770WAT     H123552   0.467   8.542   6.908
 7770WAT     H223553   0.520   8.391   6.940
 7771WAT      O23554   8.722   8.314   3.938
 7771WAT     H123555   8.631   8.275   3.952
 7771WAT     H223556   8.744   8.378   4.012
 7772WAT      O23557   1.742   3.677   2.271
 7772WAT     H123558   1.659   3.637   2.233
 7772WAT     H223559   1.812   3.684   2.200
 7773WAT      O23560   3.724   7.123   9.841
 7773WAT     H123561   3.682   7.153   9.927
 7773WAT     H223562   3.725   7.199   9.776
 7774WAT      O23563   6.684   5.806   2.986
 7774WAT     H123564   6.601   5.784   2.935
 7774WAT     H223565   6.741   5.868   2.932
 7775WAT      O23566   9.447   6.334   2.635
 7775WAT     H123567   9.527   6.275   2.649
 7775WAT     H223568   9.364   6.286   2.665
 7776WAT      O23569   7.261   2.710   5.775
 7776WAT     H123570   7.198   2.728   5.851
 7776WAT     H223571   7.316   2.793   5.757
 7777WAT      O23572   8.677   7.240   9.874
 7777WAT     H123573   8.595   7.213   9.924
 7777WAT     H223574   8.737   7.292   9.934
 7778WAT      O23575   1.786   6.674   9.605
 7778WAT     H123576   1.701   6.712   9.642
 7778WAT     H223577   1.809   6.722   9.520
 7779WAT      O23578   5.054   3.887   5.047
 7779WAT     H123579   5.147   3.875   5.013
 7779WAT     H223580   5.050   3.970   5.103
 7780WAT      O23581   0.748   2.550   5.503
 7780WAT     H123582   0.776   2.644   5.484
 7780WAT     H223583   0.649   2.542   5.488
 7781WAT      O23584   4.524   8.789   7.790
 7781WAT     H123585   4.515   8.782   7.690
 7781WAT     H223586   4.501   8.882   7.818
 7782WAT      O23587   8.800   3.792   1.332
 7782WAT     H123588   8.703   3.803   1.308
 7782WAT     H223589   8.812   3.711   1.389
 7783WAT      O23590   3.692   8.462   1.340
 7783WAT     H123591   3.762   8.503   1.398
 7783WAT     H223592   3.718   8.471   1.244
 7784WAT      O23593   2.367   5.883   9.109
 7784WAT     H123594   2.374   5.857   9.013
 7784WAT     H223595   2.296   5.828   9.154
 7785WAT      O23596   0.291   8.634   7.448
 7785WAT     H123597   0.329   8.685   7.526
 7785WAT     H223598   0.366   8.606   7.388
 7786WAT      O23599   3.022   2.255   6.919
 7786WAT     H123600   2.932   2.219   6.894
 7786WAT     H223601   3.060   2.306   6.842
 7787WAT      O23602   9.250   4.201   9.807
 7787WAT     H123603   9.153   4.201   9.782
 7787WAT     H223604   9.299   4.266   9.748
 7788WAT      O23605   0.597   6.957   5.480
 7788WAT     H123606   0.633   6.969   5.387
 7788WAT     H223607   0.522   6.891   5.478
 7789WAT      O23608   0.750   0.872   4.219
 7789WAT     H123609   0.736   0.782   4.259
 7789WAT     H223610   0.735   0.943   4.289
 7790WAT      O23611   2.017   5.481   8.317
 7790WAT     H123612   2.027   5.454   8.221
 7790WAT     H223613   1.922   5.504   8.336
 7791WAT      O23614   1.866   2.043   7.664
 7791WAT     H123615   1.798   2.036   7.737
 7791WAT     H223616   1.914   2.131   7.671
 7792WAT      O23617   4.413   1.367   4.830
 7792WAT     H123618   4.314   1.365   4.817
 7792WAT     H223619   4.446   1.273   4.846
 7793WAT      O23620   3.194   4.687   3.528
 7793WAT     H123621   3.272   4.736   3.567
 7793WAT     H223622   3.215   4.589   3.523
 7794WAT      O23623   6.192   2.964   4.226
 7794WAT     H123624   6.205   2.867   4.245
 7794WAT     H223625   6.208   3.017   4.309
 7795WAT      O23626   8.497   3.974   7.832
 7795WAT     H123627   8.486   3.923   7.746
 7795WAT     H223628   8.473   3.914   7.909
 7796WAT      O23629   7.899   8.893   0.160
 7796WAT     H123630   7.822   8.947   0.194
 7796WAT     H223631   7.866   8.831   0.088
 7797WAT      O23632   0.554   4.783   5.941
 7797WAT     H123633   0.518   4.861   5.889
 7797WAT     H223634   0.649   4.767   5.916
 7798WAT      O23635   6.319   4.163   9.344
 7798WAT     H123636   6.330   4.194   9.438
 7798WAT     H223637   6.228   4.123   9.333
 7799WAT      O23638   6.309   8.460   0.818
 7799WAT     H123639   6.357   8.398   0.880
 7799WAT     H223640   6.278   8.540   0.870
 7800WAT      O23641   1.645   1.925   4.550
 7800WAT     H123642   1.658   2.008   4.496
 7800WAT     H223643   1.563   1.877   4.519
 7801WAT      O23644   7.722   0.038   0.709
 7801WAT     H123645   7.692   0.116   0.764
 7801WAT     H223646   7.693  -0.047   0.753
 7802WAT      O23647   5.967   0.934   7.972
 7802WAT     H123648   5.987   0.892   7.883
 7802WAT     H223649   6.014   0.883   8.044
 7803WAT      O23650   8.863   6.386   4.576
 7803WAT     H123651   8.937   6.330   4.540
 7803WAT     H223652   8.804   6.416   4.502
 7804WAT      O23653   7.990   5.448   5.345
 7804WAT     H123654   7.951   5.449   5.253
 7804WAT     H223655   7.993   5.541   5.381
 7805WAT      O23656   0.597   3.477   6.561
 7805WAT     H123657   0.539   3.407   6.520
 7805WAT     H223658   0.542   3.557   6.584
 7806WAT      O23659   3.487   3.046   1.912
 7806WAT     H123660   3.472   3.030   1.814
 7806WAT     H223661   3.422   2.992   1.965
 7807WAT      O23662   3.271   0.341   4.948
 7807WAT     H123663   3.286   0.389   4.862
 7807WAT     H223664   3.222   0.402   5.012
 7808WAT      O23665   1.468   3.863   9.290
 7808WAT     H123666   1.378   3.819   9.297
 7808WAT     H223667   1.524   3.836   9.368
 7809WAT      O23668   4.180   4.982   0.429
 7809WAT     H123669   4.274   4.998   0.402
 7809WAT     H223670   4.121   4.980   0.348
 7810WAT      O23671   4.026   1.547   6.027
 7810WAT     H123672   4.010   1.529   5.930
 7810WAT     H223673   3.980   1.632   6.053
 7811WAT      O23674   0.108   6.193   1.922
 7811WAT     H123675   0.008   6.193   1.915
 7811WAT     H223676   0.145   6.115   1.872
 7812WAT      O23677   8.020   0.232   8.372
 7812WAT     H123678   7.993   0.140   8.402
 7812WAT     H223679   7.946   0.297   8.393
 7813WAT      O23680   3.704   9.337   1.824
 7813WAT     H123681   3.675   9.378   1.737
 7813WAT     H223682   3.654   9.252   1.839
 7814WAT      O23683   0.704   2.232   9.457
 7814WAT     H123684   0.644   2.272   9.526
 7814WAT     H223685   0.657   2.158   9.410
 7815WAT      O23686   9.302   1.532   3.120
 7815WAT     H123687   9.343   1.623   3.115
 7815WAT     H223688   9.306   1.498   3.214
 7816WAT      O23689   5.047   1.838   9.067
 7816WAT     H123690   4.989   1.800   9.140
 7816WAT     H223691   5.126   1.884   9.108
 7817WAT      O23692   0.028   3.260   9.749
 7817WAT     H123693   0.022   3.335   9.683
 7817WAT     H223694   0.055   3.176   9.702
 7818WAT      O23695   7.068   4.332   2.951
 7818WAT     H123696   7.159   4.291   2.944
 7818WAT     H223697   7.064   4.413   2.892
 7819WAT      O23698   5.888   1.922   6.796
 7819WAT     H123699   5.904   1.855   6.868
 7819WAT     H223700   5.847   1.876   6.717
 7820WAT      O23701   3.125   3.756   5.237
 7820WAT     H123702   3.060   3.713   5.299
 7820WAT     H223703   3.215   3.714   5.248
 7821WAT      O23704   6.951   4.128   4.921
 7821WAT     H123705   6.871   4.166   4.874
 7821WAT     H223706   7.034   4.172   4.886
 7822WAT      O23707   2.881   0.623   6.253
 7822WAT     H123708   2.878   0.691   6.326
 7822WAT     H223709   2.973   0.583   6.249
 7823WAT      O23710   6.061   7.937   8.317
 7823WAT     H123711   6.075   7.840   8.297
 7823WAT     H223712   5.975   7.968   8.275
 7824WAT      O23713   7.564   6.185   2.986
 7824WAT     H123714   7.465   6.192   2.978
 7824WAT     H223715   7.594   6.232   3.069
 7825WAT      O23716   9.268   5.993   1.628
 7825WAT     H123717   9.226   5.922   1.571
 7825WAT     H223718   9.367   5.994   1.611
 7826WAT      O23719   9.472   3.103   4.093
 7826WAT     H123720   9.394   3.100   4.156
 7826WAT     H223721   9.529   3.022   4.107
 7827WAT      O23722   7.735   4.323   9.072
 7827WAT     H123723   7.813   4.312   9.134
 7827WAT     H223724   7.703   4.232   9.043
 7828WAT      O23725   7.951   3.138   4.753
 7828WAT     H123726   7.924   3.044   4.776
 7828WAT     H223727   8.014   3.137   4.676
 7829WAT      O23728   0.551   1.845   6.982
 7829WAT     H123729   0.637   1.895   6.972
 7829WAT     H223730   0.496   1.888   7.054
 7830WAT      O23731   4.977   8.605   1.703
 7830WAT     H123732   4.980   8.645   1.611
 7830WAT     H223733   5.005   8.674   1.770
 7831WAT      O23734   0.354   4.077   8.555
 7831WAT     H123735   0.281   4.146   8.552
 7831WAT     H223736   0.430   4.107   8.496
 7832WAT      O23737   3.579   6.470   6.972
 7832WAT     H123738   3.554   6.561   6.939
 7832WAT     H223739   3.524   6.448   7.053
 7833WAT      O23740   6.057   6.221   1.406
 7833WAT     H123741   6.104   6.134   1.391
 7833WAT     H223742   6.092   6.264   1.490
 7834WAT      O23743   6.084   4.766   1.440
 7834WAT     H123744   6.174   4.785   1.480
 7834WAT     H223745   6.015   4.825   1.482
 7835WAT      O23746   6.462   5.485   1.018
 7835WAT     H123747   6.377   5.526   1.051
 7835WAT     H223748   6.503   5.430   1.091
 7836WAT      O23749   6.762   9.507   2.997
 7836WAT     H123750   6.848   9.471   3.034
 7836WAT     H223751   6.769   9.607   2.988
 7837WAT      O23752   4.460   1.207   2.035
 7837WAT     H123753   4.510   1.203   1.949
 7837WAT     H223754   4.369   1.245   2.018
 7838WAT      O23755   3.326   2.157   4.684
 7838WAT     H123756   3.369   2.093   4.748
 7838WAT     H223757   3.294   2.237   4.733
 7839WAT      O23758   3.375   4.958   7.530
 7839WAT     H123759   3.348   4.901   7.453
 7839WAT     H223760   3.298   4.967   7.594
 7840WAT      O23761   7.910   3.689   9.324
 7840WAT     H123762   7.826   3.640   9.347
 7840WAT     H223763   7.984   3.623   9.310
 7841WAT      O23764   3.904   5.188   6.138
 7841WAT     H123765   3.962   5.269   6.125
 7841WAT     H223766   3.843   5.204   6.216
 7842WAT      O23767   7.759   4.747   0.650
 7842WAT     H123768   7.726   4.722   0.558
 7842WAT     H223769   7.839   4.691   0.673
 7843WAT      O23770   8.522   2.422   3.935
 7843WAT     H123771   8.612   2.459   3.914
 7843WAT     H223772   8.526   2.375   4.024
 7844WAT      O23773   8.324   1.978   5.204
 7844WAT     H123774   8.411   2.026   5.204
 7844WAT     H223775   8.317   1.922   5.122
 7845WAT      O23776   2.178   1.376   4.462
 7845WAT     H123777   2.132   1.409   4.380
 7845WAT     H223778   2.123   1.400   4.542
 7846WAT      O23779   0.652   2.446   8.873
 7846WAT     H123780   0.696   2.442   8.783
 7846WAT     H223781   0.722   2.446   8.944
 7847WAT      O23782   4.935   2.600   1.882
 7847WAT     H123783   4.892   2.515   1.911
 7847WAT     H223784   4.962   2.653   1.962
 7848WAT      O23785   4.676   6.572   2.567
 7848WAT     H123786   4.651   6.598   2.660
 7848WAT     H223787   4.618   6.620   2.502
 7849WAT      O23788   1.018   6.961   1.640
 7849WAT     H123789   1.042   6.878   1.691
 7849WAT     H223790   1.064   7.040   1.680
 7850WAT      O23791   4.506   7.457   6.594
 7850WAT     H123792   4.421   7.408   6.576
 7850WAT     H223793   4.571   7.439   6.520
 7851WAT      O23794   2.482   2.232   1.971
 7851WAT     H123795   2.512   2.162   2.036
 7851WAT     H223796   2.395   2.270   2.002
 7852WAT      O23797   1.804   6.021   1.201
 7852WAT     H123798   1.772   5.954   1.134
 7852WAT     H223799   1.845   6.099   1.154
 7853WAT      O23800   4.238   4.780   0.596
 7853WAT     H123801   4.307   4.817   0.659
 7853WAT     H223802   4.205   4.854   0.536
 7854WAT      O23803   9.353   0.928   6.106
 7854WAT     H123804   9.290   0.931   6.028
 7854WAT     H223805   9.435   0.980   6.085
 7855WAT      O23806   9.192   5.778   8.973
 7855WAT     H123807   9.224   5.684   8.985
 7855WAT     H223808   9.164   5.815   9.061
 7856WAT      O23809   1.950   8.391   6.295
 7856WAT     H123810   1.942   8.384   6.394
 7856WAT     H223811   1.863   8.364   6.252
 7857WAT      O23812   8.420   6.915   3.638
 7857WAT     H123813   8.356   6.862   3.693
 7857WAT     H223814   8.512   6.878   3.649
 7858WAT      O23815   2.598   8.570   7.740
 7858WAT     H123816   2.591   8.573   7.641
 7858WAT     H223817   2.650   8.649   7.772
 7859WAT      O23818   3.418   0.165   5.664
 7859WAT     H123819   3.502   0.205   5.701
 7859WAT     H223820   3.339   0.212   5.703
 7860WAT      O23821   8.986   8.380   2.665
 7860WAT     H123822   9.041   8.420   2.738
 7860WAT     H223823   8.898   8.349   2.702
 7861WAT      O23824   1.447   2.273   8.324
 7861WAT     H123825   1.523   2.337   8.319
 7861WAT     H223826   1.428   2.250   8.419
 7862WAT      O23827   4.752   5.212   7.976
 7862WAT     H123828   4.834   5.178   8.023
 7862WAT     H223829   4.749   5.173   7.884
 7863WAT      O23830   7.048   8.653   4.314
 7863WAT     H123831   7.038   8.742   4.268
 7863WAT     H223832   7.104   8.663   4.395
 7864WAT      O23833   3.542   5.822   8.281
 7864WAT     H123834   3.622   5.766   8.260
 7864WAT     H223835   3.525   5.820   8.379
 7865WAT      O23836   9.085   0.454   4.025
 7865WAT     H123837   9.108   0.402   3.943
 7865WAT     H223838   8.986   0.456   4.036
 7866WAT      O23839   0.134   0.972   2.192
 7866WAT     H123840   0.085   0.905   2.247
 7866WAT     H223841   0.117   0.954   2.095
 7867WAT      O23842   3.168   4.076   6.331
 7867WAT     H123843   3.172   3.982   6.296
 7867WAT     H223844   3.162   4.074   6.430
 7868WAT      O23845   0.989   6.249   9.101
 7868WAT     H123846   1.046   6.302   9.164
 7868WAT     H223847   1.040   6.169   9.069
 7869WAT      O23848   4.785   8.426   1.779
 7869WAT     H123849   4.808   8.429   1.876
 7869WAT     H223850   4.841   8.492   1.729
 7870WAT      O23851   6.212   6.798   6.363
 7870WAT     H123852   6.214   6.846   6.275
 7870WAT     H223853   6.299   6.811   6.410
 7871WAT      O23854   0.502   7.980   3.434
 7871WAT     H123855   0.482   7.936   3.522
 7871WAT     H223856   0.439   8.057   3.420
 7872WAT      O23857   7.452   0.495   7.978
 7872WAT     H123858   7.365   0.543   7.966
 7872WAT     H223859   7.446   0.405   7.935
 7873WAT      O23860   5.264   3.629   0.270
 7873WAT     H123861   5.302   3.720   0.286
 7873WAT     H223862   5.260   3.579   0.357
 7874WAT      O23863   6.614   7.954   6.239
 7874WAT     H123864   6.623   7.878   6.175
 7874WAT     H223865   6.563   8.029   6.195
 7875WAT      O23866   1.513   2.734   2.315
 7875WAT     H123867   1.450   2.658   2.298
 7875WAT     H223868   1.607   2.699   2.317
 7876WAT      O23869   5.402   2.571   6.412
 7876WAT     H123870   5.492   2.527   6.409
 7876WAT     H223871   5.331   2.501   6.412
 7877WAT      O23872   9.006   0.643   3.737
 7877WAT     H123873   9.042   0.581   3.667
 7877WAT     H223874   8.941   0.706   3.695
 7878WAT      O23875   5.420   3.666   0.990
 7878WAT     H123876   5.502   3.721   1.009
 7878WAT     H223877   5.422   3.636   0.895
 7879WAT      O23878   1.124   9.171   0.117
 7879WAT     H123879   1.127   9.093   0.179
 7879WAT     H223880   1.142   9.255   0.168
 7880WAT      O23881   2.405   8.983   9.367
 7880WAT     H123882   2.355   8.916   9.311
 7880WAT     H223883   2.428   8.941   9.455
 7881WAT      O23884   7.160   8.172   0.772
 7881WAT     H123885   7.111   8.094   0.733
 7881WAT     H223886   7.155   8.169   0.871
 7882WAT      O23887   4.063   1.148   4.350
 7882WAT     H123888   3.974   1.138   4.306
 7882WAT     H223889   4.115   1.220   4.303
 7883WAT      O23890   3.766   8.176   2.368
 7883WAT     H123891   3.705   8.229   2.308
 7883WAT     H223892   3.775   8.223   2.456
 7884WAT      O23893   7.087   6.538   7.145
 7884WAT     H123894   7.172   6.583   7.119
 7884WAT     H223895   7.051   6.487   7.067
 7885WAT      O23896   7.717   3.316   9.582
 7885WAT     H123897   7.699   3.403   9.537
 7885WAT     H223898   7.813   3.292   9.571
 7886WAT      O23899   9.445   3.875   6.125
 7886WAT     H123900   9.346   3.861   6.132
 7886WAT     H223901   9.465   3.973   6.126
 7887WAT      O23902   9.644   3.102   3.054
 7887WAT     H123903   9.684   3.040   2.987
 7887WAT     H223904   9.713   3.168   3.084
 7888WAT      O23905   1.441   8.660   7.876
 7888WAT     H123906   1.483   8.593   7.937
 7888WAT     H223907   1.409   8.614   7.793
 7889WAT      O23908   0.822   8.933   1.047
 7889WAT     H123909   0.842   8.845   1.091
 7889WAT     H223910   0.733   8.966   1.078
 7890WAT      O23911   8.200   6.902   9.691
 7890WAT     H123912   8.138   6.980   9.689
 7890WAT     H223913   8.179   6.840   9.615
 7891WAT      O23914   6.079   7.571   9.388
 7891WAT     H123915   6.083   7.472   9.404
 7891WAT     H223916   6.023   7.613   9.460
 7892WAT      O23917   2.681   2.033   6.202
 7892WAT     H123918   2.653   1.954   6.147
 7892WAT     H223919   2.760   2.007   6.258
 7893WAT      O23920   5.471   7.677   1.138
 7893WAT     H123921   5.395   7.725   1.094
 7893WAT     H223922   5.544   7.741   1.158
 7894WAT      O23923   9.654   6.814   9.155
 7894WAT     H123924   9.670   6.787   9.060
 7894WAT     H223925   9.718   6.765   9.215
 7895WAT      O23926   6.848   6.224   0.043
 7895WAT     H123927   6.748   6.223   0.033
 7895WAT     H223928   6.878   6.317   0.065
 7896WAT      O23929   9.685   8.238   9.309
 7896WAT     H123930   9.632   8.294   9.374
 7896WAT     H223931   9.779   8.272   9.305
 7897WAT      O23932   0.395   1.491   7.820
 7897WAT     H123933   0.389   1.407   7.766
 7897WAT     H223934   0.322   1.553   7.793
 7898WAT      O23935   2.083   6.061   6.454
 7898WAT     H123936   2.024   6.018   6.523
 7898WAT     H223937   2.064   6.159   6.450
 7899WAT      O23938   1.326   1.406   5.561
 7899WAT     H123939   1.418   1.416   5.524
 7899WAT     H223940   1.259   1.408   5.487
 7900WAT      O23941   3.912   6.902   0.018
 7900WAT     H123942   3.852   6.976  -0.012
 7900WAT     H223943   3.989   6.894  -0.045
 7901WAT      O23944   1.958   9.567   0.707
 7901WAT     H123945   1.966   9.654   0.659
 7901WAT     H223946   2.007   9.496   0.657
 7902WAT      O23947   3.678   6.494   8.887
 7902WAT     H123948   3.693   6.484   8.789
 7902WAT     H223949   3.720   6.418   8.936
 7903WAT      O23950   5.260   7.905   7.470
 7903WAT     H123951   5.322   7.833   7.440
 7903WAT     H223952   5.306   7.993   7.466
 7904WAT      O23953   6.759   9.601   0.774
 7904WAT     H123954   6.680   9.539   0.765
 7904WAT     H223955   6.759   9.665   0.697
 7905WAT      O23956   7.366   3.816   0.253
 7905WAT     H123957   7.340   3.824   0.350
 7905WAT     H223958   7.466   3.817   0.246
 7906WAT      O23959   7.700   5.992   4.274
 7906WAT     H123960   7.745   6.068   4.227
 7906WAT     H223961   7.607   6.018   4.299
 7907WAT      O23962   7.977   9.820   8.431
 7907WAT     H123963   8.038   9.806   8.509
 7907WAT     H223964   7.983   9.741   8.370
 7908WAT      O23965   4.083   6.881   4.468
 7908WAT     H123966   4.108   6.856   4.562
 7908WAT     H223967   3.996   6.837   4.444
 7909WAT      O23968   4.311   9.772   9.886
 7909WAT     H123969   4.279   9.682   9.914
 7909WAT     H223970   4.407   9.765   9.857
 7910WAT      O23971   1.611   6.762   5.583
 7910WAT     H123972   1.620   6.828   5.657
 7910WAT     H223973   1.616   6.669   5.620
 7911WAT      O23974   3.841   8.509   5.741
 7911WAT     H123975   3.811   8.439   5.806
 7911WAT     H223976   3.765   8.535   5.682
 7912WAT      O23977   3.380   0.924   7.778
 7912WAT     H123978   3.407   0.931   7.681
 7912WAT     H223979   3.281   0.932   7.785
 7913WAT      O23980   9.577   0.213   7.570
 7913WAT     H123981   9.567   0.169   7.660
 7913WAT     H223982   9.491   0.204   7.519
 7914WAT      O23983   3.070   1.333   0.259
 7914WAT     H123984   3.083   1.243   0.218
 7914WAT     H223985   3.131   1.343   0.337
 7915WAT      O23986   7.140   1.979   0.765
 7915WAT     H123987   7.147   1.987   0.666
 7915WAT     H223988   7.181   1.892   0.794
 7916WAT      O23989   5.915   8.833   8.728
 7916WAT     H123990   5.922   8.926   8.766
 7916WAT     H223991   5.893   8.769   8.802
 7917WAT      O23992   5.771   1.930   7.233
 7917WAT     H123993   5.844   1.928   7.301
 7917WAT     H223994   5.780   2.013   7.177
 7918WAT      O23995   6.021   2.225   7.775
 7918WAT     H123996   6.076   2.150   7.740
 7918WAT     H223997   5.938   2.234   7.720
 7919WAT      O23998   7.215   5.553   4.217
 7919WAT     H123999   7.291   5.588   4.163
 7919WAT     H224000   7.197   5.458   4.192
 7920WAT      O24001   6.636   6.995   7.452
 7920WAT     H124002   6.600   7.086   7.471
 7920WAT     H224003   6.661   6.988   7.355
 7921WAT      O24004   8.390   9.685   0.834
 7921WAT     H124005   8.367   9.774   0.874
 7921WAT     H224006   8.347   9.677   0.744
 7922WAT      O24007   4.172   3.925   5.186
 7922WAT     H124008   4.235   3.866   5.237
 7922WAT     H224009   4.102   3.868   5.142
 7923WAT      O24010   4.208   0.619   4.211
 7923WAT     H124011   4.128   0.560   4.216
 7923WAT     H224012   4.200   0.691   4.281
 7924WAT      O24013   1.182   0.353   7.075
 7924WAT     H124014   1.225   0.389   6.993
 7924WAT     H224015   1.129   0.271   7.052
 7925WAT      O24016   9.258   3.852   6.430
 7925WAT     H124017   9.238   3.910   6.350
 7925WAT     H224018   9.285   3.761   6.399
 7926WAT      O24019   5.790   0.898   9.349
 7926WAT     H124020   5.811   0.960   9.425
 7926WAT     H224021   5.861   0.827   9.343
 7927WAT      O24022   0.570   7.445   1.331
 7927WAT     H124023   0.612   7.429   1.242
 7927WAT     H224024   0.641   7.459   1.400
 7928WAT      O24025   5.018   4.519   3.709
 7928WAT     H124026   5.103   4.530   3.761
 7928WAT     H224027   5.026   4.441   3.647
 7929WAT      O24028   6.708   8.683   9.611
 7929WAT     H124029   6.755   8.598   9.631
 7929WAT     H224030   6.775   8.755   9.590
 7930WAT      O24031   4.781   4.623   1.066
 7930WAT     H124032   4.754   4.666   0.979
 7930WAT     H224033   4.699   4.608   1.121
 7931WAT      O24034   3.860   7.687   7.806
 7931WAT     H124035   3.937   7.736   7.765
 7931WAT     H224036   3.817   7.744   7.876
 7932WAT      O24037   8.062   7.542   0.849
 7932WAT     H124038   7.990   7.513   0.911
 7932WAT     H224039   8.124   7.604   0.897
 7933WAT      O24040   7.324   3.442   0.198
 7933WAT     H124041   7.277   3.410   0.280
 7933WAT     H224042   7.365   3.364   0.151
 7934WAT      O24043   4.531   5.087   8.149
 7934WAT     H124044   4.493   5.098   8.057
 7934WAT     H224045   4.629   5.106   8.147
 7935WAT      O24046   7.879   6.515   5.882
 7935WAT     H124047   7.936   6.595   5.862
 7935WAT     H224048   7.811   6.503   5.810
 7936WAT      O24049   6.179   6.599   9.226
 7936WAT     H124050   6.222   6.555   9.147
 7936WAT     H224051   6.097   6.648   9.196
 7937WAT      O24052   3.706   6.542   2.126
 7937WAT     H124053   3.658   6.474   2.182
 7937WAT     H224054   3.765   6.598   2.185
 7938WAT      O24055   0.120   4.643   5.827
 7938WAT     H124056   0.044   4.632   5.762
 7938WAT     H224057   0.090   4.616   5.918
 7939WAT      O24058   3.288   1.937   1.468
 7939WAT     H124059   3.248   1.851   1.437
 7939WAT     H224060   3.358   1.966   1.404
 7940WAT      O24061   6.848   4.220   5.191
 7940WAT     H124062   6.893   4.194   5.105
 7940WAT     H224063   6.882   4.309   5.221
 7941WAT      O24064   8.010   5.623   3.266
 7941WAT     H124065   8.079   5.576   3.320
 7941WAT     H224066   7.985   5.709   3.310
 7942WAT      O24067   7.413   3.876   5.616
 7942WAT     H124068   7.322   3.873   5.576
 7942WAT     H224069   7.407   3.861   5.715
 7943WAT      O24070   3.921   6.442   3.701
 7943WAT     H124071   3.982   6.368   3.729
 7943WAT     H224072   3.950   6.528   3.744
 7944WAT      O24073   6.620   0.198   7.719
 7944WAT     H124074   6.617   0.208   7.620
 7944WAT     H224075   6.632   0.101   7.742
 7945WAT      O24076   2.623   2.304   2.299
 7945WAT     H124077   2.553   2.328   2.366
 7945WAT     H224078   2.659   2.387   2.257
 7946WAT      O24079   1.322   3.934   2.036
 7946WAT     H124080   1.313   3.884   2.122
 7946WAT     H224081   1.234   3.935   1.988
 7947WAT      O24082   3.225   8.543   3.195
 7947WAT     H124083   3.235   8.526   3.097
 7947WAT     H224084   3.208   8.456   3.242
 7948WAT      O24085   7.107   5.522   4.462
 7948WAT     H124086   7.060   5.435   4.449
 7948WAT     H224087   7.162   5.542   4.381
 7949WAT      O24088   9.333   0.700   8.366
 7949WAT     H124089   9.240   0.685   8.399
 7949WAT     H224090   9.333   0.771   8.296
 7950WAT      O24091   1.204   1.530   8.267
 7950WAT     H124092   1.131   1.562   8.206
 7950WAT     H224093   1.192   1.433   8.285
 7951WAT      O24094   2.615   0.843   3.229
 7951WAT     H124095   2.524   0.854   3.188
 7951WAT     H224096   2.616   0.761   3.287
 7952WAT      O24097   0.202   3.291   5.987
 7952WAT     H124098   0.196   3.384   6.024
 7952WAT     H224099   0.296   3.258   5.994
 7953WAT      O24100   9.313   2.253   8.762
 7953WAT     H124101   9.274   2.173   8.807
 7953WAT     H224102   9.403   2.232   8.726
 7954WAT      O24103   6.050   4.366   1.089
 7954WAT     H124104   6.052   4.382   1.188
 7954WAT     H224105   5.958   4.339   1.062
 7955WAT      O24106   2.531   6.212   6.575
 7955WAT     H124107   2.484   6.299   6.557
 7955WAT     H224108   2.616   6.208   6.523
 7956WAT      O24109   7.345   5.327   8.639
 7956WAT     H124110   7.346   5.411   8.692
 7956WAT     H224111   7.372   5.250   8.697
 7957WAT      O24112   0.267   0.765   8.285
 7957WAT     H124113   0.325   0.845   8.273
 7957WAT     H224114   0.205   0.756   8.207
 7958WAT      O24115   8.111   1.387   5.563
 7958WAT     H124116   8.057   1.457   5.609
 7958WAT     H224117   8.130   1.416   5.469
 7959WAT      O24118   0.898   1.162   7.951
 7959WAT     H124119   0.860   1.137   8.041
 7959WAT     H224120   0.841   1.123   7.879
 7960WAT      O24121   5.555   0.965   6.335
 7960WAT     H124122   5.520   1.024   6.262
 7960WAT     H224123   5.652   0.947   6.319
 7961WAT      O24124   4.312   4.129   4.501
 7961WAT     H124125   4.318   4.145   4.403
 7961WAT     H224126   4.303   4.216   4.549
 7962WAT      O24127   0.866   5.794   9.766
 7962WAT     H124128   0.852   5.714   9.825
 7962WAT     H224129   0.783   5.849   9.764
 7963WAT      O24130   2.556   3.307   4.857
 7963WAT     H124131   2.590   3.249   4.931
 7963WAT     H224132   2.497   3.378   4.895
 7964WAT      O24133   3.157   9.546   2.108
 7964WAT     H124134   3.208   9.470   2.150
 7964WAT     H224135   3.127   9.609   2.179
 7965WAT      O24136   7.338   7.747   1.079
 7965WAT     H124137   7.272   7.769   1.150
 7965WAT     H224138   7.307   7.784   0.991
 7966WAT      O24139   5.160   1.392   2.855
 7966WAT     H124140   5.146   1.410   2.952
 7966WAT     H224141   5.125   1.301   2.833
 7967WAT      O24142   2.289   3.294   5.279
 7967WAT     H124143   2.210   3.343   5.315
 7967WAT     H224144   2.308   3.214   5.337
 7968WAT      O24145   7.237   8.806   7.168
 7968WAT     H124146   7.158   8.768   7.119
 7968WAT     H224147   7.206   8.879   7.229
 7969WAT      O24148   6.743   7.480   0.980
 7969WAT     H124149   6.795   7.561   1.009
 7969WAT     H224150   6.665   7.466   1.042
 7970WAT      O24151   2.886   6.804   4.214
 7970WAT     H124152   2.978   6.783   4.180
 7970WAT     H224153   2.847   6.722   4.256
 7971WAT      O24154   5.118   7.596   2.126
 7971WAT     H124155   5.145   7.505   2.157
 7971WAT     H224156   5.025   7.616   2.159
 7972WAT      O24157   5.371   5.259   7.591
 7972WAT     H124158   5.359   5.161   7.612
 7972WAT     H224159   5.411   5.269   7.501
 7973WAT      O24160   7.235   9.783   5.214
 7973WAT     H124161   7.278   9.868   5.184
 7973WAT     H224162   7.260   9.765   5.310
 7974WAT      O24163   5.121   2.903   1.095
 7974WAT     H124164   5.078   2.992   1.081
 7974WAT     H224165   5.160   2.870   1.009
 7975WAT      O24166   1.334   2.715   4.978
 7975WAT     H124167   1.262   2.748   4.916
 7975WAT     H224168   1.387   2.644   4.932
 7976WAT      O24169   0.604   0.197   9.373
 7976WAT     H124170   0.540   0.272   9.386
 7976WAT     H224171   0.696   0.233   9.359
 7977WAT      O24172   7.770   3.215   5.173
 7977WAT     H124173   7.780   3.311   5.146
 7977WAT     H224174   7.822   3.199   5.257
 7978WAT      O24175   5.919   9.636   8.552
 7978WAT     H124176   6.008   9.644   8.598
 7978WAT     H224177   5.846   9.647   8.619
 7979WAT      O24178   3.636   5.634   2.277
 7979WAT     H124179   3.571   5.678   2.214
 7979WAT     H224180   3.698   5.575   2.225
 7980WAT      O24181   4.485   5.367   9.425
 7980WAT     H124182   4.532   5.290   9.382
 7980WAT     H224183   4.442   5.336   9.510
 7981WAT      O24184   8.513   2.252   2.340
 7981WAT     H124185   8.428   2.244   2.392
 7981WAT     H224186   8.561   2.164   2.341
 7982WAT      O24187   1.884   9.016   0.076
 7982WAT     H124188   1.856   8.948   0.009
 7982WAT     H224189   1.974   9.053   0.052
 7983WAT      O24190   7.903   9.265   7.705
 7983WAT     H124191   7.989   9.277   7.656
 7983WAT     H224192   7.905   9.180   7.757
 7984WAT      O24193   9.186   4.985   0.177
 7984WAT     H124194   9.213   5.079   0.155
 7984WAT     H224195   9.220   4.962   0.269
 7985WAT      O24196   3.817   7.910   2.331
 7985WAT     H124197   3.903   7.874   2.367
 7985WAT     H224198   3.800   8.001   2.369
 7986WAT      O24199   4.726   1.668   5.294
 7986WAT     H124200   4.688   1.711   5.376
 7986WAT     H224201   4.673   1.587   5.270
 7987WAT      O24202   9.354   2.948   2.194
 7987WAT     H124203   9.344   2.858   2.152
 7987WAT     H224204   9.272   2.970   2.247
 7988WAT      O24205   3.454   7.876   8.057
 7988WAT     H124206   3.531   7.923   8.015
 7988WAT     H224207   3.369   7.923   8.034
 7989WAT      O24208   5.879   8.881   0.669
 7989WAT     H124209   5.934   8.829   0.735
 7989WAT     H224210   5.825   8.950   0.718
 7990WAT      O24211   9.464   5.814   4.797
 7990WAT     H124212   9.477   5.911   4.820
 7990WAT     H224213   9.453   5.761   4.880
 7991WAT      O24214   4.566   0.119   4.755
 7991WAT     H124215   4.614   0.137   4.841
 7991WAT     H224216   4.496   0.049   4.770
 7992WAT      O24217   5.331   1.552   9.824
 7992WAT     H124218   5.310   1.534   9.920
 7992WAT     H224219   5.364   1.646   9.813
 7993WAT      O24220   6.963   8.710   7.922
 7993WAT     H124221   6.891   8.779   7.932
 7993WAT     H224222   6.943   8.653   7.842
 7994WAT      O24223   6.912   6.332   6.533
 7994WAT     H124224   6.878   6.335   6.627
 7994WAT     H224225   7.001   6.286   6.531
 7995WAT      O24226   9.079   0.000   6.592
 7995WAT     H124227   9.077   0.094   6.558
 7995WAT     H224228   9.025  -0.006   6.676
 7996WAT      O24229   3.395   1.444   7.687
 7996WAT     H124230   3.457   1.519   7.711
 7996WAT     H224231   3.377   1.446   7.588
 7997WAT      O24232   4.305   3.010   5.404
 7997WAT     H124233   4.301   3.094   5.349
 7997WAT     H224234   4.273   2.933   5.350
 7998WAT      O24235   4.729   6.340   4.442
 7998WAT     H124236   4.707   6.247   4.470
 7998WAT     H224237   4.754   6.341   4.346
 7999WAT      O24238   6.943   6.895   1.020
 7999WAT     H124239   6.917   6.812   1.068
 7999WAT     H224240   7.033   6.883   0.977
 8000WAT      O24241   1.918   3.336   1.491
 8000WAT     H124242   1.895   3.339   1.589
 8000WAT     H224243   1.924   3.429   1.455
 8001WAT      O24244   8.474   4.551   4.528
 8001WAT     H124245   8.477   4.577   4.625
 8001WAT     H224246   8.558   4.502   4.504
 8002WAT      O24247   6.560   3.405   0.696
 8002WAT     H124248   6.604   3.492   0.672
 8002WAT     H224249   6.621   3.351   0.754
 8003WAT      O24250   0.773   6.805   1.072
 8003WAT     H124251   0.860   6.782   1.028
 8003WAT     H224252   0.740   6.893   1.037
 8004WAT      O24253   5.679   0.302   0.555
 8004WAT     H124254   5.714   0.233   0.619
 8004WAT     H224255   5.590   0.334   0.587
 8005WAT      O24256   6.148   7.761   0.527
 8005WAT     H124257   6.200   7.744   0.443
 8005WAT     H224258   6.129   7.674   0.573
 8006WAT      O24259   5.694   0.140   6.182
 8006WAT     H124260   5.746   0.054   6.188
 8006WAT     H224261   5.612   0.126   6.127
 8007WAT      O24262   5.393   3.101   6.480
 8007WAT     H124263   5.404   3.143   6.570
 8007WAT     H224264   5.393   3.001   6.490
 8008WAT      O24265   4.415   5.062   7.322
 8008WAT     H124266   4.377   4.972   7.343
 8008WAT     H224267   4.430   5.071   7.224
 8009WAT      O24268   0.215   0.749   4.855
 8009WAT     H124269   0.246   0.671   4.800
 8009WAT     H224270   0.164   0.716   4.934
 8010WAT      O24271   1.346   0.362   4.436
 8010WAT     H124272   1.434   0.362   4.387
 8010WAT     H224273   1.292   0.441   4.407
 8011WAT      O24274   8.327   2.424   3.734
 8011WAT     H124275   8.253   2.357   3.739
 8011WAT     H224276   8.391   2.409   3.809
 8012WAT      O24277   5.490   8.696   1.376
 8012WAT     H124278   5.422   8.762   1.344
 8012WAT     H224279   5.518   8.637   1.301
 8013WAT      O24280   0.437   0.389   2.882
 8013WAT     H124281   0.361   0.349   2.832
 8013WAT     H224282   0.494   0.442   2.820
 8014WAT      O24283   8.362   3.632   0.953
 8014WAT     H124284   8.450   3.616   0.997
 8014WAT     H224285   8.298   3.670   1.020
 8015WAT      O24286   6.497   8.718   2.502
 8015WAT     H124287   6.479   8.754   2.410
 8015WAT     H224288   6.519   8.793   2.563
 8016WAT      O24289   5.658   1.675   8.519
 8016WAT     H124290   5.606   1.707   8.599
 8016WAT     H224291   5.594   1.641   8.450
 8017WAT      O24292   0.343   4.128   8.838
 8017WAT     H124293   0.339   4.149   8.740
 8017WAT     H224294   0.437   4.106   8.864
 8018WAT      O24295   4.596   2.180   6.953
 8018WAT     H124296   4.603   2.280   6.959
 8018WAT     H224297   4.503   2.152   6.976
 8019WAT      O24298   5.660   0.623   9.477
 8019WAT     H124299   5.731   0.612   9.409
 8019WAT     H224300   5.579   0.571   9.450
 8020WAT      O24301   3.015   5.481   6.753
 8020WAT     H124302   3.016   5.390   6.793
 8020WAT     H224303   2.921   5.510   6.736
 8021WAT      O24304   7.125   6.433   0.609
 8021WAT     H124305   7.216   6.422   0.571
 8021WAT     H224306   7.070   6.352   0.589
 8022WAT      O24307   2.250   6.758   8.243
 8022WAT     H124308   2.243   6.849   8.202
 8022WAT     H224309   2.220   6.763   8.339
 8023WAT      O24310   1.218   1.890   5.592
 8023WAT     H124311   1.184   1.984   5.603
 8023WAT     H224312   1.245   1.854   5.681
 8024WAT      O24313   1.746   4.819   5.222
 8024WAT     H124314   1.845   4.812   5.234
 8024WAT     H224315   1.710   4.892   5.280
 8025WAT      O24316   6.345   9.082   1.048
 8025WAT     H124317   6.326   9.075   1.146
 8025WAT     H224318   6.315   8.997   1.002
 8026WAT      O24319   2.734   2.614   4.717
 8026WAT     H124320   2.733   2.537   4.653
 8026WAT     H224321   2.640   2.647   4.731
 8027WAT      O24322   4.619   1.704   9.581
 8027WAT     H124323   4.646   1.635   9.648
 8027WAT     H224324   4.586   1.658   9.498
 8028WAT      O24325   1.907   0.056   9.428
 8028WAT     H124326   1.945   0.132   9.481
 8028WAT     H224327   1.977  -0.013   9.413
 8029WAT      O24328   9.226   4.203   2.193
 8029WAT     H124329   9.277   4.229   2.275
 8029WAT     H224330   9.158   4.273   2.172
 8030WAT      O24331   5.945   7.151   8.690
 8030WAT     H124332   6.005   7.225   8.721
 8030WAT     H224333   5.900   7.109   8.770
 8031WAT      O24334   6.126   7.881   6.729
 8031WAT     H124335   6.139   7.801   6.787
 8031WAT     H224336   6.056   7.941   6.769
 8032WAT      O24337   3.797   7.447   2.159
 8032WAT     H124338   3.860   7.483   2.091
 8032WAT     H224339   3.755   7.522   2.209
 8033WAT      O24340   8.664   9.455   2.046
 8033WAT     H124341   8.583   9.492   2.001
 8033WAT     H224342   8.746   9.500   2.012
 8034WAT      O24343   4.719   1.475   9.654
 8034WAT     H124344   4.790   1.405   9.649
 8034WAT     H224345   4.632   1.433   9.678
 8035WAT      O24346   6.589   9.074   2.171
 8035WAT     H124347   6.621   9.104   2.081
 8035WAT     H224348   6.514   9.133   2.200
 8036WAT      O24349   4.312   8.410   8.843
 8036WAT     H124350   4.303   8.393   8.745
 8036WAT     H224351   4.349   8.502   8.858
 8037WAT      O24352   5.593   3.951   8.159
 8037WAT     H124353   5.662   3.883   8.183
 8037WAT     H224354   5.502   3.911   8.167
 8038WAT      O24355   4.553   1.218   4.003
 8038WAT     H124356   4.616   1.267   4.062
 8038WAT     H224357   4.559   1.120   4.022
 8039WAT      O24358   1.439   3.991   0.887
 8039WAT     H124359   1.487   4.018   0.804
 8039WAT     H224360   1.495   4.013   0.967
 8040WAT      O24361   9.452   6.178   6.109
 8040WAT     H124362   9.531   6.209   6.162
 8040WAT     H224363   9.368   6.206   6.155
 8041WAT      O24364   4.192   6.504   1.317
 8041WAT     H124365   4.154   6.510   1.225
 8041WAT     H224366   4.123   6.467   1.379
 8042WAT      O24367   9.116   7.290   0.363
 8042WAT     H124368   9.181   7.214   0.365
 8042WAT     H224369   9.046   7.276   0.432
 8043WAT      O24370   2.138   1.419   2.478
 8043WAT     H124371   2.094   1.499   2.519
 8043WAT     H224372   2.216   1.392   2.534
 8044WAT      O24373   5.967   1.014   1.130
 8044WAT     H124374   5.892   1.008   1.064
 8044WAT     H224375   5.950   1.089   1.194
 8045WAT      O24376   0.576   6.647   2.980
 8045WAT     H124377   0.509   6.595   3.034
 8045WAT     H224378   0.529   6.714   2.923
 8046WAT      O24379   4.063   5.786   2.343
 8046WAT     H124380   4.138   5.791   2.278
 8046WAT     H224381   4.057   5.693   2.380
 8047WAT      O24382   5.406   1.229   8.172
 8047WAT     H124383   5.417   1.162   8.099
 8047WAT     H224384   5.441   1.318   8.141
 8048WAT      O24385   0.332   7.156   7.089
 8048WAT     H124386   0.295   7.079   7.140
 8048WAT     H224387   0.431   7.162   7.103
 8049WAT      O24388   3.594   9.374   0.516
 8049WAT     H124389   3.675   9.317   0.504
 8049WAT     H224390   3.596   9.449   0.450
 8050WAT      O24391   6.615   4.975   4.768
 8050WAT     H124392   6.690   5.033   4.800
 8050WAT     H224393   6.628   4.952   4.672
 8051WAT      O24394   9.522   5.746   2.335
 8051WAT     H124395   9.620   5.727   2.334
 8051WAT     H224396   9.487   5.749   2.242
 8052WAT      O24397   1.692   2.586   9.174
 8052WAT     H124398   1.775   2.628   9.211
 8052WAT     H224399   1.716   2.498   9.132
 8053WAT      O24400   3.359   5.134   6.626
 8053WAT     H124401   3.363   5.061   6.695
 8053WAT     H224402   3.387   5.220   6.667
 8054WAT      O24403   2.468   7.011   7.714
 8054WAT     H124404   2.434   7.027   7.622
 8054WAT     H224405   2.433   7.082   7.776
 8055WAT      O24406   2.790   2.972   2.061
 8055WAT     H124407   2.839   2.946   2.144
 8055WAT     H224408   2.848   2.957   1.981
 8056WAT      O24409   6.718   6.395   8.859
 8056WAT     H124410   6.816   6.394   8.880
 8056WAT     H224411   6.670   6.340   8.927
 8057WAT      O24412   7.110   8.043   1.000
 8057WAT     H124413   7.158   7.970   0.952
 8057WAT     H224414   7.032   8.004   1.049
 8058WAT      O24415   3.677   8.899   0.933
 8058WAT     H124416   3.714   8.806   0.944
 8058WAT     H224417   3.721   8.960   0.998
 8059WAT      O24418   7.290   8.039   4.054
 8059WAT     H124419   7.243   7.959   4.018
 8059WAT     H224420   7.250   8.065   4.142
 8060WAT      O24421   3.442   5.675   3.450
 8060WAT     H124422   3.468   5.768   3.424
 8060WAT     H224423   3.478   5.610   3.384
 8061WAT      O24424   3.806   5.986   0.194
 8061WAT     H124425   3.819   5.888   0.205
 8061WAT     H224426   3.797   6.008   0.096
 8062WAT      O24427   0.585   5.282   8.903
 8062WAT     H124428   0.500   5.326   8.874
 8062WAT     H224429   0.640   5.259   8.823
 8063WAT      O24430   4.935   3.619   8.354
 8063WAT     H124431   4.939   3.712   8.390
 8063WAT     H224432   4.995   3.560   8.407
 8064WAT      O24433   0.408   0.370   9.422
 8064WAT     H124434   0.416   0.467   9.448
 8064WAT     H224435   0.384   0.316   9.503
 8065WAT      O24436   8.334   7.343   2.486
 8065WAT     H124437   8.429   7.367   2.508
 8065WAT     H224438   8.331   7.298   2.397
 8066WAT      O24439   6.185   1.777   7.007
 8066WAT     H124440   6.088   1.800   7.012
 8066WAT     H224441   6.202   1.719   6.928
 8067WAT      O24442   2.854   0.926   3.133
 8067WAT     H124443   2.763   0.898   3.164
 8067WAT     H224444   2.846   0.989   3.056
 8068WAT      O24445   1.028   0.832   4.106
 8068WAT     H124446   1.065   0.762   4.167
 8068WAT     H224447   0.935   0.856   4.136
 8069WAT      O24448   3.399   0.268   2.652
 8069WAT     H124449   3.490   0.256   2.614
 8069WAT     H224450   3.350   0.339   2.600
 8070WAT      O24451   8.338   8.759   7.593
 8070WAT     H124452   8.314   8.754   7.690
 8070WAT     H224453   8.435   8.737   7.581
 8071WAT      O24454   3.310   0.025   1.968
 8071WAT     H124455   3.219   0.049   1.933
 8071WAT     H224456   3.335  -0.066   1.936
 8072WAT      O24457   5.343   8.262   4.923
 8072WAT     H124458   5.394   8.211   4.992
 8072WAT     H224459   5.381   8.242   4.832
 8073WAT      O24460   8.992   1.481   4.852
 8073WAT     H124461   8.963   1.544   4.780
 8073WAT     H224462   8.947   1.504   4.938
 8074WAT      O24463   6.217   5.487   0.675
 8074WAT     H124464   6.196   5.571   0.725
 8074WAT     H224465   6.140   5.424   0.682
 8075WAT      O24466   9.818   7.662   5.869
 8075WAT     H124467   9.891   7.717   5.829
 8075WAT     H224468   9.857   7.589   5.924
 8076WAT      O24469   3.864   9.613   4.468
 8076WAT     H124470   3.901   9.585   4.557
 8076WAT     H224471   3.819   9.702   4.477
 8077WAT      O24472   6.228   4.048   8.017
 8077WAT     H124473   6.285   4.020   8.094
 8077WAT     H224474   6.285   4.092   7.947
 8078WAT      O24475   5.443   0.036   4.419
 8078WAT     H124476   5.424  -0.057   4.450
 8078WAT     H224477   5.484   0.032   4.327
 8079WAT      O24478   3.767   7.809   8.028
 8079WAT     H124479   3.795   7.903   8.046
 8079WAT     H224480   3.766   7.757   8.114
 8080WAT      O24481   7.538   2.391   1.168
 8080WAT     H124482   7.454   2.402   1.115
 8080WAT     H224483   7.551   2.470   1.227
 8081WAT      O24484   3.117   8.123   9.386
 8081WAT     H124485   3.026   8.164   9.392
 8081WAT     H224486   3.140   8.080   9.473
 8082WAT      O24487   8.172   6.219   2.792
 8082WAT     H124488   8.199   6.223   2.888
 8082WAT     H224489   8.138   6.308   2.763
 8083WAT      O24490   0.558   5.698   9.180
 8083WAT     H124491   0.497   5.720   9.256
 8083WAT     H224492   0.624   5.771   9.167
 8084WAT      O24493   9.594   3.870   2.330
 8084WAT     H124494   9.512   3.850   2.276
 8084WAT     H224495   9.621   3.788   2.380
 8085WAT      O24496   0.055   4.450   5.379
 8085WAT     H124497   0.002   4.374   5.417
 8085WAT     H224498   0.144   4.417   5.348
 8086WAT      O24499   2.809   7.875   1.046
 8086WAT     H124500   2.864   7.958   1.040
 8086WAT     H224501   2.750   7.879   1.126
 8087WAT      O24502   6.392   2.375   7.321
 8087WAT     H124503   6.489   2.353   7.312
 8087WAT     H224504   6.375   2.417   7.410
 8088WAT      O24505   3.620   0.646   4.269
 8088WAT     H124506   3.638   0.729   4.321
 8088WAT     H224507   3.530   0.610   4.291
 8089WAT      O24508   7.227   1.038   9.709
 8089WAT     H124509   7.177   1.066   9.791
 8089WAT     H224510   7.188   0.953   9.674
 8090WAT      O24511   4.056   0.865   9.724
 8090WAT     H124512   4.042   0.899   9.816
 8090WAT     H224513   4.134   0.803   9.723
 8091WAT      O24514   1.680   0.665   0.518
 8091WAT     H124515   1.742   0.725   0.569
 8091WAT     H224516   1.616   0.721   0.465
 8092WAT      O24517   1.467   1.682   7.467
 8092WAT     H124518   1.518   1.679   7.380
 8092WAT     H224519   1.400   1.756   7.463
 8093WAT      O24520   4.398   4.487   1.820
 8093WAT     H124521   4.300   4.482   1.839
 8093WAT     H224522   4.413   4.545   1.740
 8094WAT      O24523   9.181   4.341   2.636
 8094WAT     H124524   9.277   4.328   2.612
 8094WAT     H224525   9.171   4.426   2.688
 8095WAT      O24526   9.828   1.830   6.057
 8095WAT     H124527   9.902   1.819   5.990
 8095WAT     H224528   9.781   1.917   6.041
 8096WAT      O24529   4.994   8.130   7.672
 8096WAT     H124530   5.017   8.169   7.582
 8096WAT     H224531   4.913   8.176   7.708
 8097WAT      O24532   1.405   2.346   5.180
 8097WAT     H124533   1.369   2.278   5.245
 8097WAT     H224534   1.477   2.399   5.225
 8098WAT      O24535   3.928   8.144   4.483
 8098WAT     H124536   4.019   8.133   4.441
 8098WAT     H224537   3.866   8.075   4.446
 8099WAT      O24538   6.418   7.496   2.764
 8099WAT     H124539   6.457   7.408   2.733
 8099WAT     H224540   6.384   7.486   2.857
 8100WAT      O24541   4.319   5.866   2.242
 8100WAT     H124542   4.392   5.815   2.198
 8100WAT     H224543   4.345   5.886   2.337
 8101WAT      O24544   1.994   9.580   6.638
 8101WAT     H124545   2.017   9.637   6.717
 8101WAT     H224546   1.953   9.638   6.567
 8102WAT      O24547   2.261   9.012   0.211
 8102WAT     H124548   2.288   8.918   0.230
 8102WAT     H224549   2.168   9.027   0.244
 8103WAT      O24550   2.466   3.772   6.301
 8103WAT     H124551   2.543   3.719   6.264
 8103WAT     H224552   2.406   3.711   6.351
 8104WAT      O24553   8.817   2.080   5.011
 8104WAT     H124554   8.862   2.127   4.935
 8104WAT     H224555   8.886   2.038   5.069
 8105WAT      O24556   7.734   1.503   1.477
 8105WAT     H124557   7.741   1.536   1.571
 8105WAT     H224558   7.791   1.421   1.467
 8106WAT      O24559   2.518   5.643   2.873
 8106WAT     H124560   2.585   5.577   2.906
 8106WAT     H224561   2.430   5.629   2.919
 8107WAT      O24562   0.944   7.661   6.288
 8107WAT     H124563   1.031   7.649   6.336
 8107WAT     H224564   0.960   7.708   6.201
 8108WAT      O24565   4.135   8.090   1.007
 8108WAT     H124566   4.141   8.001   0.962
 8108WAT     H224567   4.212   8.100   1.071
 8109WAT      O24568   4.744   6.857   9.259
 8109WAT     H124569   4.739   6.864   9.160
 8109WAT     H224570   4.677   6.789   9.291
 8110WAT      O24571   1.147   8.012   5.982
 8110WAT     H124572   1.076   8.058   5.929
 8110WAT     H224573   1.205   7.958   5.920
 8111WAT      O24574   4.495   9.431   5.376
 8111WAT     H124575   4.547   9.429   5.462
 8111WAT     H224576   4.541   9.493   5.311
 8112WAT      O24577   0.684   3.421   6.122
 8112WAT     H124578   0.693   3.500   6.062
 8112WAT     H224579   0.762   3.418   6.185
 8113WAT      O24580   5.587   6.263   0.548
 8113WAT     H124581   5.508   6.247   0.488
 8113WAT     H224582   5.610   6.178   0.595
 8114WAT      O24583   0.199   7.775   2.647
 8114WAT     H124584   0.183   7.815   2.557
 8114WAT     H224585   0.129   7.806   2.711
 8115WAT      O24586   1.196   2.153   7.286
 8115WAT     H124587   1.136   2.139   7.365
 8115WAT     H224588   1.212   2.066   7.239
 8116WAT      O24589   0.005   1.549   5.060
 8116WAT     H124590   0.035   1.467   5.011
 8116WAT     H224591  -0.066   1.525   5.125
 8117WAT      O24592   7.838   8.729   0.908
 8117WAT     H124593   7.793   8.814   0.938
 8117WAT     H224594   7.910   8.705   0.972
 8118WAT      O24595   1.127   1.719   2.883
 8118WAT     H124596   1.118   1.798   2.945
 8118WAT     H224597   1.100   1.636   2.931
 8119WAT      O24598   3.264   4.991   9.043
 8119WAT     H124599   3.324   4.986   8.963
 8119WAT     H224600   3.170   4.974   9.014
 8120WAT      O24601   9.589   0.027   8.467
 8120WAT     H124602   9.532  -0.056   8.465
 8120WAT     H224603   9.540   0.102   8.425
 8121WAT      O24604   3.394   2.132   3.608
 8121WAT     H124605   3.331   2.208   3.590
 8121WAT     H224606   3.397   2.115   3.706
 8122WAT      O24607   1.558   7.431   8.588
 8122WAT     H124608   1.513   7.412   8.501
 8122WAT     H224609   1.589   7.526   8.590
 8123WAT      O24610   2.345   0.054   2.614
 8123WAT     H124611   2.294   0.117   2.672
 8123WAT     H224612   2.281  -0.008   2.568
 8124WAT      O24613   8.549   1.968   5.938
 8124WAT     H124614   8.530   1.957   5.840
 8124WAT     H224615   8.648   1.975   5.952
 8125WAT      O24616   7.911   5.549   7.137
 8125WAT     H124617   7.945   5.637   7.104
 8125WAT     H224618   7.912   5.549   7.237
 8126WAT      O24619   7.216   1.478   5.844
 8126WAT     H124620   7.185   1.561   5.798
 8126WAT     H224621   7.298   1.499   5.897
 8127WAT      O24622   7.541   9.787   8.886
 8127WAT     H124623   7.486   9.854   8.935
 8127WAT     H224624   7.636   9.820   8.879
 8128WAT      O24625   6.564   2.643   5.389
 8128WAT     H124626   6.509   2.618   5.309
 8128WAT     H224627   6.574   2.743   5.392
 8129WAT      O24628   2.835   1.222   4.528
 8129WAT     H124629   2.772   1.280   4.578
 8129WAT     H224630   2.925   1.223   4.573
 8130WAT      O24631   5.277   2.474   1.254
 8130WAT     H124632   5.206   2.406   1.269
 8130WAT     H224633   5.295   2.523   1.340
 8131WAT      O24634   3.411   3.205   4.679
 8131WAT     H124635   3.340   3.247   4.622
 8131WAT     H224636   3.453   3.275   4.736
 8132WAT      O24637   6.816   8.945   3.415
 8132WAT     H124638   6.842   8.911   3.324
 8132WAT     H224639   6.893   8.994   3.455
 8133WAT      O24640   4.746   4.313   1.436
 8133WAT     H124641   4.651   4.343   1.430
 8133WAT     H224642   4.753   4.240   1.505
 8134WAT      O24643   6.710   3.144   1.936
 8134WAT     H124644   6.683   3.199   2.016
 8134WAT     H224645   6.743   3.055   1.966
 8135WAT      O24646   0.667   2.151   3.948
 8135WAT     H124647   0.665   2.053   3.964
 8135WAT     H224648   0.588   2.178   3.894
 8136WAT      O24649   7.539   9.257   0.318
 8136WAT     H124650   7.634   9.269   0.347
 8136WAT     H224651   7.501   9.176   0.362
 8137WAT      O24652   1.216   2.824   8.731
 8137WAT     H124653   1.135   2.770   8.752
 8137WAT     H224654   1.265   2.782   8.655
 8138WAT      O24655   1.375   4.160   7.792
 8138WAT     H124656   1.456   4.200   7.835
 8138WAT     H224657   1.401   4.078   7.741
 8139WAT      O24658   5.568   1.156   2.672
 8139WAT     H124659   5.484   1.211   2.670
 8139WAT     H224660   5.604   1.148   2.579
 8140WAT      O24661   6.773   1.643   5.928
 8140WAT     H124662   6.697   1.707   5.940
 8140WAT     H224663   6.751   1.578   5.855
 8141WAT      O24664   2.496   6.057   1.473
 8141WAT     H124665   2.554   6.009   1.540
 8141WAT     H224666   2.442   5.990   1.423
 8142WAT      O24667   6.437   7.332   6.819
 8142WAT     H124668   6.364   7.304   6.757
 8142WAT     H224669   6.456   7.429   6.807
 8143WAT      O24670   4.144   4.733   3.130
 8143WAT     H124671   4.078   4.663   3.102
 8143WAT     H224672   4.183   4.777   3.049
 8144WAT      O24673   4.428   0.435   1.483
 8144WAT     H124674   4.346   0.416   1.429
 8144WAT     H224675   4.489   0.494   1.430
 8145WAT      O24676   8.463   8.275   4.311
 8145WAT     H124677   8.478   8.298   4.407
 8145WAT     H224678   8.398   8.200   4.304
 8146WAT      O24679   1.295   0.144   4.571
 8146WAT     H124680   1.289   0.224   4.512
 8146WAT     H224681   1.260   0.167   4.662
 8147WAT      O24682   7.158   9.776   6.739
 8147WAT     H124683   7.095   9.757   6.664
 8147WAT     H224684   7.120   9.739   6.824
 8148WAT      O24685   6.481   1.827   4.880
 8148WAT     H124686   6.506   1.776   4.962
 8148WAT     H224687   6.457   1.921   4.904
 8149WAT      O24688   0.704   6.936   0.835
 8149WAT     H124689   0.784   6.994   0.848
 8149WAT     H224690   0.697   6.908   0.739
 8150WAT      O24691   6.827   2.133   6.265
 8150WAT     H124692   6.824   2.087   6.354
 8150WAT     H224693   6.785   2.224   6.273
 8151WAT      O24694   2.631   8.977   3.515
 8151WAT     H124695   2.717   8.940   3.479
 8151WAT     H224696   2.568   8.902   3.532
 8152WAT      O24697   7.827   7.459   5.547
 8152WAT     H124698   7.873   7.462   5.636
 8152WAT     H224699   7.732   7.489   5.558
 8153WAT      O24700   7.450   1.704   0.449
 8153WAT     H124701   7.441   1.643   0.370
 8153WAT     H224702   7.479   1.794   0.419
 8154WAT      O24703   6.510   9.507   7.434
 8154WAT     H124704   6.585   9.504   7.368
 8154WAT     H224705   6.516   9.427   7.494
 8155WAT      O24706   6.328   6.677   1.388
 8155WAT     H124707   6.351   6.768   1.423
 8155WAT     H224708   6.293   6.621   1.462
 8156WAT      O24709   3.901   7.103   4.138
 8156WAT     H124710   3.847   7.019   4.136
 8156WAT     H224711   3.861   7.170   4.075
 8157WAT      O24712   5.169   3.434   9.464
 8157WAT     H124713   5.213   3.375   9.532
 8157WAT     H224714   5.181   3.529   9.490
 8158WAT      O24715   9.132   7.113   1.351
 8158WAT     H124716   9.172   7.197   1.315
 8158WAT     H224717   9.204   7.045   1.364
 8159WAT      O24718   5.671   5.544   4.293
 8159WAT     H124719   5.724   5.460   4.280
 8159WAT     H224720   5.699   5.589   4.378
 8160WAT      O24721   5.665   1.845   4.176
 8160WAT     H124722   5.654   1.932   4.127
 8160WAT     H224723   5.631   1.856   4.270
 8161WAT      O24724   0.543   5.813   4.991
 8161WAT     H124725   0.597   5.889   4.953
 8161WAT     H224726   0.452   5.846   5.016
 8162WAT      O24727   2.265   2.371   2.111
 8162WAT     H124728   2.176   2.350   2.071
 8162WAT     H224729   2.264   2.465   2.145
 8163WAT      O24730   6.565   1.408   4.180
 8163WAT     H124731   6.519   1.322   4.161
 8163WAT     H224732   6.614   1.402   4.267
 8164WAT      O24733   4.576   6.887   8.526
 8164WAT     H124734   4.621   6.803   8.494
 8164WAT     H224735   4.484   6.893   8.488
 8165WAT      O24736   6.023   5.151   7.047
 8165WAT     H124737   6.049   5.164   6.952
 8165WAT     H224738   5.998   5.055   7.062
 8166WAT      O24739   6.882   4.885   6.855
 8166WAT     H124740   6.863   4.983   6.863
 8166WAT     H224741   6.948   4.871   6.781
 8167WAT      O24742   5.313   5.925   9.280
 8167WAT     H124743   5.257   5.963   9.354
 8167WAT     H224744   5.396   5.884   9.318
 8168WAT      O24745   2.826   0.732   8.948
 8168WAT     H124746   2.779   0.711   9.033
 8168WAT     H224747   2.801   0.666   8.878
 8169WAT      O24748   9.499   0.342   2.776
 8169WAT     H124749   9.499   0.366   2.873
 8169WAT     H224750   9.563   0.267   2.760
 8170WAT      O24751   0.717   3.106   5.344
 8170WAT     H124752   0.791   3.150   5.394
 8170WAT     H224753   0.678   3.171   5.278
 8171WAT      O24754   6.811   4.760   9.761
 8171WAT     H124755   6.908   4.744   9.778
 8171WAT     H224756   6.796   4.769   9.663
 8172WAT      O24757   9.555   9.714   4.089
 8172WAT     H124758   9.523   9.619   4.087
 8172WAT     H224759   9.608   9.729   4.173
 8173WAT      O24760   1.759   6.631   4.592
 8173WAT     H124761   1.735   6.567   4.665
 8173WAT     H224762   1.697   6.616   4.514
 8174WAT      O24763   7.439   8.354   9.440
 8174WAT     H124764   7.455   8.276   9.502
 8174WAT     H224765   7.343   8.353   9.410
 8175WAT      O24766   3.541   2.146   4.196
 8175WAT     H124767   3.560   2.132   4.293
 8175WAT     H224768   3.591   2.077   4.143
 8176WAT      O24769   0.964   3.452   8.604
 8176WAT     H124770   0.917   3.534   8.636
 8176WAT     H224771   1.032   3.423   8.672
 8177WAT      O24772   8.066   8.388   5.328
 8177WAT     H124773   7.974   8.350   5.345
 8177WAT     H224774   8.073   8.477   5.373
 8178WAT      O24775   4.299   5.546   6.377
 8178WAT     H124776   4.362   5.526   6.303
 8178WAT     H224777   4.234   5.471   6.387
 8179WAT      O24778   5.721   8.872   9.880
 8179WAT     H124779   5.754   8.817   9.803
 8179WAT     H224780   5.640   8.923   9.852
 8180WAT      O24781   3.191   7.202   7.983
 8180WAT     H124782   3.206   7.258   8.064
 8180WAT     H224783   3.112   7.238   7.932
 8181WAT      O24784   7.408   8.834   6.787
 8181WAT     H124785   7.340   8.906   6.769
 8181WAT     H224786   7.444   8.844   6.880
 8182WAT      O24787   6.649   0.179   8.150
 8182WAT     H124788   6.552   0.165   8.130
 8182WAT     H224789   6.682   0.107   8.210
 8183WAT      O24790   8.795   3.637   3.267
 8183WAT     H124791   8.813   3.566   3.199
 8183WAT     H224792   8.881   3.678   3.296
 8184WAT      O24793   7.913   1.784   4.964
 8184WAT     H124794   7.955   1.756   4.878
 8184WAT     H224795   7.813   1.774   4.958
 8185WAT      O24796   1.219   6.471   8.039
 8185WAT     H124797   1.218   6.378   8.004
 8185WAT     H224798   1.310   6.511   8.028
 8186WAT      O24799   2.132   4.060   0.094
 8186WAT     H124800   2.079   4.128   0.044
 8186WAT     H224801   2.230   4.081   0.086
 8187WAT      O24802   3.656   7.468   0.154
 8187WAT     H124803   3.658   7.489   0.057
 8187WAT     H224804   3.633   7.551   0.206
 8188WAT      O24805   6.226   5.443   7.808
 8188WAT     H124806   6.202   5.510   7.737
 8188WAT     H224807   6.247   5.355   7.765
 8189WAT      O24808   0.465   1.261   2.436
 8189WAT     H124809   0.528   1.185   2.443
 8189WAT     H224810   0.456   1.289   2.340
 8190WAT      O24811   2.645   9.435   0.915
 8190WAT     H124812   2.653   9.424   0.815
 8190WAT     H224813   2.550   9.416   0.942
 8191WAT      O24814   2.308   9.461   5.153
 8191WAT     H124815   2.315   9.512   5.067
 8191WAT     H224816   2.385   9.398   5.161
 8192WAT      O24817   1.411   7.931   9.841
 8192WAT     H124818   1.439   8.025   9.860
 8192WAT     H224819   1.314   7.920   9.865
 8193WAT      O24820   3.312   8.716   4.738
 8193WAT     H124821   3.306   8.716   4.639
 8193WAT     H224822   3.400   8.755   4.766
 8194WAT      O24823   4.206   8.245   0.571
 8194WAT     H124824   4.207   8.267   0.668
 8194WAT     H224825   4.115   8.211   0.546
 8195WAT      O24826   2.108   4.077   4.697
 8195WAT     H124827   2.147   4.013   4.764
 8195WAT     H224828   2.009   4.067   4.696
 8196WAT      O24829   9.496   4.898   7.482
 8196WAT     H124830   9.527   4.811   7.520
 8196WAT     H224831   9.408   4.924   7.523
 8197WAT      O24832   3.624   6.049   9.400
 8197WAT     H124833   3.637   6.116   9.327
 8197WAT     H224834   3.564   6.087   9.470
 8198WAT      O24835   6.993   7.110   0.566
 8198WAT     H124836   6.925   7.077   0.632
 8198WAT     H224837   7.067   7.044   0.559
 8199WAT      O24838   5.804   0.900   1.791
 8199WAT     H124839   5.867   0.843   1.843
 8199WAT     H224840   5.800   0.991   1.832
 8200WAT      O24841   3.097   9.433   4.754
 8200WAT     H124842   3.015   9.445   4.698
 8200WAT     H224843   3.150   9.518   4.754
 8201WAT      O24844   0.632   7.158   3.653
 8201WAT     H124845   0.709   7.097   3.669
 8201WAT     H224846   0.645   7.242   3.705
 8202WAT      O24847   2.280   0.155   3.113
 8202WAT     H124848   2.268   0.239   3.165
 8202WAT     H224849   2.296   0.079   3.176
 8203WAT      O24850   8.133   1.029   3.901
 8203WAT     H124851   8.228   1.062   3.909
 8203WAT     H224852   8.072   1.108   3.894
 8204WAT      O24853   0.588   2.357   8.398
 8204WAT     H124854   0.555   2.311   8.481
 8204WAT     H224855   0.688   2.358   8.398
 8205WAT      O24856   1.671   7.941   1.282
 8205WAT     H124857   1.722   7.875   1.227
 8205WAT     H224858   1.574   7.919   1.278
 8206WAT      O24859   1.990   2.967   8.187
 8206WAT     H124860   1.923   2.894   8.200
 8206WAT     H224861   2.009   3.010   8.276
 8207WAT      O24862   8.389   3.414   4.947
 8207WAT     H124863   8.378   3.357   4.866
 8207WAT     H224864   8.346   3.370   5.026
 8208WAT      O24865   8.890   6.972   5.740
 8208WAT     H124866   8.936   7.060   5.726
 8208WAT     H224867   8.935   6.901   5.686
 8209WAT      O24868   7.049   8.268   7.333
 8209WAT     H124869   6.981   8.328   7.290
 8209WAT     H224870   7.132   8.320   7.351
 8210WAT      O24871   5.236   9.181   0.157
 8210WAT     H124872   5.160   9.241   0.132
 8210WAT     H224873   5.200   9.093   0.187
 8211WAT      O24874   4.854   0.735   0.839
 8211WAT     H124875   4.812   0.703   0.923
 8211WAT     H224876   4.899   0.659   0.793
 8212WAT      O24877   1.280   9.381   2.907
 8212WAT     H124878   1.226   9.455   2.868
 8212WAT     H224879   1.368   9.375   2.860
 8213WAT      O24880   6.588   9.086   7.250
 8213WAT     H124881   6.555   9.151   7.182
 8213WAT     H224882   6.522   9.011   7.260
 8214WAT      O24883   0.991   0.771   6.906
 8214WAT     H124884   1.068   0.723   6.865
 8214WAT     H224885   0.917   0.779   6.839
 8215WAT      O24886   3.240   3.281   0.474
 8215WAT     H124887   3.234   3.238   0.383
 8215WAT     H224888   3.148   3.290   0.512
 8216WAT      O24889   5.889   3.441   0.391
 8216WAT     H124890   5.879   3.447   0.491
 8216WAT     H224891   5.819   3.381   0.354
 8217WAT      O24892   7.410   9.802   6.853
 8217WAT     H124893   7.438   9.896   6.836
 8217WAT     H224894   7.324   9.784   6.804
 8218WAT      O24895   0.155   9.194   6.904
 8218WAT     H124896   0.207   9.229   6.982
 8218WAT     H224897   0.217   9.149   6.840
 8219WAT      O24898   4.608   8.768   2.407
 8219WAT     H124899   4.592   8.818   2.492
 8219WAT     H224900   4.593   8.828   2.329
 8220WAT      O24901   7.111   9.557   8.846
 8220WAT     H124902   7.098   9.465   8.884
 8220WAT     H224903   7.207   9.568   8.821
 8221WAT      O24904   3.290   2.221   2.267
 8221WAT     H124905   3.253   2.148   2.209
 8221WAT     H224906   3.220   2.251   2.332
 8222WAT      O24907   6.820   9.714   1.755
 8222WAT     H124908   6.858   9.638   1.809
 8222WAT     H224909   6.773   9.678   1.675
 8223WAT      O24910   6.916   1.087   4.519
 8223WAT     H124911   6.959   1.140   4.593
 8223WAT     H224912   6.976   1.087   4.440
 8224WAT      O24913   7.718   3.714   1.752
 8224WAT     H124914   7.727   3.615   1.759
 8224WAT     H224915   7.621   3.739   1.763
 8225WAT      O24916   2.701   8.622   5.078
 8225WAT     H124917   2.650   8.704   5.104
 8225WAT     H224918   2.797   8.646   5.065
 8226WAT      O24919   8.365   8.162   6.080
 8226WAT     H124920   8.311   8.155   5.996
 8226WAT     H224921   8.351   8.080   6.135
 8227WAT      O24922   6.668   5.074   8.959
 8227WAT     H124923   6.730   5.127   8.901
 8227WAT     H224924   6.721   5.025   9.028
 8228WAT      O24925   2.141   1.493   3.699
 8228WAT     H124926   2.116   1.571   3.757
 8228WAT     H224927   2.134   1.408   3.752
 8229WAT      O24928   3.569   0.623   6.544
 8229WAT     H124929   3.626   0.705   6.548
 8229WAT     H224930   3.542   0.606   6.449
 8230WAT      O24931   2.008   3.096   4.934
 8230WAT     H124932   1.940   3.149   4.884
 8230WAT     H224933   2.021   3.008   4.890
 8231WAT      O24934   8.451   1.649   0.839
 8231WAT     H124935   8.395   1.729   0.819
 8231WAT     H224936   8.532   1.649   0.780
 8232WAT      O24937   2.009   3.385   3.438
 8232WAT     H124938   1.965   3.343   3.359
 8232WAT     H224939   2.054   3.470   3.410
 8233WAT      O24940   3.085   2.140   1.575
 8233WAT     H124941   3.155   2.078   1.539
 8233WAT     H224942   3.112   2.172   1.666
 8234WAT      O24943   4.397   8.090   5.034
 8234WAT     H124944   4.327   8.019   5.030
 8234WAT     H224945   4.378   8.160   4.964
 8235WAT      O24946   3.766   1.319   3.870
 8235WAT     H124947   3.763   1.343   3.773
 8235WAT     H224948   3.768   1.220   3.880
 8236WAT      O24949   1.452   2.128   0.961
 8236WAT     H124950   1.380   2.193   0.985
 8236WAT     H224951   1.541   2.175   0.962
 8237WAT      O24952   3.548   7.499   2.807
 8237WAT     H124953   3.533   7.408   2.846
 8237WAT     H224954   3.580   7.490   2.713
 8238WAT      O24955   3.578   3.468   0.088
 8238WAT     H124956   3.637   3.396   0.125
 8238WAT     H224957   3.491   3.427   0.059
 8239WAT      O24958   7.674   5.413   0.022
 8239WAT     H124959   7.597   5.380  -0.033
 8239WAT     H224960   7.744   5.452  -0.039
 8240WAT      O24961   5.265   0.017   5.251
 8240WAT     H124962   5.265  -0.003   5.153
 8240WAT     H224963   5.170   0.028   5.283
 8241WAT      O24964   4.132   4.490   1.070
 8241WAT     H124965   4.165   4.529   1.156
 8241WAT     H224966   4.091   4.562   1.014
 8242WAT      O24967   4.942   1.937   8.600
 8242WAT     H124968   4.889   1.931   8.515
 8242WAT     H224969   5.025   1.882   8.592
 8243WAT      O24970   2.989   7.989   1.476
 8243WAT     H124971   3.058   7.920   1.501
 8243WAT     H224972   2.992   8.005   1.378
 8244WAT      O24973   7.911   6.029   0.683
 8244WAT     H124974   7.913   6.121   0.722
 8244WAT     H224975   7.928   6.033   0.585
 8245WAT      O24976   7.878   0.220   4.397
 8245WAT     H124977   7.876   0.245   4.300
 8245WAT     H224978   7.799   0.262   4.443
 8246WAT      O24979   8.793   0.601   1.807
 8246WAT     H124980   8.831   0.614   1.899
 8246WAT     H224981   8.776   0.504   1.791
 8247WAT      O24982   6.767   4.291   0.884
 8247WAT     H124983   6.829   4.282   0.962
 8247WAT     H224984   6.814   4.337   0.809
 8248WAT      O24985   0.446   5.034   2.196
 8248WAT     H124986   0.421   4.966   2.264
 8248WAT     H224987   0.374   5.104   2.191
 8249WAT      O24988   0.000   6.106   3.825
 8249WAT     H124989   0.070   6.035   3.819
 8249WAT     H224990  -0.060   6.101   3.746
 8250WAT      O24991   0.997   1.478   5.810
 8250WAT     H124992   1.006   1.576   5.790
 8250WAT     H224993   0.901   1.457   5.829
 8251WAT      O24994   6.052   9.576   5.211
 8251WAT     H124995   6.099   9.534   5.134
 8251WAT     H224996   6.077   9.673   5.216
 8252WAT      O24997   6.254   4.434   0.451
 8252WAT     H124998   6.184   4.472   0.512
 8252WAT     H224999   6.231   4.456   0.357
 8253WAT      O25000   5.970   6.271   2.834
 8253WAT     H125001   5.902   6.199   2.851
 8253WAT     H225002   5.954   6.347   2.897
 8254WAT      O25003   4.458   4.213   4.017
 8254WAT     H125004   4.402   4.281   3.969
 8254WAT     H225005   4.475   4.136   3.955
 8255WAT      O25006   3.194   1.884   5.643
 8255WAT     H125007   3.247   1.810   5.685
 8255WAT     H225008   3.179   1.864   5.546
 8256WAT      O25009   7.782   5.699   0.115
 8256WAT     H125010   7.699   5.747   0.144
 8256WAT     H225011   7.766   5.601   0.116
 8257WAT      O25012   2.027   2.588   2.273
 8257WAT     H125013   1.999   2.521   2.205
 8257WAT     H225014   2.117   2.624   2.251
 8258WAT      O25015   7.387   1.320   2.567
 8258WAT     H125016   7.323   1.367   2.506
 8258WAT     H225017   7.341   1.241   2.609
 8259WAT      O25018   5.743   0.950   2.206
 8259WAT     H125019   5.720   0.856   2.180
 8259WAT     H225020   5.837   0.953   2.240
 8260WAT      O25021   0.824   3.396   0.775
 8260WAT     H125022   0.775   3.347   0.703
 8260WAT     H225023   0.887   3.462   0.734
 8261WAT      O25024   2.490   8.465   6.391
 8261WAT     H125025   2.448   8.410   6.318
 8261WAT     H225026   2.441   8.449   6.477
 8262WAT      O25027   2.971   1.067   3.631
 8262WAT     H125028   3.054   1.012   3.623
 8262WAT     H225029   2.921   1.065   3.544
 8263WAT      O25030   0.713   6.012   7.845
 8263WAT     H125031   0.759   6.086   7.797
 8263WAT     H225032   0.615   6.015   7.826
 8264WAT      O25033   5.694   9.692   6.826
 8264WAT     H125034   5.733   9.684   6.917
 8264WAT     H225035   5.598   9.720   6.833
 8265WAT      O25036   7.372   4.134   4.218
 8265WAT     H125037   7.329   4.127   4.128
 8265WAT     H225038   7.312   4.093   4.287
 8266WAT      O25039   3.178   2.033   2.118
 8266WAT     H125040   3.213   2.017   2.026
 8266WAT     H225041   3.088   1.989   2.128
 8267WAT      O25042   8.565   0.955   6.457
 8267WAT     H125043   8.469   0.944   6.484
 8267WAT     H225044   8.595   0.874   6.407
 8268WAT      O25045   6.251   9.423   6.689
 8268WAT     H125046   6.185   9.350   6.702
 8268WAT     H225047   6.203   9.508   6.667
 8269WAT      O25048   0.615   2.920   2.328
 8269WAT     H125049   0.701   2.927   2.379
 8269WAT     H225050   0.592   2.823   2.316
 8270WAT      O25051   0.407   5.547   3.569
 8270WAT     H125052   0.352   5.613   3.518
 8270WAT     H225053   0.351   5.505   3.640
 8271WAT      O25054   7.196   8.083   9.749
 8271WAT     H125055   7.227   8.097   9.843
 8271WAT     H225056   7.097   8.073   9.747
 8272WAT      O25057   6.312   9.499   6.406
 8272WAT     H125058   6.398   9.465   6.368
 8272WAT     H225059   6.309   9.479   6.504
 8273WAT      O25060   7.792   9.480   7.773
 8273WAT     H125061   7.834   9.564   7.740
 8273WAT     H225062   7.829   9.402   7.723
 8274WAT      O25063   1.003   3.829   0.535
 8274WAT     H125064   0.906   3.807   0.538
 8274WAT     H225065   1.028   3.882   0.616
 8275WAT      O25066   0.340   7.339   3.632
 8275WAT     H125067   0.269   7.316   3.698
 8275WAT     H225068   0.429   7.344   3.678
 8276WAT      O25069   0.588   7.492   0.662
 8276WAT     H125070   0.512   7.556   0.673
 8276WAT     H225071   0.568   7.407   0.710
 8277WAT      O25072   0.477   0.581   6.405
 8277WAT     H125073   0.420   0.618   6.479
 8277WAT     H225074   0.568   0.620   6.410
 8278WAT      O25075   5.598   0.316   0.289
 8278WAT     H125076   5.663   0.333   0.363
 8278WAT     H225077   5.524   0.383   0.294
 8279WAT      O25078   1.138   0.390   2.227
 8279WAT     H125079   1.064   0.350   2.281
 8279WAT     H225080   1.194   0.316   2.189
 8280WAT      O25081   2.182   0.090   2.842
 8280WAT     H125082   2.193   0.128   2.934
 8280WAT     H225083   2.143  -0.002   2.848
 8281WAT      O25084   5.575   0.629   5.630
 8281WAT     H125085   5.521   0.661   5.551
 8281WAT     H225086   5.652   0.690   5.644
 8282WAT      O25087   6.593   6.356   7.598
 8282WAT     H125088   6.589   6.335   7.696
 8282WAT     H225089   6.551   6.282   7.546
 8283WAT      O25090   3.144   6.309   7.677
 8283WAT     H125091   3.193   6.297   7.590
 8283WAT     H225092   3.185   6.385   7.728
 8284WAT      O25093   4.578   7.518   2.789
 8284WAT     H125094   4.592   7.425   2.757
 8284WAT     H225095   4.493   7.555   2.750
 8285WAT      O25096   3.700   6.580   5.485
 8285WAT     H125097   3.714   6.534   5.573
 8285WAT     H225098   3.746   6.668   5.485
 8286WAT      O25099   4.724   3.005   4.263
 8286WAT     H125100   4.717   3.036   4.168
 8286WAT     H225101   4.696   2.909   4.268
 8287WAT      O25102   2.855   5.518   8.684
 8287WAT     H125103   2.923   5.445   8.694
 8287WAT     H225104   2.802   5.502   8.601
 8288WAT      O25105   9.753   5.321   0.389
 8288WAT     H125106   9.836   5.275   0.420
 8288WAT     H225107   9.766   5.420   0.393
 8289WAT      O25108   7.644   9.313   6.794
 8289WAT     H125109   7.607   9.248   6.861
 8289WAT     H225110   7.730   9.277   6.757
 8290WAT      O25111   5.077   1.307   3.138
 8290WAT     H125112   5.128   1.332   3.220
 8290WAT     H225113   5.065   1.208   3.135
 8291WAT      O25114   9.715   2.222   4.423
 8291WAT     H125115   9.752   2.167   4.347
 8291WAT     H225116   9.625   2.257   4.398
 8292WAT      O25117   4.298   4.683   8.234
 8292WAT     H125118   4.383   4.665   8.185
 8292WAT     H225119   4.224   4.697   8.168
 8293WAT      O25120   0.589   8.241   9.872
 8293WAT     H125121   0.599   8.155   9.821
 8293WAT     H225122   0.645   8.237   9.955
 8294WAT      O25123   7.244   2.897   2.740
 8294WAT     H125124   7.233   2.800   2.722
 8294WAT     H225125   7.321   2.933   2.688
 8295WAT      O25126   8.372   1.140   3.954
 8295WAT     H125127   8.442   1.134   3.884
 8295WAT     H225128   8.398   1.208   4.023
 8296WAT      O25129   4.898   7.420   0.956
 8296WAT     H125130   4.911   7.405   0.858
 8296WAT     H225131   4.827   7.489   0.971
 8297WAT      O25132   5.497   7.231   4.011
 8297WAT     H125133   5.428   7.303   4.004
 8297WAT     H225134   5.588   7.273   4.018
 8298WAT      O25135   3.403   7.648   4.764
 8298WAT     H125136   3.409   7.625   4.667
 8298WAT     H225137   3.473   7.599   4.815
 8299WAT      O25138   8.542   4.247   9.715
 8299WAT     H125139   8.443   4.257   9.706
 8299WAT     H225140   8.575   4.306   9.788
 8300WAT      O25141   3.458   3.357   0.667
 8300WAT     H125142   3.549   3.393   0.649
 8300WAT     H225143   3.401   3.367   0.586
 8301WAT      O25144   1.894   0.588   7.192
 8301WAT     H125145   1.896   0.511   7.256
 8301WAT     H225146   1.943   0.666   7.233
 8302WAT      O25147   3.930   9.069   9.886
 8302WAT     H125148   3.989   9.028   9.816
 8302WAT     H225149   3.857   9.121   9.841
 8303WAT      O25150   0.961   9.756   4.445
 8303WAT     H125151   1.055   9.755   4.477
 8303WAT     H225152   0.901   9.719   4.517
 8304WAT      O25153   3.693   9.141   3.925
 8304WAT     H125154   3.711   9.091   3.840
 8304WAT     H225155   3.613   9.101   3.970
 8305WAT      O25156   2.356   3.634   4.922
 8305WAT     H125157   2.336   3.540   4.951
 8305WAT     H225158   2.398   3.683   4.998
 8306WAT      O25159   0.744   0.726   8.524
 8306WAT     H125160   0.707   0.714   8.432
 8306WAT     H225161   0.707   0.810   8.564
 8307WAT      O25162   6.170   5.590   1.506
 8307WAT     H125163   6.225   5.616   1.427
 8307WAT     H225164   6.074   5.585   1.479
 8308WAT      O25165   8.832   5.233   2.018
 8308WAT     H125166   8.902   5.217   1.948
 8308WAT     H225167   8.876   5.236   2.108
 8309WAT      O25168   9.765   8.373   7.796
 8309WAT     H125169   9.834   8.397   7.728
 8309WAT     H225170   9.694   8.317   7.753
 8310WAT      O25171   6.616   3.604   8.001
 8310WAT     H125172   6.663   3.607   7.913
 8310WAT     H225173   6.681   3.630   8.073
 8311WAT      O25174   4.185   0.610   0.701
 8311WAT     H125175   4.088   0.622   0.721
 8311WAT     H225176   4.231   0.573   0.782
 8312WAT      O25177   4.130   2.326   7.799
 8312WAT     H125178   4.126   2.250   7.734
 8312WAT     H225179   4.039   2.366   7.810
 8313WAT      O25180   4.961   8.430   0.888
 8313WAT     H125181   4.949   8.374   0.806
 8313WAT     H225182   5.048   8.478   0.883
 8314WAT      O25183   6.013   3.174   2.561
 8314WAT     H125184   5.920   3.151   2.532
 8314WAT     H225185   6.011   3.205   2.656
 8315WAT      O25186   3.130   1.313   9.370
 8315WAT     H125187   3.135   1.413   9.366
 8315WAT     H225188   3.037   1.285   9.394
 8316WAT      O25189   6.285   1.424   2.337
 8316WAT     H125190   6.368   1.405   2.285
 8316WAT     H225191   6.229   1.490   2.288
 8317WAT      O25192   8.673   2.006   6.366
 8317WAT     H125193   8.599   1.996   6.299
 8317WAT     H225194   8.659   1.942   6.441
 8318WAT      O25195   4.553   6.546   9.733
 8318WAT     H125196   4.576   6.639   9.760
 8318WAT     H225197   4.480   6.549   9.664
 8319WAT      O25198   2.035   0.373   7.697
 8319WAT     H125199   2.130   0.384   7.724
 8319WAT     H225200   1.987   0.317   7.765
 8320WAT      O25201   8.145   2.905   6.137
 8320WAT     H125202   8.185   2.992   6.107
 8320WAT     H225203   8.063   2.886   6.084
 8321WAT      O25204   7.577   9.673   2.209
 8321WAT     H125205   7.491   9.623   2.206
 8321WAT     H225206   7.653   9.609   2.225
 8322WAT      O25207   7.055   2.022   9.600
 8322WAT     H125208   7.022   1.960   9.529
 8322WAT     H225209   7.025   1.989   9.690
 8323WAT      O25210   5.536   0.098   4.701
 8323WAT     H125211   5.505   0.052   4.617
 8323WAT     H225212   5.463   0.097   4.768
 8324WAT      O25213   5.856   5.044   5.255
 8324WAT     H125214   5.836   4.949   5.276
 8324WAT     H225215   5.773   5.099   5.266
 8325WAT      O25216   4.212   3.759   1.128
 8325WAT     H125217   4.274   3.774   1.205
 8325WAT     H225218   4.258   3.784   1.043
 8326WAT      O25219   3.037   7.074   1.920
 8326WAT     H125220   3.132   7.058   1.897
 8326WAT     H225221   2.988   6.987   1.926
 8327WAT      O25222   5.877   1.743   4.833
 8327WAT     H125223   5.971   1.766   4.809
 8327WAT     H225224   5.876   1.701   4.924
 8328WAT      O25225   3.837   0.490   6.498
 8328WAT     H125226   3.807   0.399   6.527
 8328WAT     H225227   3.778   0.522   6.424
 8329WAT      O25228   3.680   7.382   1.237
 8329WAT     H125229   3.701   7.363   1.142
 8329WAT     H225230   3.653   7.478   1.247
 8330WAT      O25231   3.677   1.407   7.468
 8330WAT     H125232   3.770   1.434   7.492
 8330WAT     H225233   3.647   1.332   7.527
 8331WAT      O25234   6.541   9.836   3.048
 8331WAT     H125235   6.632   9.799   3.029
 8331WAT     H225236   6.526   9.918   2.993
 8332WAT      O25237   7.159   2.706   8.423
 8332WAT     H125238   7.193   2.628   8.371
 8332WAT     H225239   7.236   2.748   8.473
 8333WAT      O25240   7.476   1.535   1.956
 8333WAT     H125241   7.531   1.615   1.932
 8333WAT     H225242   7.380   1.554   1.938
 8334WAT      O25243   6.525   7.925   2.492
 8334WAT     H125244   6.546   7.889   2.583
 8334WAT     H225245   6.429   7.950   2.488
 8335WAT      O25246   0.180   0.176   1.723
 8335WAT     H125247   0.120   0.250   1.754
 8335WAT     H225248   0.271   0.212   1.705
 8336WAT      O25249   0.644   2.893   5.722
 8336WAT     H125250   0.669   2.987   5.701
 8336WAT     H225251   0.725   2.842   5.751
 8337WAT      O25252   2.749   8.587   7.099
 8337WAT     H125253   2.842   8.590   7.136
 8337WAT     H225254   2.710   8.497   7.113
 8338WAT      O25255   5.147   0.452   8.591
 8338WAT     H125256   5.137   0.546   8.625
 8338WAT     H225257   5.242   0.437   8.562
 8339WAT      O25258   7.887   4.039   7.023
 8339WAT     H125259   7.818   4.053   6.953
 8339WAT     H225260   7.900   4.123   7.075
 8340WAT      O25261   3.937   8.563   7.514
 8340WAT     H125262   3.926   8.550   7.613
 8340WAT     H225263   4.034   8.556   7.490
 8341WAT      O25264   1.912   8.104   7.751
 8341WAT     H125265   1.970   8.161   7.692
 8341WAT     H225266   1.819   8.103   7.715
 8342WAT      O25267   4.076   6.893   1.060
 8342WAT     H125268   4.134   6.838   1.120
 8342WAT     H225269   3.986   6.905   1.102
 8343WAT      O25270   6.686   4.464   0.243
 8343WAT     H125271   6.748   4.539   0.268
 8343WAT     H225272   6.706   4.433   0.150
 8344WAT      O25273   8.344   4.139   3.489
 8344WAT     H125274   8.247   4.140   3.511
 8344WAT     H225275   8.392   4.077   3.550
 8345WAT      O25276   3.900   8.680   4.939
 8345WAT     H125277   3.981   8.647   4.987
 8345WAT     H225278   3.884   8.624   4.857
 8346WAT      O25279   3.181   8.237   3.014
 8346WAT     H125280   3.243   8.175   3.062
 8346WAT     H225281   3.098   8.249   3.068
 8347WAT      O25282   2.014   6.119   1.720
 8347WAT     H125283   2.110   6.093   1.734
 8347WAT     H225284   1.963   6.108   1.805
 8348WAT      O25285   5.534   6.460   4.113
 8348WAT     H125286   5.465   6.398   4.076
 8348WAT     H225287   5.503   6.494   4.202
 8349WAT      O25288   8.693   9.405   0.511
 8349WAT     H125289   8.755   9.413   0.588
 8349WAT     H225290   8.679   9.309   0.488
 8350WAT      O25291   4.690   7.070   4.590
 8350WAT     H125292   4.628   7.054   4.667
 8350WAT     H225293   4.637   7.093   4.508
 8351WAT      O25294   5.944   1.786   3.935
 8351WAT     H125295   5.901   1.873   3.911
 8351WAT     H225296   5.980   1.743   3.852
 8352WAT      O25297   1.375   8.798   0.139
 8352WAT     H125298   1.341   8.856   0.213
 8352WAT     H225299   1.298   8.751   0.096
 8353WAT      O25300   0.434   1.710   2.851
 8353WAT     H125301   0.527   1.725   2.886
 8353WAT     H225302   0.401   1.795   2.809
 8354WAT      O25303   8.907   2.988   3.193
 8354WAT     H125304   8.846   2.911   3.210
 8354WAT     H225305   8.855   3.074   3.199
 8355WAT      O25306   3.214   8.248   3.740
 8355WAT     H125307   3.227   8.188   3.661
 8355WAT     H225308   3.141   8.313   3.721
 8356WAT      O25309   6.865   2.128   3.675
 8356WAT     H125310   6.879   2.125   3.575
 8356WAT     H225311   6.786   2.186   3.696
 8357WAT      O25312   0.042   1.766   3.203
 8357WAT     H125313  -0.029   1.738   3.138
 8357WAT     H225314   0.051   1.696   3.274
 8358WAT      O25315   4.909   2.175   0.762
 8358WAT     H125316   4.958   2.193   0.848
 8358WAT     H225317   4.811   2.167   0.781
 8359WAT      O25318   7.470   0.597   8.320
 8359WAT     H125319   7.456   0.696   8.324
 8359WAT     H225320   7.387   0.550   8.350
 8360WAT      O25321   8.335   9.620   6.504
 8360WAT     H125322   8.368   9.676   6.580
 8360WAT     H225323   8.268   9.553   6.538
 8361WAT      O25324   3.471   2.563   1.752
 8361WAT     H125325   3.516   2.600   1.833
 8361WAT     H225326   3.532   2.498   1.706
 8362WAT      O25327   2.995   5.066   6.978
 8362WAT     H125328   3.032   5.157   6.959
 8362WAT     H225329   3.036   5.000   6.916
 8363WAT      O25330   0.338   9.165   1.096
 8363WAT     H125331   0.303   9.255   1.070
 8363WAT     H225332   0.438   9.165   1.088
 8364WAT      O25333   4.289   3.364   1.440
 8364WAT     H125334   4.207   3.421   1.432
 8364WAT     H225335   4.263   3.268   1.432
 8365WAT      O25336   3.585   0.945   3.147
 8365WAT     H125337   3.682   0.925   3.149
 8365WAT     H225338   3.552   0.949   3.053
 8366WAT      O25339   0.600   9.811   1.694
 8366WAT     H125340   0.637   9.733   1.644
 8366WAT     H225341   0.673   9.875   1.715
 8367WAT      O25342   4.468   4.031   3.785
 8367WAT     H125343   4.551   3.976   3.793
 8367WAT     H225344   4.477   4.093   3.707
 8368WAT      O25345   6.501   3.273   0.165
 8368WAT     H125346   6.533   3.267   0.260
 8368WAT     H225347   6.443   3.194   0.144
 8369WAT      O25348   0.482   6.942   5.033
 8369WAT     H125349   0.487   6.919   4.936
 8369WAT     H225350   0.427   6.873   5.080
 8370WAT      O25351   8.914   9.547   6.451
 8370WAT     H125352   8.999   9.590   6.422
 8370WAT     H225353   8.852   9.538   6.372
 8371WAT      O25354   5.434   8.856   0.206
 8371WAT     H125355   5.527   8.822   0.196
 8371WAT     H225356   5.426   8.946   0.163
 8372WAT      O25357   5.846   7.803   7.377
 8372WAT     H125358   5.855   7.706   7.397
 8372WAT     H225359   5.933   7.838   7.342
 8373WAT      O25360   8.570   1.754   3.911
 8373WAT     H125361   8.543   1.821   3.842
 8373WAT     H225362   8.499   1.684   3.920
 8374WAT      O25363   5.932   7.018   9.575
 8374WAT     H125364   6.011   6.957   9.576
 8374WAT     H225365   5.898   7.028   9.482
 8375WAT      O25366   3.350   7.140   0.130
 8375WAT     H125367   3.314   7.100   0.214
 8375WAT     H225368   3.306   7.229   0.114
 8376WAT      O25369   2.970   3.326   1.993
 8376WAT     H125370   2.980   3.301   1.897
 8376WAT     H225371   3.005   3.252   2.051
 8377WAT      O25372   9.040   4.844   8.250
 8377WAT     H125373   8.968   4.906   8.280
 8377WAT     H225374   9.052   4.851   8.151
 8378WAT      O25375   7.906   3.956   8.363
 8378WAT     H125376   7.971   4.024   8.329
 8378WAT     H225377   7.820   3.963   8.312
 8379WAT      O25378   1.181   5.456   0.170
 8379WAT     H125379   1.142   5.366   0.187
 8379WAT     H225380   1.140   5.496   0.088
 8380WAT      O25381   1.140   4.371   8.596
 8380WAT     H125382   1.224   4.374   8.651
 8380WAT     H225383   1.093   4.459   8.603
 8381WAT      O25384   3.496   3.212   5.964
 8381WAT     H125385   3.577   3.202   5.906
 8381WAT     H225386   3.517   3.179   6.056
 8382WAT      O25387   2.838   0.351   9.850
 8382WAT     H125388   2.891   0.435   9.858
 8382WAT     H225389   2.848   0.314   9.758
 8383WAT      O25390   6.015   1.561   2.441
 8383WAT     H125391   5.949   1.588   2.511
 8383WAT     H225392   6.079   1.495   2.480
 8384WAT      O25393   6.886   8.816   5.085
 8384WAT     H125394   6.936   8.797   5.169
 8384WAT     H225395   6.928   8.893   5.038
 8385WAT      O25396   0.064   8.707   4.026
 8385WAT     H125397  -0.026   8.695   4.068
 8385WAT     H225398   0.086   8.628   3.970
 8386WAT      O25399   7.174   4.124   8.241
 8386WAT     H125400   7.114   4.127   8.320
 8386WAT     H225401   7.165   4.209   8.188
 8387WAT      O25402   8.153   1.050   5.578
 8387WAT     H125403   8.120   1.070   5.486
 8387WAT     H225404   8.252   1.033   5.575
 8388WAT      O25405   6.958   5.915   5.811
 8388WAT     H125406   6.996   5.866   5.732
 8388WAT     H225407   6.948   5.852   5.888
 8389WAT      O25408   6.983   6.570   9.118
 8389WAT     H125409   7.017   6.593   9.027
 8389WAT     H225410   7.059   6.570   9.183
 8390WAT      O25411   0.785   2.189   2.473
 8390WAT     H125412   0.855   2.250   2.509
 8390WAT     H225413   0.729   2.153   2.548
 8391WAT      O25414   6.487   6.973   8.562
 8391WAT     H125415   6.393   7.002   8.579
 8391WAT     H225416   6.526   6.934   8.645
 8392WAT      O25417   2.815   1.072   4.022
 8392WAT     H125418   2.793   1.126   3.941
 8392WAT     H225419   2.901   1.103   4.061
 8393WAT      O25420   8.037   6.400   6.056
 8393WAT     H125421   7.980   6.399   6.139
 8393WAT     H225422   7.981   6.428   5.978
 8394WAT      O25423   9.319   3.081   2.731
 8394WAT     H125424   9.344   3.046   2.821
 8394WAT     H225425   9.386   3.150   2.702
 8395WAT      O25426   8.936   3.945   2.910
 8395WAT     H125427   8.946   3.995   2.824
 8395WAT     H225428   8.916   4.009   2.984
 8396WAT      O25429   7.611   6.053   1.739
 8396WAT     H125430   7.551   5.995   1.685
 8396WAT     H225431   7.586   6.149   1.726
 8397WAT      O25432   2.762   4.419   1.797
 8397WAT     H125433   2.837   4.479   1.772
 8397WAT     H225434   2.686   4.473   1.834
 8398WAT      O25435   0.677   7.014   5.760
 8398WAT     H125436   0.674   7.024   5.661
 8398WAT     H225437   0.679   7.105   5.802
 8399WAT      O25438   7.101   9.609   8.519
 8399WAT     H125439   7.007   9.639   8.532
 8399WAT     H225440   7.162   9.664   8.576
 8400WAT      O25441   3.401   6.744   6.170
 8400WAT     H125442   3.431   6.656   6.208
 8400WAT     H225443   3.308   6.735   6.134
 8401WAT      O25444   3.189   6.418   8.676
 8401WAT     H125445   3.243   6.490   8.718
 8401WAT     H225446   3.148   6.361   8.748
 8402WAT      O25447   1.973   3.297   8.501
 8402WAT     H125448   1.883   3.335   8.483
 8402WAT     H225449   1.994   3.304   8.599
 8403WAT      O25450   2.869   4.622   2.953
 8403WAT     H125451   2.780   4.590   2.920
 8403WAT     H225452   2.933   4.626   2.876
 8404WAT      O25453   5.026   0.368   2.272
 8404WAT     H125454   4.983   0.335   2.188
 8404WAT     H225455   5.122   0.341   2.274
 8405WAT      O25456   8.096   3.002   2.689
 8405WAT     H125457   8.187   3.041   2.681
 8405WAT     H225458   8.084   2.962   2.780
 8406WAT      O25459   7.211   1.853   8.783
 8406WAT     H125460   7.226   1.754   8.786
 8406WAT     H225461   7.114   1.872   8.800
 8407WAT      O25462   6.818   5.222   8.787
 8407WAT     H125463   6.913   5.243   8.765
 8407WAT     H225464   6.758   5.256   8.715
 8408WAT      O25465   2.350   3.271   5.642
 8408WAT     H125466   2.441   3.264   5.600
 8408WAT     H225467   2.354   3.238   5.736
 8409WAT      O25468   8.199   5.170   9.060
 8409WAT     H125469   8.221   5.267   9.073
 8409WAT     H225470   8.170   5.155   8.966
 8410WAT      O25471   3.038   7.878   0.063
 8410WAT     H125472   2.955   7.875   0.008
 8410WAT     H225473   3.021   7.837   0.153
 8411WAT      O25474   5.855   9.218   0.858
 8411WAT     H125475   5.931   9.279   0.834
 8411WAT     H225476   5.786   9.268   0.909
 8412WAT      O25477   1.553   1.866   1.047
 8412WAT     H125478   1.501   1.790   1.009
 8412WAT     H225479   1.509   1.952   1.023
 8413WAT      O25480   2.919   8.627   8.042
 8413WAT     H125481   3.001   8.629   8.100
 8413WAT     H225482   2.943   8.662   7.951
 8414WAT      O25483   2.455   9.695   2.755
 8414WAT     H125484   2.420   9.765   2.693
 8414WAT     H225485   2.419   9.606   2.728
 8415WAT      O25486   4.261   3.874   8.089
 8415WAT     H125487   4.259   3.821   8.004
 8415WAT     H225488   4.314   3.825   8.158
 8416WAT      O25489   2.421   6.086   5.366
 8416WAT     H125490   2.507   6.078   5.315
 8416WAT     H225491   2.430   6.037   5.453
 8417WAT      O25492   2.975   0.335   4.343
 8417WAT     H125493   2.983   0.415   4.284
 8417WAT     H225494   2.879   0.319   4.366
 8418WAT      O25495   8.929   4.746   4.708
 8418WAT     H125496   9.025   4.774   4.717
 8418WAT     H225497   8.923   4.647   4.699
 8419WAT      O25498   1.544   8.084   9.547
 8419WAT     H125499   1.504   8.003   9.591
 8419WAT     H225500   1.546   8.160   9.613
 8420WAT      O25501   1.466   8.809   3.928
 8420WAT     H125502   1.561   8.796   3.899
 8420WAT     H225503   1.404   8.774   3.858
 8421WAT      O25504   6.912   8.503   2.502
 8421WAT     H125505   6.819   8.514   2.536
 8421WAT     H225506   6.917   8.423   2.442
 8422WAT      O25507   8.624   3.600   4.220
 8422WAT     H125508   8.559   3.675   4.213
 8422WAT     H225509   8.641   3.580   4.316
 8423WAT      O25510   6.736   8.887   6.705
 8423WAT     H125511   6.825   8.903   6.662
 8423WAT     H225512   6.738   8.800   6.755
 8424WAT      O25513   4.417   8.240   1.413
 8424WAT     H125514   4.442   8.313   1.476
 8424WAT     H225515   4.393   8.158   1.464
 8425WAT      O25516   8.588   2.922   0.495
 8425WAT     H125517   8.577   2.878   0.584
 8425WAT     H225518   8.501   2.917   0.445
 8426WAT      O25519   9.586   4.936   0.166
 8426WAT     H125520   9.612   4.856   0.219
 8426WAT     H225521   9.537   4.908   0.083
 8427WAT      O25522   8.611   9.763   0.159
 8427WAT     H125523   8.695   9.779   0.107
 8427WAT     H225524   8.544   9.716   0.102
 8428WAT      O25525   9.401   8.724   0.045
 8428WAT     H125526   9.436   8.798  -0.013
 8428WAT     H225527   9.409   8.750   0.141
 8429WAT      O25528   8.926   0.436   7.634
 8429WAT     H125529   8.863   0.431   7.711
 8429WAT     H225530   8.954   0.531   7.620
 8430WAT      O25531   2.776   0.883   7.718
 8430WAT     H125532   2.776   0.891   7.818
 8430WAT     H225533   2.870   0.884   7.684
 8431WAT      O25534   4.163   9.759   3.039
 8431WAT     H125535   4.249   9.810   3.043
 8431WAT     H225536   4.137   9.747   2.943
 8432WAT      O25537   1.233   5.502   9.783
 8432WAT     H125538   1.179   5.577   9.744
 8432WAT     H225539   1.199   5.415   9.748
 8433WAT      O25540   2.867   0.166   5.437
 8433WAT     H125541   2.943   0.163   5.502
 8433WAT     H225542   2.866   0.256   5.392
 8434WAT      O25543   5.642   1.276   8.615
 8434WAT     H125544   5.683   1.360   8.648
 8434WAT     H225545   5.651   1.204   8.684
 8435WAT      O25546   1.469   7.317   3.016
 8435WAT     H125547   1.468   7.354   3.109
 8435WAT     H225548   1.379   7.330   2.975
 8436WAT      O25549   9.882   3.391   6.624
 8436WAT     H125550   9.933   3.457   6.570
 8436WAT     H225551   9.793   3.429   6.650
 8437WAT      O25552   4.491   2.423   6.026
 8437WAT     H125553   4.462   2.506   6.073
 8437WAT     H225554   4.496   2.347   6.091
 8438WAT      O25555   9.452   5.298   5.390
 8438WAT     H125556   9.480   5.269   5.298
 8438WAT     H225557   9.391   5.377   5.383
 8439WAT      O25558   8.141   5.375   1.235
 8439WAT     H125559   8.073   5.325   1.289
 8439WAT     H225560   8.197   5.431   1.297
 8440WAT      O25561   9.665   1.487   3.194
 8440WAT     H125562   9.741   1.442   3.240
 8440WAT     H225563   9.594   1.419   3.172
 8441WAT      O25564   3.672   4.314   1.228
 8441WAT     H125565   3.647   4.225   1.266
 8441WAT     H225566   3.735   4.361   1.291
 8442WAT      O25567   5.123   7.467   8.505
 8442WAT     H125568   5.138   7.566   8.510
 8442WAT     H225569   5.038   7.449   8.454
 8443WAT      O25570   2.930   8.718   5.165
 8443WAT     H125571   2.887   8.731   5.254
 8443WAT     H225572   3.023   8.685   5.177
 8444WAT      O25573   7.865   7.814   4.501
 8444WAT     H125574   7.883   7.834   4.405
 8444WAT     H225575   7.928   7.742   4.532
 8445WAT      O25576   5.194   5.493   4.853
 8445WAT     H125577   5.212   5.495   4.951
 8445WAT     H225578   5.249   5.563   4.807
 8446WAT      O25579   6.113   0.665   0.046
 8446WAT     H125580   6.021   0.626   0.042
 8446WAT     H225581   6.129   0.721  -0.035
 8447WAT      O25582   3.220   8.199   0.522
 8447WAT     H125583   3.153   8.129   0.497
 8447WAT     H225584   3.311   8.170   0.495
 8448WAT      O25585   1.267   3.825   2.953
 8448WAT     H125586   1.209   3.773   3.016
 8448WAT     H225587   1.214   3.848   2.871
 8449WAT      O25588   1.028   6.768   7.479
 8449WAT     H125589   0.954   6.786   7.544
 8449WAT     H225590   1.040   6.669   7.470
 8450WAT      O25591   0.854   4.974   7.881
 8450WAT     H125592   0.809   4.900   7.832
 8450WAT     H225593   0.945   4.989   7.842
 8451WAT      O25594   8.416   2.537   0.839
 8451WAT     H125595   8.422   2.574   0.932
 8451WAT     H225596   8.462   2.448   0.837
 8452WAT      O25597   2.052   4.238   5.317
 8452WAT     H125598   2.084   4.258   5.410
 8452WAT     H225599   2.064   4.140   5.299
 8453WAT      O25600   3.852   6.573   9.210
 8453WAT     H125601   3.786   6.638   9.247
 8453WAT     H225602   3.809   6.519   9.138
 8454WAT      O25603   2.863   4.201   3.707
 8454WAT     H125604   2.803   4.278   3.688
 8454WAT     H225605   2.893   4.160   3.621
 8455WAT      O25606   4.717   8.087   6.741
 8455WAT     H125607   4.661   8.007   6.722
 8455WAT     H225608   4.811   8.059   6.761
 8456WAT      O25609   5.170   0.093   6.477
 8456WAT     H125610   5.171   0.181   6.525
 8456WAT     H225611   5.076   0.070   6.453
 8457WAT      O25612   5.176   8.609   3.044
 8457WAT     H125613   5.147   8.541   2.977
 8457WAT     H225614   5.257   8.575   3.093
 8458WAT      O25615   5.737   1.514   6.613
 8458WAT     H125616   5.650   1.478   6.648
 8458WAT     H225617   5.730   1.527   6.514
 8459WAT      O25618   7.477   5.355   1.974
 8459WAT     H125619   7.408   5.285   1.958
 8459WAT     H225620   7.567   5.314   1.974
 8460WAT      O25621   1.552   0.113   7.149
 8460WAT     H125622   1.526   0.201   7.109
 8460WAT     H225623   1.645   0.119   7.185
 8461WAT      O25624   0.784   9.488   5.207
 8461WAT     H125625   0.694   9.518   5.240
 8461WAT     H225626   0.781   9.477   5.108
 8462WAT      O25627   3.712   5.412   6.734
 8462WAT     H125628   3.656   5.460   6.666
 8462WAT     H225629   3.716   5.315   6.711
 8463WAT      O25630   7.776   4.530   2.999
 8463WAT     H125631   7.776   4.629   3.003
 8463WAT     H225632   7.710   4.493   3.064
 8464WAT      O25633   7.270   0.372   6.681
 8464WAT     H125634   7.310   0.459   6.711
 8464WAT     H225635   7.343   0.304   6.672
 8465WAT      O25636   6.192   7.680   6.901
 8465WAT     H125637   6.126   7.702   6.974
 8465WAT     H225638   6.154   7.607   6.844
 8466WAT      O25639   0.790   2.719   7.642
 8466WAT     H125640   0.882   2.737   7.605
 8466WAT     H225641   0.785   2.624   7.674
 8467WAT      O25642   4.202   3.394   4.016
 8467WAT     H125643   4.156   3.323   3.963
 8467WAT     H225644   4.151   3.411   4.100
 8468WAT      O25645   7.567   6.595   6.307
 8468WAT     H125646   7.591   6.673   6.366
 8468WAT     H225647   7.515   6.628   6.229
 8469WAT      O25648   1.552   9.353   8.873
 8469WAT     H125649   1.546   9.278   8.808
 8469WAT     H225650   1.561   9.440   8.823
 8470WAT      O25651   1.059   6.366   9.863
 8470WAT     H125652   1.031   6.425   9.787
 8470WAT     H225653   0.987   6.299   9.880
 8471WAT      O25654   1.925   6.489   4.257
 8471WAT     H125655   1.907   6.490   4.159
 8471WAT     H225656   1.948   6.581   4.287
 8472WAT      O25657   0.764   0.653   9.838
 8472WAT     H125658   0.681   0.705   9.860
 8472WAT     H225659   0.745   0.555   9.849
 8473WAT      O25660   0.430   6.827   8.820
 8473WAT     H125661   0.471   6.764   8.753
 8473WAT     H225662   0.471   6.917   8.810
 8474WAT      O25663   1.748   5.024   5.414
 8474WAT     H125664   1.718   5.038   5.508
 8474WAT     H225665   1.721   5.103   5.358
 8475WAT      O25666   0.916   9.326   3.403
 8475WAT     H125667   0.824   9.324   3.442
 8475WAT     H225668   0.972   9.255   3.446
 8476WAT      O25669   9.397   1.663   7.055
 8476WAT     H125670   9.417   1.748   7.105
 8476WAT     H225671   9.314   1.674   7.001
 8477WAT      O25672   6.064   2.495   8.836
 8477WAT     H125673   5.965   2.504   8.848
 8477WAT     H225674   6.103   2.583   8.810
 8478WAT      O25675   8.274   3.731   1.397
 8478WAT     H125676   8.204   3.735   1.325
 8478WAT     H225677   8.229   3.710   1.484
 8479WAT      O25678   1.020   4.994   5.012
 8479WAT     H125679   1.097   5.056   5.025
 8479WAT     H225680   1.023   4.921   5.081
 8480WAT      O25681   0.143   7.980   9.145
 8480WAT     H125682   0.091   7.896   9.130
 8480WAT     H225683   0.162   7.990   9.243
 8481WAT      O25684   1.914   2.450   8.602
 8481WAT     H125685   1.995   2.391   8.606
 8481WAT     H225686   1.853   2.429   8.677
 8482WAT      O25687   3.473   7.205   4.310
 8482WAT     H125688   3.518   7.118   4.290
 8482WAT     H225689   3.452   7.210   4.408
 8483WAT      O25690   8.887   5.536   7.461
 8483WAT     H125691   8.815   5.604   7.447
 8483WAT     H225692   8.918   5.540   7.556
 8484WAT      O25693   4.475   2.538   8.226
 8484WAT     H125694   4.456   2.606   8.298
 8484WAT     H225695   4.569   2.548   8.195
 8485WAT      O25696   5.226   2.456   7.745
 8485WAT     H125697   5.179   2.455   7.657
 8485WAT     H225698   5.158   2.447   7.818
 8486WAT      O25699   5.791   5.304   4.287
 8486WAT     H125700   5.884   5.341   4.286
 8486WAT     H225701   5.792   5.212   4.326
 8487WAT      O25702   2.575   8.505   0.007
 8487WAT     H125703   2.556   8.490   0.104
 8487WAT     H225704   2.639   8.435  -0.026
 8488WAT      O25705   7.030   5.739   9.326
 8488WAT     H125706   6.947   5.786   9.295
 8488WAT     H225707   7.076   5.698   9.248
 8489WAT      O25708   2.023   0.472   9.335
 8489WAT     H125709   1.989   0.413   9.409
 8489WAT     H225710   1.946   0.508   9.283
 8490WAT      O25711   9.720   2.697   5.481
 8490WAT     H125712   9.700   2.762   5.407
 8490WAT     H225713   9.818   2.697   5.500
 8491WAT      O25714   9.186   7.408   7.414
 8491WAT     H125715   9.277   7.408   7.373
 8491WAT     H225716   9.189   7.457   7.501
 8492WAT      O25717   8.730   8.494   2.935
 8492WAT     H125718   8.692   8.584   2.913
 8492WAT     H225719   8.716   8.433   2.857
 8493WAT      O25720   3.177   3.654   0.362
 8493WAT     H125721   3.103   3.588   0.376
 8493WAT     H225722   3.146   3.726   0.300
 8494WAT      O25723   1.190   2.568   8.234
 8494WAT     H125724   1.153   2.660   8.227
 8494WAT     H225725   1.231   2.541   8.147
 8495WAT      O25726   2.731   6.797   6.630
 8495WAT     H125727   2.739   6.876   6.691
 8495WAT     H225728   2.816   6.745   6.631
 8496WAT      O25729   5.369   5.403   8.609
 8496WAT     H125730   5.435   5.357   8.549
 8496WAT     H225731   5.325   5.478   8.559
 8497WAT      O25732   0.800   1.649   0.926
 8497WAT     H125733   0.744   1.633   1.007
 8497WAT     H225734   0.896   1.661   0.954
 8498WAT      O25735   9.304   3.501   0.992
 8498WAT     H125736   9.247   3.435   0.943
 8498WAT     H225737   9.289   3.592   0.953
 8499WAT      O25738   2.038   2.637   3.882
 8499WAT     H125739   2.064   2.575   3.808
 8499WAT     H225740   1.953   2.684   3.857
 8500WAT      O25741   2.756   1.640   6.167
 8500WAT     H125742   2.742   1.554   6.117
 8500WAT     H225743   2.671   1.693   6.167
 8501WAT      O25744   6.413   7.364   3.966
 8501WAT     H125745   6.324   7.361   4.009
 8501WAT     H225746   6.418   7.292   3.896
 8502WAT      O25747   3.906   3.847   0.094
 8502WAT     H125748   3.838   3.835   0.166
 8502WAT     H225749   3.887   3.930   0.043
 8503WAT      O25750   3.342   7.807   6.998
 8503WAT     H125751   3.436   7.775   6.996
 8503WAT     H225752   3.307   7.815   6.904
 8504WAT      O25753   4.661   1.036   8.162
 8504WAT     H125754   4.754   1.073   8.163
 8504WAT     H225755   4.601   1.098   8.111
 8505WAT      O25756   9.148   2.788   8.471
 8505WAT     H125757   9.126   2.832   8.384
 8505WAT     H225758   9.130   2.690   8.464
 8506WAT      O25759   7.703   0.446   3.580
 8506WAT     H125760   7.698   0.502   3.663
 8506WAT     H225761   7.611   0.418   3.552
 8507WAT      O25762   1.517   9.418   2.680
 8507WAT     H125763   1.469   9.506   2.685
 8507WAT     H225764   1.573   9.415   2.597
 8508WAT      O25765   3.342   9.422   1.692
 8508WAT     H125766   3.429   9.402   1.647
 8508WAT     H225767   3.305   9.508   1.657
 8509WAT      O25768   5.215   3.806   8.390
 8509WAT     H125769   5.140   3.872   8.391
 8509WAT     H225770   5.193   3.730   8.451
 8510WAT      O25771   2.631   0.675   9.122
 8510WAT     H125772   2.537   0.707   9.113
 8510WAT     H225773   2.639   0.616   9.203
 8511WAT      O25774   0.635   5.814   7.562
 8511WAT     H125775   0.607   5.726   7.599
 8511WAT     H225776   0.562   5.881   7.577
 8512WAT      O25777   3.681   0.839   1.734
 8512WAT     H125778   3.645   0.748   1.715
 8512WAT     H225779   3.609   0.895   1.776
 8513WAT      O25780   5.801   7.616   3.051
 8513WAT     H125781   5.886   7.668   3.066
 8513WAT     H225782   5.723   7.678   3.056
 8514WAT      O25783   0.311   7.929   5.989
 8514WAT     H125784   0.262   7.978   6.062
 8514WAT     H225785   0.390   7.982   5.960
 8515WAT      O25786   5.277   3.109   1.976
 8515WAT     H125787   5.363   3.142   2.015
 8515WAT     H225788   5.238   3.039   2.035
 8516WAT      O25789   3.767   2.103   6.272
 8516WAT     H125790   3.794   2.072   6.181
 8516WAT     H225791   3.845   2.147   6.316
 8517WAT      O25792   9.243   2.555   0.116
 8517WAT     H125793   9.311   2.508   0.060
 8517WAT     H225794   9.273   2.553   0.212
 8518WAT      O25795   6.608   8.532   7.518
 8518WAT     H125796   6.518   8.574   7.522
 8518WAT     H225797   6.670   8.579   7.581
 8519WAT      O25798   4.045   4.709   6.163
 8519WAT     H125799   4.038   4.807   6.182
 8519WAT     H225800   3.957   4.666   6.179
 8520WAT      O25801   2.593   7.872   1.538
 8520WAT     H125802   2.508   7.894   1.585
 8520WAT     H225803   2.671   7.907   1.591
 8521WAT      O25804   5.199   6.442   0.762
 8521WAT     H125805   5.154   6.475   0.679
 8521WAT     H225806   5.261   6.367   0.739
 8522WAT      O25807   6.270   5.811   0.565
 8522WAT     H125808   6.200   5.777   0.628
 8522WAT     H225809   6.296   5.904   0.590
 8523WAT      O25810   6.804   1.650   8.198
 8523WAT     H125811   6.807   1.578   8.268
 8523WAT     H225812   6.792   1.739   8.243
 8524WAT      O25813   3.367   9.190   6.428
 8524WAT     H125814   3.357   9.287   6.449
 8524WAT     H225815   3.282   9.156   6.387
 8525WAT      O25816   0.181   9.050   9.461
 8525WAT     H125817   0.248   9.050   9.387
 8525WAT     H225818   0.196   8.971   9.520
 8526WAT      O25819   1.918   8.454   4.296
 8526WAT     H125820   1.819   8.446   4.308
 8526WAT     H225821   1.964   8.427   4.381
 8527WAT      O25822   8.420   4.217   3.008
 8527WAT     H125823   8.362   4.193   3.085
 8527WAT     H225824   8.495   4.276   3.039
 8528WAT      O25825   3.414   5.781   5.118
 8528WAT     H125826   3.514   5.787   5.114
 8528WAT     H225827   3.381   5.728   5.039
 8529WAT      O25828   0.664   8.645   9.265
 8529WAT     H125829   0.685   8.590   9.184
 8529WAT     H225830   0.682   8.741   9.246
 8530WAT      O25831   2.396   1.558   8.815
 8530WAT     H125832   2.367   1.492   8.884
 8530WAT     H225833   2.466   1.516   8.757
 8531WAT      O25834   5.015   6.899   5.264
 8531WAT     H125835   5.025   6.857   5.174
 8531WAT     H225836   5.094   6.956   5.284
 8532WAT      O25837   5.604   3.381   0.612
 8532WAT     H125838   5.695   3.397   0.650
 8532WAT     H225839   5.562   3.303   0.657
 8533WAT      O25840   7.814   8.373   8.162
 8533WAT     H125841   7.857   8.415   8.242
 8533WAT     H225842   7.744   8.435   8.126
 8534WAT      O25843   7.113   2.631   7.453
 8534WAT     H125844   7.027   2.677   7.432
 8534WAT     H225845   7.113   2.602   7.549
 8535WAT      O25846   7.141   8.943   0.803
 8535WAT     H125847   7.095   9.017   0.754
 8535WAT     H225848   7.110   8.941   0.898
 8536WAT      O25849   8.536   3.085   7.617
 8536WAT     H125850   8.636   3.082   7.618
 8536WAT     H225851   8.499   2.995   7.643
 8537WAT      O25852   5.909   7.916   9.339
 8537WAT     H125853   5.905   7.824   9.299
 8537WAT     H225854   5.989   7.922   9.399
 8538WAT      O25855   2.403   6.522   7.208
 8538WAT     H125856   2.419   6.603   7.152
 8538WAT     H225857   2.343   6.546   7.285
 8539WAT      O25858   3.572   0.635   5.134
 8539WAT     H125859   3.647   0.584   5.091
 8539WAT     H225860   3.510   0.570   5.179
 8540WAT      O25861   4.909   3.365   9.421
 8540WAT     H125862   5.007   3.381   9.431
 8540WAT     H225863   4.890   3.337   9.327
 8541WAT      O25864   9.471   5.324   5.000
 8541WAT     H125865   9.510   5.248   4.948
 8541WAT     H225866   9.384   5.295   5.041
 8542WAT      O25867   7.341   8.365   5.732
 8542WAT     H125868   7.429   8.381   5.778
 8542WAT     H225869   7.316   8.445   5.678
 8543WAT      O25870   2.116   7.765   3.166
 8543WAT     H125871   2.194   7.794   3.221
 8543WAT     H225872   2.038   7.746   3.225
 8544WAT      O25873   0.844   9.381   3.157
 8544WAT     H125874   0.882   9.362   3.247
 8544WAT     H225875   0.749   9.410   3.166
 8545WAT      O25876   2.931   8.493   4.915
 8545WAT     H125877   2.956   8.426   4.845
 8545WAT     H225878   2.834   8.516   4.907
 8546WAT      O25879   6.596   7.483   4.889
 8546WAT     H125880   6.653   7.418   4.839
 8546WAT     H225881   6.500   7.458   4.879
 8547WAT      O25882   6.373   1.550   1.701
 8547WAT     H125883   6.429   1.546   1.618
 8547WAT     H225884   6.346   1.457   1.727
 8548WAT      O25885   0.086   6.119   7.318
 8548WAT     H125886   0.179   6.116   7.281
 8548WAT     H225887   0.042   6.204   7.289
 8549WAT      O25888   4.933   3.602   4.187
 8549WAT     H125889   4.857   3.646   4.140
 8549WAT     H225890   4.901   3.565   4.275
 8550WAT      O25891   0.881   4.014   1.688
 8550WAT     H125892   0.974   4.040   1.660
 8550WAT     H225893   0.862   4.051   1.778
 8551WAT      O25894   6.153   3.626   9.633
 8551WAT     H125895   6.090   3.643   9.557
 8551WAT     H225896   6.143   3.698   9.701
 8552WAT      O25897   5.180   8.314   8.777
 8552WAT     H125898   5.100   8.313   8.717
 8552WAT     H225899   5.258   8.274   8.729
 8553WAT      O25900   6.605   7.259   3.352
 8553WAT     H125901   6.511   7.231   3.371
 8553WAT     H225902   6.656   7.180   3.317
 8554WAT      O25903   5.183   2.132   0.343
 8554WAT     H125904   5.279   2.139   0.367
 8554WAT     H225905   5.131   2.098   0.422
 8555WAT      O25906   2.285   3.006   1.546
 8555WAT     H125907   2.202   3.059   1.525
 8555WAT     H225908   2.352   3.019   1.474
 8556WAT      O25909   3.321   3.581   7.071
 8556WAT     H125910   3.314   3.610   7.166
 8556WAT     H225911   3.269   3.643   7.013
 8557WAT      O25912   5.915   5.817   6.480
 8557WAT     H125913   5.920   5.830   6.579
 8557WAT     H225914   5.902   5.906   6.436
 8558WAT      O25915   6.256   0.168   4.318
 8558WAT     H125916   6.239   0.151   4.220
 8558WAT     H225917   6.282   0.264   4.330
 8559WAT      O25918   9.415   3.251   6.033
 8559WAT     H125919   9.473   3.230   5.955
 8559WAT     H225920   9.346   3.319   6.007
 8560WAT      O25921   5.860   1.680   4.580
 8560WAT     H125922   5.935   1.727   4.532
 8560WAT     H225923   5.873   1.689   4.678
 8561WAT      O25924   4.269   1.991   9.350
 8561WAT     H125925   4.304   1.903   9.318
 8561WAT     H225926   4.192   2.019   9.292
 8562WAT      O25927   8.851   5.835   3.644
 8562WAT     H125928   8.839   5.875   3.553
 8562WAT     H225929   8.884   5.904   3.707
 8563WAT      O25930   4.631   6.421   1.085
 8563WAT     H125931   4.688   6.481   1.141
 8563WAT     H225932   4.682   6.339   1.060
 8564WAT      O25933   8.006   0.152   9.355
 8564WAT     H125934   8.074   0.160   9.428
 8564WAT     H225935   8.050   0.171   9.267
 8565WAT      O25936   1.873   4.572   2.265
 8565WAT     H125937   1.881   4.564   2.165
 8565WAT     H225938   1.793   4.627   2.288
 8566WAT      O25939   3.413   8.106   1.997
 8566WAT     H125940   3.467   8.059   1.928
 8566WAT     H225941   3.472   8.131   2.074
 8567WAT      O25942   8.196   6.948   0.240
 8567WAT     H125943   8.207   7.047   0.229
 8567WAT     H225944   8.243   6.901   0.165
 8568WAT      O25945   0.585   2.673   9.420
 8568WAT     H125946   0.540   2.731   9.488
 8568WAT     H225947   0.667   2.632   9.460
 8569WAT      O25948   1.967   7.814   7.705
 8569WAT     H125949   1.940   7.775   7.793
 8569WAT     H225950   1.998   7.908   7.718
 8570WAT      O25951   9.588   2.393   5.364
 8570WAT     H125952   9.519   2.382   5.292
 8570WAT     H225953   9.548   2.445   5.439
 8571WAT      O25954   3.686   4.820   5.548
 8571WAT     H125955   3.755   4.748   5.560
 8571WAT     H225956   3.688   4.853   5.454
 8572WAT      O25957   1.921   1.939   2.930
 8572WAT     H125958   1.930   2.036   2.952
 8572WAT     H225959   2.011   1.898   2.922
 8573WAT      O25960   1.355   5.853   6.294
 8573WAT     H125961   1.438   5.808   6.328
 8573WAT     H225962   1.343   5.940   6.341
 8574WAT      O25963   3.491   5.253   6.112
 8574WAT     H125964   3.494   5.178   6.046
 8574WAT     H225965   3.569   5.314   6.098
 8575WAT      O25966   6.312   2.987   1.947
 8575WAT     H125967   6.235   2.953   1.894
 8575WAT     H225968   6.280   3.018   2.037
 8576WAT      O25969   0.595   0.019   5.219
 8576WAT     H125970   0.630   0.013   5.125
 8576WAT     H225971   0.577  -0.073   5.253
 8577WAT      O25972   2.654   5.885   4.179
 8577WAT     H125973   2.556   5.901   4.189
 8577WAT     H225974   2.690   5.845   4.263
 8578WAT      O25975   5.072   6.681   3.725
 8578WAT     H125976   5.114   6.666   3.815
 8578WAT     H225977   5.140   6.667   3.654
 8579WAT      O25978   8.123   3.108   1.571
 8579WAT     H125979   8.044   3.054   1.598
 8579WAT     H225980   8.167   3.146   1.653
 8580WAT      O25981   4.256   3.277   6.856
 8580WAT     H125982   4.305   3.347   6.908
 8580WAT     H225983   4.272   3.292   6.758
 8581WAT      O25984   6.097   4.923   9.395
 8581WAT     H125985   6.102   5.021   9.414
 8581WAT     H225986   6.048   4.878   9.470
 8582WAT      O25987   5.846   7.083   9.822
 8582WAT     H125988   5.751   7.113   9.824
 8582WAT     H225989   5.877   7.079   9.727
 8583WAT      O25990   1.142   2.169   0.146
 8583WAT     H125991   1.213   2.099   0.148
 8583WAT     H225992   1.064   2.136   0.091
 8584WAT      O25993   5.889   2.807   9.303
 8584WAT     H125994   5.809   2.841   9.353
 8584WAT     H225995   5.900   2.709   9.321
 8585WAT      O25996   4.657   3.469   2.200
 8585WAT     H125997   4.657   3.409   2.121
 8585WAT     H225998   4.663   3.564   2.170
 8586WAT      O25999   2.341   2.673   9.746
 8586WAT     H126000   2.275   2.733   9.700
 8586WAT     H226001   2.345   2.585   9.698
 8587WAT      O26002   6.080   0.524   9.308
 8587WAT     H126003   6.123   0.435   9.296
 8587WAT     H226004   6.123   0.590   9.246
 8588WAT      O26005   8.421   9.170   0.761
 8588WAT     H126006   8.501   9.155   0.820
 8588WAT     H226007   8.425   9.108   0.683
 8589WAT      O26008   1.803   0.884   9.306
 8589WAT     H126009   1.898   0.911   9.319
 8589WAT     H226010   1.751   0.960   9.267
 8590WAT      O26011   0.759   8.025   3.357
 8590WAT     H126012   0.798   8.048   3.268
 8590WAT     H226013   0.668   7.985   3.345
 8591WAT      O26014   0.674   5.020   0.291
 8591WAT     H126015   0.643   5.041   0.198
 8591WAT     H226016   0.748   5.082   0.316
 8592WAT      O26017   6.755   7.954   0.580
 8592WAT     H126018   6.664   7.942   0.619
 8592WAT     H226019   6.808   8.016   0.638
 8593WAT      O26020   7.013   1.502   1.541
 8593WAT     H126021   7.094   1.560   1.529
 8593WAT     H226022   6.931   1.559   1.541
 8594WAT      O26023   7.544   3.110   8.721
 8594WAT     H126024   7.453   3.069   8.712
 8594WAT     H226025   7.538   3.209   8.709
 8595WAT      O26026   2.605   9.536   9.370
 8595WAT     H126027   2.557   9.623   9.361
 8595WAT     H226028   2.648   9.512   9.283
 8596WAT      O26029   2.201   5.888   3.110
 8596WAT     H126030   2.141   5.856   3.183
 8596WAT     H226031   2.167   5.974   3.073
 8597WAT      O26032   6.716   2.023   8.067
 8597WAT     H126033   6.757   2.025   8.158
 8597WAT     H226034   6.616   2.024   8.075
 8598WAT      O26035   1.700   1.399   8.759
 8598WAT     H126036   1.790   1.427   8.724
 8598WAT     H226037   1.631   1.464   8.728
 8599WAT      O26038   2.491   8.950   9.066
 8599WAT     H126039   2.405   8.914   9.102
 8599WAT     H226040   2.514   9.034   9.114
 8600WAT      O26041   3.543   3.026   7.070
 8600WAT     H126042   3.513   3.037   7.164
 8600WAT     H226043   3.629   3.075   7.056
 8601WAT      O26044   6.639   8.434   6.121
 8601WAT     H126045   6.597   8.523   6.105
 8601WAT     H226046   6.717   8.445   6.183
 8602WAT      O26047   1.522   7.834   2.140
 8602WAT     H126048   1.591   7.769   2.173
 8602WAT     H226049   1.561   7.891   2.068
 8603WAT      O26050   6.503   4.123   3.139
 8603WAT     H126051   6.492   4.108   3.237
 8603WAT     H226052   6.601   4.122   3.116
 8604WAT      O26053   5.207   6.396   9.618
 8604WAT     H126054   5.261   6.429   9.540
 8604WAT     H226055   5.252   6.316   9.657
 8605WAT      O26056   0.099   4.744   9.425
 8605WAT     H126057   0.003   4.722   9.439
 8605WAT     H226058   0.155   4.671   9.465
 8606WAT      O26059   2.872   8.966   5.100
 8606WAT     H126060   2.896   8.871   5.121
 8606WAT     H226061   2.946   9.026   5.131
 8607WAT      O26062   9.124   6.086   3.722
 8607WAT     H126063   9.040   6.062   3.770
 8607WAT     H226064   9.118   6.180   3.689
 8608WAT      O26065   4.051   4.235   0.180
 8608WAT     H126066   3.956   4.204   0.187
 8608WAT     H226067   4.062   4.321   0.230
 8609WAT      O26068   7.351   7.603   7.515
 8609WAT     H126069   7.429   7.663   7.497
 8609WAT     H226070   7.274   7.657   7.548
 8610WAT      O26071   7.406   1.996   9.188
 8610WAT     H126072   7.486   2.044   9.224
 8610WAT     H226073   7.403   2.005   9.089
 8611WAT      O26074   5.903   2.556   2.700
 8611WAT     H126075   5.859   2.494   2.765
 8611WAT     H226076   5.903   2.515   2.609
 8612WAT      O26077   1.864   3.405   7.093
 8612WAT     H126078   1.830   3.448   7.176
 8612WAT     H226079   1.905   3.475   7.033
 8613WAT      O26080   9.575   8.899   7.229
 8613WAT     H126081   9.620   8.989   7.233
 8613WAT     H226082   9.483   8.906   7.267
 8614WAT      O26083   3.739   0.697   0.390
 8614WAT     H126084   3.645   0.708   0.356
 8614WAT     H226085   3.752   0.757   0.469
 8615WAT      O26086   3.858   3.085   5.999
 8615WAT     H126087   3.838   2.989   5.981
 8615WAT     H226088   3.840   3.139   5.917
 8616WAT      O26089   7.352   3.143   5.152
 8616WAT     H126090   7.255   3.136   5.176
 8616WAT     H226091   7.390   3.228   5.189
 8617WAT      O26092   6.717   9.303   1.089
 8617WAT     H126093   6.731   9.263   0.999
 8617WAT     H226094   6.659   9.384   1.080
 8618WAT      O26095   9.151   2.092   5.918
 8618WAT     H126096   9.224   2.043   5.966
 8618WAT     H226097   9.186   2.177   5.880
 8619WAT      O26098   0.083   4.657   0.387
 8619WAT     H126099   0.126   4.680   0.300
 8619WAT     H226100   0.066   4.559   0.392
 8620WAT      O26101   7.779   0.088   8.897
 8620WAT     H126102   7.780   0.180   8.937
 8620WAT     H226103   7.829   0.025   8.957
 8621WAT      O26104   0.010   6.962   0.910
 8621WAT     H126105   0.008   7.024   0.989
 8621WAT     H226106  -0.013   6.869   0.939
 8622WAT      O26107   2.255   0.097   5.547
 8622WAT     H126108   2.345   0.093   5.506
 8622WAT     H226109   2.205   0.176   5.512
 8623WAT      O26110   9.767   7.310   6.982
 8623WAT     H126111   9.834   7.384   6.988
 8623WAT     H226112   9.778   7.261   6.896
 8624WAT      O26113   0.117   6.607   7.467
 8624WAT     H126114   0.202   6.632   7.514
 8624WAT     H226115   0.097   6.510   7.484
 8625WAT      O26116   2.805   0.975   1.691
 8625WAT     H126117   2.786   1.056   1.746
 8625WAT     H226118   2.725   0.955   1.633
 8626WAT      O26119   4.889   8.464   2.996
 8626WAT     H126120   4.867   8.510   2.910
 8626WAT     H226121   4.917   8.531   3.064
 8627WAT      O26122   9.495   7.735   0.206
 8627WAT     H126123   9.470   7.812   0.147
 8627WAT     H226124   9.414   7.678   0.222
 8628WAT      O26125   2.446   1.467   1.651
 8628WAT     H126126   2.427   1.556   1.692
 8628WAT     H226127   2.417   1.395   1.714
 8629WAT      O26128   5.914   5.294   1.770
 8629WAT     H126129   5.880   5.385   1.793
 8629WAT     H226130   5.848   5.224   1.799
 8630WAT      O26131   0.585   7.184   1.479
 8630WAT     H126132   0.621   7.207   1.570
 8630WAT     H226133   0.561   7.268   1.430
 8631WAT      O26134   3.271   9.550   5.175
 8631WAT     H126135   3.311   9.508   5.094
 8631WAT     H226136   3.202   9.489   5.214
 8632WAT      O26137   2.783   9.338   8.728
 8632WAT     H126138   2.860   9.352   8.666
 8632WAT     H226139   2.807   9.369   8.820
 8633WAT      O26140   6.257   2.277   2.596
 8633WAT     H126141   6.305   2.359   2.628
 8633WAT     H226142   6.185   2.253   2.661
 8634WAT      O26143   2.090   8.893   7.145
 8634WAT     H126144   2.175   8.926   7.105
 8634WAT     H226145   2.018   8.891   7.075
 8635WAT      O26146   4.059   0.138   9.622
 8635WAT     H126147   4.117   0.209   9.581
 8635WAT     H226148   3.965   0.148   9.588
 8636WAT      O26149   0.686   8.383   0.368
 8636WAT     H126150   0.621   8.450   0.333
 8636WAT     H226151   0.765   8.377   0.306
 8637WAT      O26152   8.393   5.024   4.839
 8637WAT     H126153   8.330   5.022   4.917
 8637WAT     H226154   8.486   5.040   4.872
 8638WAT      O26155   8.834   8.675   0.553
 8638WAT     H126156   8.903   8.646   0.619
 8638WAT     H226157   8.759   8.719   0.601
 8639WAT      O26158   0.972   5.271   0.850
 8639WAT     H126159   0.977   5.370   0.839
 8639WAT     H226160   1.006   5.245   0.940
 8640WAT      O26161   8.705   1.545   1.108
 8640WAT     H126162   8.786   1.550   1.166
 8640WAT     H226163   8.676   1.637   1.082
 8641WAT      O26164   4.985   2.364   0.597
 8641WAT     H126165   5.085   2.367   0.602
 8641WAT     H226166   4.950   2.303   0.668
 8642WAT      O26167   5.589   5.671   2.617
 8642WAT     H126168   5.672   5.703   2.570
 8642WAT     H226169   5.552   5.744   2.674
 8643WAT      O26170   0.002   2.668   7.453
 8643WAT     H126171   0.100   2.663   7.469
 8643WAT     H226172  -0.022   2.759   7.419
 8644WAT      O26173   0.679   3.508   2.816
 8644WAT     H126174   0.715   3.556   2.896
 8644WAT     H226175   0.741   3.434   2.790
 8645WAT      O26176   0.620   8.239   9.521
 8645WAT     H126177   0.571   8.313   9.566
 8645WAT     H226178   0.670   8.275   9.442
 8646WAT      O26179   1.527   4.994   1.035
 8646WAT     H126180   1.616   5.036   1.018
 8646WAT     H226181   1.528   4.899   1.006
 8647WAT      O26182   5.006   3.134   7.847
 8647WAT     H126183   5.015   3.216   7.903
 8647WAT     H226184   4.943   3.070   7.890
 8648WAT      O26185   4.789   0.309   0.415
 8648WAT     H126186   4.818   0.256   0.495
 8648WAT     H226187   4.780   0.405   0.440
 8649WAT      O26188   4.475   0.165   6.733
 8649WAT     H126189   4.534   0.235   6.693
 8649WAT     H226190   4.428   0.203   6.812
 8650WAT      O26191   6.903   6.764   4.322
 8650WAT     H126192   6.991   6.812   4.327
 8650WAT     H226193   6.866   6.753   4.414
 8651WAT      O26194   6.710   4.891   4.053
 8651WAT     H126195   6.780   4.847   4.109
 8651WAT     H226196   6.713   4.990   4.066
 8652WAT      O26197   4.000   8.016   6.602
 8652WAT     H126198   3.932   8.023   6.529
 8652WAT     H226199   3.998   8.099   6.657
 8653WAT      O26200   9.756   1.045   2.396
 8653WAT     H126201   9.821   1.051   2.472
 8653WAT     H226202   9.731   1.137   2.367
 8654WAT      O26203   7.500   6.794   7.308
 8654WAT     H126204   7.436   6.816   7.234
 8654WAT     H226205   7.508   6.695   7.316
 8655WAT      O26206   6.004   4.810   6.589
 8655WAT     H126207   5.981   4.906   6.573
 8655WAT     H226208   5.998   4.789   6.686
 8656WAT      O26209   3.345   7.134   1.431
 8656WAT     H126210   3.352   7.208   1.498
 8656WAT     H226211   3.432   7.124   1.383
 8657WAT      O26212   2.399   4.379   0.685
 8657WAT     H126213   2.479   4.428   0.649
 8657WAT     H226214   2.391   4.291   0.638
 8658WAT      O26215   3.593   8.322   1.587
 8658WAT     H126216   3.516   8.258   1.585
 8658WAT     H226217   3.601   8.368   1.498
 8659WAT      O26218   2.639   1.509   7.012
 8659WAT     H126219   2.569   1.470   6.953
 8659WAT     H226220   2.727   1.467   6.992
 8660WAT      O26221   2.132   3.841   2.667
 8660WAT     H126222   2.128   3.759   2.723
 8660WAT     H226223   2.048   3.848   2.613
 8661WAT      O26224   5.067   9.747   4.779
 8661WAT     H126225   5.089   9.813   4.707
 8661WAT     H226226   5.098   9.656   4.751
 8662WAT      O26227   7.513   7.328   3.515
 8662WAT     H126228   7.477   7.317   3.608
 8662WAT     H226229   7.544   7.240   3.481
 8663WAT      O26230   6.788   8.141   7.676
 8663WAT     H126231   6.783   8.191   7.763
 8663WAT     H226232   6.697   8.109   7.651
 8664WAT      O26233   2.121   8.615   6.651
 8664WAT     H126234   2.193   8.681   6.631
 8664WAT     H226235   2.047   8.660   6.701
 8665WAT      O26236   3.585   7.143   1.289
 8665WAT     H126237   3.674   7.100   1.307
 8665WAT     H226238   3.600   7.233   1.248
 8666WAT      O26239   6.476   8.092   0.820
 8666WAT     H126240   6.410   8.045   0.761
 8666WAT     H226241   6.473   8.053   0.912
 8667WAT      O26242   8.353   1.309   6.456
 8667WAT     H126243   8.324   1.403   6.442
 8667WAT     H226244   8.384   1.297   6.550
 8668WAT      O26245   4.568   6.433   3.390
 8668WAT     H126246   4.513   6.414   3.471
 8668WAT     H226247   4.663   6.448   3.417
 8669WAT      O26248   3.020   0.932   8.515
 8669WAT     H126249   3.108   0.965   8.548
 8669WAT     H226250   2.946   0.980   8.562
 8670WAT      O26251   1.558   1.286   4.400
 8670WAT     H126252   1.479   1.299   4.459
 8670WAT     H226253   1.543   1.206   4.342
 8671WAT      O26254   4.233   8.168   4.090
 8671WAT     H126255   4.168   8.134   4.021
 8671WAT     H226256   4.323   8.130   4.072
 8672WAT      O26257   5.593   8.250   7.985
 8672WAT     H126258   5.614   8.323   7.921
 8672WAT     H226259   5.494   8.247   8.002
 8673WAT      O26260   5.711   5.750   9.126
 8673WAT     H126261   5.636   5.753   9.061
 8673WAT     H226262   5.687   5.689   9.202
 8674WAT      O26263   5.118   6.588   9.786
 8674WAT     H126264   5.138   6.524   9.712
 8674WAT     H226265   5.168   6.560   9.868
 8675WAT      O26266   3.683   1.841   2.564
 8675WAT     H126267   3.673   1.937   2.590
 8675WAT     H226268   3.645   1.783   2.635
 8676WAT      O26269   8.658   8.896   0.958
 8676WAT     H126270   8.754   8.869   0.954
 8676WAT     H226271   8.652   8.995   0.969
 8677WAT      O26272   2.163   3.975   5.497
 8677WAT     H126273   2.222   3.971   5.578
 8677WAT     H226274   2.068   3.967   5.525
 8678WAT      O26275   0.720   0.160   2.380
 8678WAT     H126276   0.673   0.113   2.456
 8678WAT     H226277   0.665   0.239   2.352
 8679WAT      O26278   9.021   0.491   0.169
 8679WAT     H126279   8.941   0.433   0.154
 8679WAT     H226280   9.040   0.544   0.087
 8680WAT      O26281   0.775   2.319   2.022
 8680WAT     H126282   0.815   2.308   1.931
 8680WAT     H226283   0.705   2.250   2.037
 8681WAT      O26284   0.787   2.818   8.720
 8681WAT     H126285   0.761   2.772   8.635
 8681WAT     H226286   0.795   2.916   8.703
 8682WAT      O26287   8.038   8.995   7.298
 8682WAT     H126288   8.105   9.006   7.371
 8682WAT     H226289   8.040   8.900   7.266
 8683WAT      O26290   2.309   6.993   1.500
 8683WAT     H126291   2.308   7.024   1.595
 8683WAT     H226292   2.232   6.931   1.485
 8684WAT      O26293   8.780   2.211   1.678
 8684WAT     H126294   8.753   2.124   1.720
 8684WAT     H226295   8.713   2.281   1.701
 8685WAT      O26296   6.596   2.813   8.682
 8685WAT     H126297   6.588   2.757   8.765
 8685WAT     H226298   6.533   2.778   8.612
 8686WAT      O26299   4.862   5.210   7.597
 8686WAT     H126300   4.784   5.170   7.549
 8686WAT     H226301   4.852   5.309   7.599
 8687WAT      O26302   2.711   0.690   2.251
 8687WAT     H126303   2.760   0.690   2.339
 8687WAT     H226304   2.774   0.717   2.178
 8688WAT      O26305   6.350   9.271   4.380
 8688WAT     H126306   6.412   9.251   4.304
 8688WAT     H226307   6.403   9.300   4.459
 8689WAT      O26308   2.355   8.017   3.971
 8689WAT     H126309   2.451   7.988   3.977
 8689WAT     H226310   2.311   7.971   3.894
 8690WAT      O26311   3.243   9.613   1.320
 8690WAT     H126312   3.144   9.598   1.310
 8690WAT     H226313   3.290   9.525   1.320
 8691WAT      O26314   2.362   0.006   6.612
 8691WAT     H126315   2.295   0.053   6.669
 8691WAT     H226316   2.440   0.067   6.596
 8692WAT      O26317   8.232   9.673   7.162
 8692WAT     H126318   8.259   9.632   7.075
 8692WAT     H226319   8.242   9.772   7.158
 8693WAT      O26320   0.945   9.333   0.315
 8693WAT     H126321   0.966   9.330   0.413
 8693WAT     H226322   1.007   9.398   0.270
 8694WAT      O26323   6.884   0.412   8.949
 8694WAT     H126324   6.949   0.410   9.025
 8694WAT     H226325   6.841   0.321   8.939
 8695WAT      O26326   9.257   8.839   3.844
 8695WAT     H126327   9.294   8.878   3.928
 8695WAT     H226328   9.231   8.913   3.782
 8696WAT      O26329   2.117   0.736   2.197
 8696WAT     H126330   2.194   0.673   2.195
 8696WAT     H226331   2.107   0.780   2.108
 8697WAT      O26332   4.714   8.658   8.665
 8697WAT     H126333   4.792   8.717   8.645
 8697WAT     H226334   4.734   8.603   8.746
 8698WAT      O26335   7.473   3.807   0.984
 8698WAT     H126336   7.511   3.898   1.000
 8698WAT     H226337   7.539   3.737   1.013
 8699WAT      O26338   1.542   6.939   5.794
 8699WAT     H126339   1.488   6.865   5.833
 8699WAT     H226340   1.555   7.010   5.863
 8700WAT      O26341   4.128   5.671   3.011
 8700WAT     H126342   4.153   5.694   3.105
 8700WAT     H226343   4.065   5.740   2.975
 8701WAT      O26344   1.358   9.451   2.350
 8701WAT     H126345   1.440   9.421   2.301
 8701WAT     H226346   1.328   9.539   2.315
 8702WAT      O26347   2.451   7.495   0.914
 8702WAT     H126348   2.384   7.560   0.951
 8702WAT     H226349   2.541   7.514   0.954
 8703WAT      O26350   4.451   2.457   1.165
 8703WAT     H126351   4.535   2.472   1.216
 8703WAT     H226352   4.420   2.543   1.124
 8704WAT      O26353   6.403   3.401   1.784
 8704WAT     H126354   6.446   3.311   1.784
 8704WAT     H226355   6.456   3.463   1.841
 8705WAT      O26356   8.425   2.988   1.789
 8705WAT     H126357   8.344   2.938   1.820
 8705WAT     H226358   8.410   3.086   1.803
 8706WAT      O26359   6.261   2.560   2.950
 8706WAT     H126360   6.204   2.477   2.950
 8706WAT     H226361   6.222   2.626   2.886
 8707WAT      O26362   1.226   1.741   9.720
 8707WAT     H126363   1.314   1.708   9.754
 8707WAT     H226364   1.243   1.813   9.652
 8708WAT      O26365   4.145   7.564   8.375
 8708WAT     H126366   4.166   7.501   8.300
 8708WAT     H226367   4.082   7.519   8.439
 8709WAT      O26368   6.479   1.041   5.980
 8709WAT     H126369   6.401   1.022   5.920
 8709WAT     H226370   6.548   0.971   5.967
 8710WAT      O26371   9.647   8.773   4.216
 8710WAT     H126372   9.563   8.779   4.270
 8710WAT     H226373   9.639   8.701   4.147
 8711WAT      O26374   4.909   8.456   4.222
 8711WAT     H126375   4.847   8.379   4.242
 8711WAT     H226376   4.994   8.443   4.272
 8712WAT      O26377   6.496   4.766   2.932
 8712WAT     H126378   6.489   4.866   2.930
 8712WAT     H226379   6.584   4.738   2.895
 8713WAT      O26380   6.653   0.392   0.057
 8713WAT     H126381   6.560   0.401   0.091
 8713WAT     H226382   6.714   0.450   0.111
 8714WAT      O26383   9.471   6.404   6.950
 8714WAT     H126384   9.390   6.460   6.940
 8714WAT     H226385   9.450   6.325   7.007
 8715WAT      O26386   2.980   2.549   9.861
 8715WAT     H126387   3.054   2.567   9.925
 8715WAT     H226388   2.954   2.634   9.815
 8716WAT      O26389   5.623   1.680   3.949
 8716WAT     H126390   5.562   1.734   3.891
 8716WAT     H226391   5.678   1.741   4.006
 8717WAT      O26392   9.046   7.918   7.671
 8717WAT     H126393   9.058   7.840   7.610
 8717WAT     H226394   9.132   7.969   7.677
 8718WAT      O26395   8.061   7.181   4.405
 8718WAT     H126396   7.963   7.177   4.424
 8718WAT     H226397   8.080   7.256   4.341
 8719WAT      O26398   0.529   3.629   5.396
 8719WAT     H126399   0.592   3.658   5.468
 8719WAT     H226400   0.477   3.709   5.364
 8720WAT      O26401   9.403   5.320   1.622
 8720WAT     H126402   9.359   5.405   1.654
 8720WAT     H226403   9.497   5.340   1.595
 8721WAT      O26404   6.726   3.014   0.043
 8721WAT     H126405   6.791   3.037  -0.029
 8721WAT     H226406   6.703   3.097   0.094
 8722WAT      O26407   5.676   2.556   7.499
 8722WAT     H126408   5.678   2.457   7.484
 8722WAT     H226409   5.634   2.575   7.588
 8723WAT      O26410   9.734   1.382   6.020
 8723WAT     H126411   9.713   1.433   5.937
 8723WAT     H226412   9.792   1.437   6.079
 8724WAT      O26413   7.600   0.009   5.707
 8724WAT     H126414   7.680   0.058   5.672
 8724WAT     H226415   7.517   0.055   5.675
 8725WAT      O26416   7.003   1.652   8.986
 8725WAT     H126417   6.947   1.569   8.981
 8725WAT     H226418   7.031   1.667   9.081
 8726WAT      O26419   2.996   8.364   5.189
 8726WAT     H126420   2.976   8.431   5.118
 8726WAT     H226421   2.916   8.355   5.250
 8727WAT      O26422   8.009   5.441   0.018
 8727WAT     H126423   8.107   5.450   0.001
 8727WAT     H226424   7.958   5.471  -0.062
 8728WAT      O26425   6.227   8.041   5.435
 8728WAT     H126426   6.266   8.061   5.346
 8728WAT     H226427   6.127   8.040   5.428
 8729WAT      O26428   4.986   2.960   4.076
 8729WAT     H126429   4.901   3.000   4.041
 8729WAT     H226430   5.055   3.032   4.085
 8730WAT      O26431   9.018   5.320   6.427
 8730WAT     H126432   9.095   5.382   6.441
 8730WAT     H226433   9.024   5.279   6.336
 8731WAT      O26434   0.081   8.318   1.931
 8731WAT     H126435   0.016   8.313   2.007
 8731WAT     H226436   0.094   8.414   1.904
 8732WAT      O26437   0.004   6.370   8.038
 8732WAT     H126438  -0.007   6.304   7.964
 8732WAT     H226439   0.076   6.339   8.100
 8733WAT      O26440   4.524   1.062   1.595
 8733WAT     H126441   4.514   0.972   1.636
 8733WAT     H226442   4.600   1.061   1.530
 8734WAT      O26443   5.829   0.895   9.767
 8734WAT     H126444   5.834   0.813   9.710
 8734WAT     H226445   5.921   0.925   9.791
 8735WAT      O26446   4.151   9.321   7.507
 8735WAT     H126447   4.180   9.412   7.538
 8735WAT     H226448   4.077   9.331   7.440
 8736WAT      O26449   4.004   2.520   8.703
 8736WAT     H126450   3.911   2.484   8.689
 8736WAT     H226451   4.014   2.606   8.652
 8737WAT      O26452   2.896   7.506   6.784
 8737WAT     H126453   2.926   7.565   6.860
 8737WAT     H226454   2.925   7.546   6.697
 8738WAT      O26455   4.503   8.537   9.511
 8738WAT     H126456   4.592   8.579   9.489
 8738WAT     H226457   4.463   8.500   9.427
 8739WAT      O26458   3.477   0.719   0.806
 8739WAT     H126459   3.526   0.632   0.812
 8739WAT     H226460   3.421   0.731   0.888
 8740WAT      O26461   8.161   5.167   7.239
 8740WAT     H126462   8.186   5.261   7.266
 8740WAT     H226463   8.228   5.103   7.278
 8741WAT      O26464   2.752   1.403   8.115
 8741WAT     H126465   2.706   1.359   8.192
 8741WAT     H226466   2.834   1.351   8.091
 8742WAT      O26467   0.169   3.698   7.261
 8742WAT     H126468   0.179   3.613   7.208
 8742WAT     H226469   0.210   3.774   7.210
 8743WAT      O26470   6.366   3.608   4.004
 8743WAT     H126471   6.442   3.670   3.986
 8743WAT     H226472   6.301   3.652   4.066
 8744WAT      O26473   8.428   1.141   9.367
 8744WAT     H126474   8.486   1.199   9.424
 8744WAT     H226475   8.478   1.112   9.286
 8745WAT      O26476   1.575   1.143   7.820
 8745WAT     H126477   1.535   1.218   7.872
 8745WAT     H226478   1.517   1.122   7.742
 8746WAT      O26479   2.812   3.715   1.017
 8746WAT     H126480   2.893   3.721   0.957
 8746WAT     H226481   2.803   3.800   1.068
 8747WAT      O26482   8.632   5.516   1.063
 8747WAT     H126483   8.538   5.492   1.038
 8747WAT     H226484   8.649   5.485   1.157
 8748WAT      O26485   0.647   5.641   0.890
 8748WAT     H126486   0.580   5.577   0.850
 8748WAT     H226487   0.622   5.735   0.866
 8749WAT      O26488   6.432   8.608   4.974
 8749WAT     H126489   6.501   8.604   4.902
 8749WAT     H226490   6.471   8.650   5.056
 8750WAT      O26491   0.272   8.304   4.288
 8750WAT     H126492   0.206   8.375   4.310
 8750WAT     H226493   0.264   8.229   4.353
 8751WAT      O26494   7.311   7.710   8.708
 8751WAT     H126495   7.305   7.616   8.676
 8751WAT     H226496   7.387   7.720   8.772
 8752WAT      O26497   8.427   1.413   0.101
 8752WAT     H126498   8.483   1.362   0.036
 8752WAT     H226499   8.441   1.511   0.087
 8753WAT      O26500   7.947   6.380   9.654
 8753WAT     H126501   8.002   6.417   9.579
 8753WAT     H226502   7.964   6.282   9.662
 8754WAT      O26503   2.035   5.142   7.674
 8754WAT     H126504   1.998   5.218   7.621
 8754WAT     H226505   2.004   5.055   7.634
 8755WAT      O26506   3.513   0.928   4.282
 8755WAT     H126507   3.448   0.998   4.312
 8755WAT     H226508   3.566   0.962   4.205
 8756WAT      O26509   4.624   9.753   4.392
 8756WAT     H126510   4.676   9.771   4.309
 8756WAT     H226511   4.648   9.664   4.429
 8757WAT      O26512   9.046   2.076   3.683
 8757WAT     H126513   9.064   2.175   3.678
 8757WAT     H226514   8.947   2.062   3.689
 8758WAT      O26515   7.579   6.761   0.524
 8758WAT     H126516   7.597   6.685   0.461
 8758WAT     H226517   7.605   6.733   0.616
 8759WAT      O26518   8.687   6.316   1.412
 8759WAT     H126519   8.619   6.259   1.365
 8759WAT     H226520   8.704   6.278   1.503
 8760WAT      O26521   9.057   9.468   9.764
 8760WAT     H126522   9.126   9.408   9.804
 8760WAT     H226523   8.988   9.490   9.833
 8761WAT      O26524   5.842   2.716   3.728
 8761WAT     H126525   5.747   2.691   3.713
 8761WAT     H226526   5.867   2.791   3.667
 8762WAT      O26527   6.382   4.789   7.157
 8762WAT     H126528   6.353   4.810   7.063
 8762WAT     H226529   6.382   4.690   7.169
 8763WAT      O26530   4.828   6.448   5.599
 8763WAT     H126531   4.875   6.456   5.511
 8763WAT     H226532   4.737   6.488   5.591
 8764WAT      O26533   3.711   3.310   2.500
 8764WAT     H126534   3.736   3.308   2.597
 8764WAT     H226535   3.748   3.229   2.454
 8765WAT      O26536   8.700   4.833   0.677
 8765WAT     H126537   8.702   4.811   0.775
 8765WAT     H226538   8.732   4.927   0.664
 8766WAT      O26539   0.064   5.056   1.551
 8766WAT     H126540   0.067   4.966   1.594
 8766WAT     H226541  -0.026   5.070   1.508
 8767WAT      O26542   2.003   1.325   7.272
 8767WAT     H126543   2.086   1.290   7.229
 8767WAT     H226544   2.016   1.421   7.296
 8768WAT      O26545   5.144   3.634   7.081
 8768WAT     H126546   5.232   3.677   7.059
 8768WAT     H226547   5.116   3.660   7.173
 8769WAT      O26548   4.635   7.392   5.504
 8769WAT     H126549   4.717   7.404   5.450
 8769WAT     H226550   4.619   7.294   5.519
 8770WAT      O26551   4.333   1.267   0.783
 8770WAT     H126552   4.345   1.273   0.684
 8770WAT     H226553   4.269   1.338   0.814
 8771WAT      O26554   0.053   0.147   3.520
 8771WAT     H126555   0.006   0.159   3.432
 8771WAT     H226556   0.103   0.231   3.543
 8772WAT      O26557   6.451   6.092   1.316
 8772WAT     H126558   6.358   6.057   1.326
 8772WAT     H226559   6.450   6.171   1.255
 8773WAT      O26560   6.407   7.926   6.658
 8773WAT     H126561   6.312   7.909   6.685
 8773WAT     H226562   6.430   7.868   6.580
 8774WAT      O26563   8.570   7.857   2.240
 8774WAT     H126564   8.473   7.839   2.259
 8774WAT     H226565   8.585   7.856   2.142
 8775WAT      O26566   7.153   1.308   5.325
 8775WAT     H126567   7.250   1.309   5.350
 8775WAT     H226568   7.135   1.234   5.260
 8776WAT      O26569   4.770   5.847   7.728
 8776WAT     H126570   4.852   5.790   7.735
 8776WAT     H226571   4.792   5.940   7.759
 8777WAT      O26572   6.836   6.280   9.118
 8777WAT     H126573   6.919   6.322   9.154
 8777WAT     H226574   6.756   6.322   9.160
 8778WAT      O26575   9.371   3.835   4.750
 8778WAT     H126576   9.314   3.767   4.796
 8778WAT     H226577   9.452   3.791   4.711
 8779WAT      O26578   3.631   5.839   9.627
 8779WAT     H126579   3.615   5.859   9.723
 8779WAT     H226580   3.627   5.923   9.574
 8780WAT      O26581   3.943   9.399   5.256
 8780WAT     H126582   3.866   9.411   5.193
 8780WAT     H226583   3.909   9.370   5.345
 8781WAT      O26584   4.262   0.341   2.697
 8781WAT     H126585   4.228   0.248   2.689
 8781WAT     H226586   4.349   0.342   2.746
 8782WAT      O26587   5.252   6.385   5.316
 8782WAT     H126588   5.301   6.322   5.255
 8782WAT     H226589   5.282   6.369   5.410
 8783WAT      O26590   4.089   8.031   8.352
 8783WAT     H126591   4.080   7.949   8.296
 8783WAT     H226592   4.164   8.088   8.317
 8784WAT      O26593   9.261   1.089   1.751
 8784WAT     H126594   9.222   1.068   1.661
 8784WAT     H226595   9.348   1.137   1.739
 8785WAT      O26596   8.483   2.442   5.286
 8785WAT     H126597   8.575   2.408   5.266
 8785WAT     H226598   8.478   2.471   5.381
 8786WAT      O26599   8.509   6.051   2.835
 8786WAT     H126600   8.446   6.051   2.913
 8786WAT     H226601   8.557   5.963   2.831
 8787WAT      O26602   5.240   8.648   7.972
 8787WAT     H126603   5.155   8.698   7.987
 8787WAT     H226604   5.235   8.558   8.015
 8788WAT      O26605   2.280   8.305   2.178
 8788WAT     H126606   2.237   8.261   2.257
 8788WAT     H226607   2.341   8.240   2.133
 8789WAT      O26608   5.482   2.812   1.952
 8789WAT     H126609   5.403   2.753   1.966
 8789WAT     H226610   5.467   2.900   1.998
 8790WAT      O26611   1.918   3.988   2.817
 8790WAT     H126612   1.976   4.056   2.771
 8790WAT     H226613   1.970   3.905   2.835
 8791WAT      O26614   6.625   4.241   1.663
 8791WAT     H126615   6.671   4.329   1.648
 8791WAT     H226616   6.692   4.167   1.664
 8792WAT      O26617   8.616   4.457   6.339
 8792WAT     H126618   8.646   4.381   6.396
 8792WAT     H226619   8.550   4.513   6.389
 8793WAT      O26620   3.634   5.592   0.433
 8793WAT     H126621   3.568   5.637   0.492
 8793WAT     H226622   3.697   5.537   0.488
 8794WAT      O26623   9.878   6.545   3.370
 8794WAT     H126624   9.787   6.514   3.340
 8794WAT     H226625   9.873   6.577   3.464
 8795WAT      O26626   1.634   4.431   4.693
 8795WAT     H126627   1.635   4.370   4.772
 8795WAT     H226628   1.717   4.488   4.694
 8796WAT      O26629   7.266   6.866   6.722
 8796WAT     H126630   7.171   6.869   6.690
 8796WAT     H226631   7.279   6.783   6.777
 8797WAT      O26632   7.378   6.075   7.054
 8797WAT     H126633   7.367   5.990   7.104
 8797WAT     H226634   7.323   6.147   7.096
 8798WAT      O26635   7.014   6.221   3.690
 8798WAT     H126636   7.036   6.133   3.647
 8798WAT     H226637   6.922   6.217   3.727
 8799WAT      O26638   3.524   9.300   9.386
 8799WAT     H126639   3.585   9.333   9.313
 8799WAT     H226640   3.507   9.202   9.374
 8800WAT      O26641   4.761   3.640   3.411
 8800WAT     H126642   4.848   3.682   3.384
 8800WAT     H226643   4.686   3.686   3.365
 8801WAT      O26644   3.724   3.638   6.828
 8801WAT     H126645   3.787   3.670   6.758
 8801WAT     H226646   3.656   3.709   6.847
 8802WAT      O26647   5.782   8.594   1.730
 8802WAT     H126648   5.709   8.526   1.741
 8802WAT     H226649   5.848   8.584   1.805
 8803WAT      O26650   5.235   9.050   1.514
 8803WAT     H126651   5.148   9.010   1.543
 8803WAT     H226652   5.308   9.011   1.571
 8804WAT      O26653   8.472   1.788   1.870
 8804WAT     H126654   8.438   1.797   1.963
 8804WAT     H226655   8.572   1.785   1.871
 8805WAT      O26656   5.488   6.915   5.580
 8805WAT     H126657   5.411   6.892   5.639
 8805WAT     H226658   5.506   7.013   5.586
 8806WAT      O26659   8.819   3.206   3.767
 8806WAT     H126660   8.898   3.267   3.759
 8806WAT     H226661   8.825   3.136   3.695
 8807WAT      O26662   2.228   9.731   4.805
 8807WAT     H126663   2.274   9.643   4.821
 8807WAT     H226664   2.174   9.725   4.721
 8808WAT      O26665   3.638   3.599   4.581
 8808WAT     H126666   3.710   3.549   4.532
 8808WAT     H226667   3.671   3.689   4.608
 8809WAT      O26668   6.971   6.854   2.859
 8809WAT     H126669   6.923   6.778   2.816
 8809WAT     H226670   7.052   6.878   2.805
 8810WAT      O26671   7.213   2.546   8.913
 8810WAT     H126672   7.271   2.625   8.890
 8810WAT     H226673   7.185   2.552   9.009
 8811WAT      O26674   2.755   8.163   4.223
 8811WAT     H126675   2.804   8.163   4.310
 8811WAT     H226676   2.677   8.100   4.228
 8812WAT      O26677   6.982   2.200   1.736
 8812WAT     H126678   6.934   2.262   1.797
 8812WAT     H226679   7.057   2.156   1.786
 8813WAT      O26680   3.786   1.789   2.060
 8813WAT     H126681   3.873   1.837   2.049
 8813WAT     H226682   3.771   1.767   2.156
 8814WAT      O26683   4.189   5.269   6.671
 8814WAT     H126684   4.223   5.177   6.691
 8814WAT     H226685   4.147   5.308   6.752
 8815WAT      O26686   1.359   5.049   6.769
 8815WAT     H126687   1.310   5.069   6.684
 8815WAT     H226688   1.388   5.134   6.811
 8816WAT      O26689   3.081   0.787   3.519
 8816WAT     H126690   3.172   0.829   3.530
 8816WAT     H226691   3.065   0.767   3.423
 8817WAT      O26692   7.439   5.837   3.470
 8817WAT     H126693   7.484   5.801   3.389
 8817WAT     H226694   7.374   5.769   3.505
 8818WAT      O26695   2.102   3.979   1.651
 8818WAT     H126696   2.128   3.924   1.571
 8818WAT     H226697   2.134   3.934   1.734
 8819WAT      O26698   4.826   1.941   3.161
 8819WAT     H126699   4.853   1.990   3.079
 8819WAT     H226700   4.726   1.943   3.170
 8820WAT      O26701   9.506   8.340   1.809
 8820WAT     H126702   9.496   8.427   1.858
 8820WAT     H226703   9.581   8.348   1.744
 8821WAT      O26704   1.274   6.673   8.768
 8821WAT     H126705   1.332   6.690   8.848
 8821WAT     H226706   1.324   6.616   8.702
 8822WAT      O26707   9.359   2.149   6.269
 8822WAT     H126708   9.449   2.187   6.249
 8822WAT     H226709   9.351   2.132   6.368
 8823WAT      O26710   4.141   1.376   5.624
 8823WAT     H126711   4.189   1.301   5.671
 8823WAT     H226712   4.204   1.420   5.560
 8824WAT      O26713   1.440   0.138   5.957
 8824WAT     H126714   1.368   0.161   5.891
 8824WAT     H226715   1.458   0.218   6.015
 8825WAT      O26716   0.031   2.933   4.974
 8825WAT     H126717   0.006   2.836   4.966
 8825WAT     H226718   0.062   2.967   4.885
 8826WAT      O26719   8.685   6.415   3.760
 8826WAT     H126720   8.667   6.321   3.788
 8826WAT     H226721   8.626   6.477   3.811
 8827WAT      O26722   2.326   8.889   3.253
 8827WAT     H126723   2.331   8.907   3.351
 8827WAT     H226724   2.240   8.926   3.216
 8828WAT      O26725   0.940   3.278   0.486
 8828WAT     H126726   0.943   3.290   0.386
 8828WAT     H226727   0.980   3.358   0.530
 8829WAT      O26728   7.748   7.987   7.297
 8829WAT     H126729   7.818   8.039   7.247
 8829WAT     H226730   7.658   8.028   7.279
 8830WAT      O26731   3.321   1.192   8.135
 8830WAT     H126732   3.391   1.126   8.163
 8830WAT     H226733   3.363   1.263   8.078
 8831WAT      O26734   7.167   9.620   7.295
 8831WAT     H126735   7.114   9.542   7.329
 8831WAT     H226736   7.146   9.701   7.351
 8832WAT      O26737   1.859   9.315   7.954
 8832WAT     H126738   1.762   9.292   7.964
 8832WAT     H226739   1.905   9.301   8.042
 8833WAT      O26740   1.522   4.545   7.354
 8833WAT     H126741   1.569   4.461   7.327
 8833WAT     H226742   1.578   4.594   7.421
 8834WAT      O26743   6.427   2.811   3.935
 8834WAT     H126744   6.377   2.738   3.982
 8834WAT     H226745   6.387   2.899   3.960
 8835WAT      O26746   1.778   1.583   2.026
 8835WAT     H126747   1.686   1.619   2.012
 8835WAT     H226748   1.845   1.647   1.987
 8836WAT      O26749   3.502   2.503   8.171
 8836WAT     H126750   3.472   2.598   8.167
 8836WAT     H226751   3.518   2.477   8.266
 8837WAT      O26752   9.705   6.694   8.077
 8837WAT     H126753   9.660   6.740   8.153
 8837WAT     H226754   9.657   6.608   8.058
 8838WAT      O26755   1.168   1.907   3.085
 8838WAT     H126756   1.092   1.960   3.124
 8838WAT     H226757   1.255   1.949   3.111
 8839WAT      O26758   8.516   8.800   3.133
 8839WAT     H126759   8.473   8.735   3.071
 8839WAT     H226760   8.579   8.752   3.193
 8840WAT      O26761   0.397   8.873   4.367
 8840WAT     H126762   0.307   8.884   4.409
 8840WAT     H226763   0.401   8.925   4.281
 8841WAT      O26764   3.711   5.386   8.835
 8841WAT     H126765   3.709   5.317   8.763
 8841WAT     H226766   3.783   5.452   8.815
 8842WAT      O26767   2.958   5.409   3.897
 8842WAT     H126768   2.874   5.408   3.842
 8842WAT     H226769   2.987   5.315   3.914
 8843WAT      O26770   1.405   1.320   8.266
 8843WAT     H126771   1.387   1.416   8.288
 8843WAT     H226772   1.320   1.268   8.266
 8844WAT      O26773   4.240   6.765   4.260
 8844WAT     H126774   4.231   6.806   4.169
 8844WAT     H226775   4.184   6.817   4.325
 8845WAT      O26776   6.394   1.689   1.312
 8845WAT     H126777   6.405   1.788   1.301
 8845WAT     H226778   6.365   1.649   1.225
 8846WAT      O26779   2.795   5.034   1.397
 8846WAT     H126780   2.722   5.046   1.465
 8846WAT     H226781   2.806   5.118   1.345
 8847WAT      O26782   5.302   4.868   5.904
 8847WAT     H126783   5.303   4.793   5.838
 8847WAT     H226784   5.394   4.909   5.910
 8848WAT      O26785   8.216   3.386   0.166
 8848WAT     H126786   8.293   3.323   0.161
 8848WAT     H226787   8.220   3.438   0.252
 8849WAT      O26788   0.773   6.821   7.101
 8849WAT     H126789   0.707   6.845   7.031
 8849WAT     H226790   0.863   6.810   7.060
 8850WAT      O26791   0.834   1.825   3.315
 8850WAT     H126792   0.916   1.769   3.327
 8850WAT     H226793   0.754   1.766   3.307
 8851WAT      O26794   1.296   9.705   0.429
 8851WAT     H126795   1.328   9.613   0.406
 8851WAT     H226796   1.309   9.721   0.527
 8852WAT      O26797   5.164   1.128   2.771
 8852WAT     H126798   5.198   1.076   2.850
 8852WAT     H226799   5.215   1.101   2.689
 8853WAT      O26800   8.491   3.493   8.696
 8853WAT     H126801   8.443   3.543   8.625
 8853WAT     H226802   8.567   3.442   8.655
 8854WAT      O26803   1.530   0.199   1.378
 8854WAT     H126804   1.618   0.242   1.398
 8854WAT     H226805   1.546   0.106   1.344
 8855WAT      O26806   7.099   5.164   9.165
 8855WAT     H126807   7.133   5.086   9.113
 8855WAT     H226808   7.024   5.136   9.224
 8856WAT      O26809   9.098   6.018   1.150
 8856WAT     H126810   9.052   6.043   1.064
 8856WAT     H226811   9.100   5.918   1.158
 8857WAT      O26812   0.696   0.366   9.821
 8857WAT     H126813   0.664   0.376   9.915
 8857WAT     H226814   0.655   0.285   9.780
 8858WAT      O26815   6.007   0.778   1.916
 8858WAT     H126816   6.072   0.783   1.840
 8858WAT     H226817   5.983   0.682   1.933
 8859WAT      O26818   1.168   6.654   6.584
 8859WAT     H126819   1.184   6.592   6.661
 8859WAT     H226820   1.085   6.707   6.601
 8860WAT      O26821   7.230   0.979   6.057
 8860WAT     H126822   7.329   0.975   6.068
 8860WAT     H226823   7.202   0.909   5.991
 8861WAT      O26824   4.056   7.284   6.259
 8861WAT     H126825   4.121   7.251   6.328
 8861WAT     H226826   4.106   7.312   6.177
 8862WAT      O26827   8.934   1.050   7.462
 8862WAT     H126828   8.982   0.962   7.460
 8862WAT     H226829   8.835   1.034   7.454
 8863WAT      O26830   7.687   5.582   5.510
 8863WAT     H126831   7.720   5.515   5.577
 8863WAT     H226832   7.647   5.660   5.559
 8864WAT      O26833   9.575   4.412   9.496
 8864WAT     H126834   9.573   4.359   9.412
 8864WAT     H226835   9.638   4.489   9.485
 8865WAT      O26836   5.304   3.301   9.662
 8865WAT     H126837   5.352   3.303   9.750
 8865WAT     H226838   5.283   3.206   9.638
 8866WAT      O26839   9.811   3.125   7.856
 8866WAT     H126840   9.714   3.124   7.882
 8866WAT     H226841   9.822   3.079   7.768
 8867WAT      O26842   0.594   0.484   2.679
 8867WAT     H126843   0.533   0.458   2.604
 8867WAT     H226844   0.687   0.496   2.645
 8868WAT      O26845   5.583   0.017   2.203
 8868WAT     H126846   5.640  -0.048   2.151
 8868WAT     H226847   5.625   0.108   2.198
 8869WAT      O26848   0.837   3.661   9.170
 8869WAT     H126849   0.807   3.756   9.178
 8869WAT     H226850   0.933   3.659   9.141
 8870WAT      O26851   5.748   9.183   1.457
 8870WAT     H126852   5.774   9.089   1.434
 8870WAT     H226853   5.699   9.183   1.544
 8871WAT      O26854   1.242   8.863   9.566
 8871WAT     H126855   1.198   8.932   9.622
 8871WAT     H226856   1.325   8.831   9.611
 8872WAT      O26857   6.829   1.629   3.098
 8872WAT     H126858   6.834   1.538   3.057
 8872WAT     H226859   6.901   1.638   3.167
 8873WAT      O26860   6.738   9.023   1.150
 8873WAT     H126861   6.744   9.122   1.145
 8873WAT     H226862   6.656   8.996   1.200
 8874WAT      O26863   4.789   9.338   2.118
 8874WAT     H126864   4.860   9.401   2.088
 8874WAT     H226865   4.711   9.390   2.154
 8875WAT      O26866   3.831   0.131   7.074
 8875WAT     H126867   3.754   0.192   7.054
 8875WAT     H226868   3.842   0.065   7.000
 8876WAT      O26869   6.428   6.903   0.072
 8876WAT     H126870   6.480   6.885  -0.011
 8876WAT     H226871   6.488   6.944   0.140
 8877WAT      O26872   9.664   0.191   9.810
 8877WAT     H126873   9.682   0.288   9.828
 8877WAT     H226874   9.701   0.167   9.720
 8878WAT      O26875   9.269   7.258   5.160
 8878WAT     H126876   9.309   7.168   5.142
 8878WAT     H226877   9.322   7.305   5.231
 8879WAT      O26878   1.311   4.799   1.648
 8879WAT     H126879   1.334   4.883   1.599
 8879WAT     H226880   1.273   4.732   1.583
 8880WAT      O26881   0.761   4.898   9.064
 8880WAT     H126882   0.700   4.826   9.098
 8880WAT     H226883   0.798   4.951   9.140
 8881WAT      O26884   2.872   2.458   4.446
 8881WAT     H126885   2.912   2.442   4.536
 8881WAT     H226886   2.940   2.501   4.386
 8882WAT      O26887   9.161   8.039   9.083
 8882WAT     H126888   9.193   8.036   8.988
 8882WAT     H226889   9.234   8.072   9.142
 8883WAT      O26890   2.957   5.566   4.131
 8883WAT     H126891   2.920   5.515   4.208
 8883WAT     H226892   2.968   5.505   4.052
 8884WAT      O26893   5.364   4.072   5.166
 8884WAT     H126894   5.344   3.984   5.125
 8884WAT     H226895   5.349   4.145   5.099
 8885WAT      O26896   7.577   3.550   7.848
 8885WAT     H126897   7.534   3.535   7.937
 8885WAT     H226898   7.586   3.648   7.831
 8886WAT      O26899   0.242   0.687   4.419
 8886WAT     H126900   0.320   0.662   4.361
 8886WAT     H226901   0.186   0.755   4.371
 8887WAT      O26902   1.130   0.756   2.441
 8887WAT     H126903   1.180   0.701   2.375
 8887WAT     H226904   1.105   0.844   2.400
 8888WAT      O26905   1.078   1.832   6.128
 8888WAT     H126906   1.120   1.828   6.037
 8888WAT     H226907   1.089   1.743   6.173
 8889WAT      O26908   0.925   1.410   5.419
 8889WAT     H126909   0.923   1.365   5.330
 8889WAT     H226910   0.904   1.344   5.491
 8890WAT      O26911   8.005   8.170   3.498
 8890WAT     H126912   7.936   8.177   3.426
 8890WAT     H226913   8.085   8.225   3.473
 8891WAT      O26914   0.395   5.372   6.859
 8891WAT     H126915   0.369   5.421   6.776
 8891WAT     H226916   0.376   5.428   6.939
 8892WAT      O26917   7.707   6.319   4.681
 8892WAT     H126918   7.698   6.320   4.780
 8892WAT     H226919   7.674   6.406   4.644
 8893WAT      O26920   2.468   5.074   4.430
 8893WAT     H126921   2.539   5.073   4.359
 8893WAT     H226922   2.424   5.164   4.431
 8894WAT      O26923   2.078   6.293   9.125
 8894WAT     H126924   1.980   6.296   9.107
 8894WAT     H226925   2.110   6.199   9.118
 8895WAT      O26926   3.197   8.006   8.056
 8895WAT     H126927   3.136   7.937   8.095
 8895WAT     H226928   3.213   8.078   8.124
 8896WAT      O26929   1.015   6.208   4.352
 8896WAT     H126930   0.977   6.123   4.315
 8896WAT     H226931   0.961   6.286   4.322
 8897WAT      O26932   4.618   3.331   8.315
 8897WAT     H126933   4.525   3.355   8.287
 8897WAT     H226934   4.670   3.302   8.234
 8898WAT      O26935   3.480   7.768   6.566
 8898WAT     H126936   3.560   7.708   6.566
 8898WAT     H226937   3.437   7.767   6.476
 8899WAT      O26938   0.722   1.607   8.555
 8899WAT     H126939   0.780   1.679   8.593
 8899WAT     H226940   0.718   1.530   8.619
 8900WAT      O26941   3.537   0.292   5.023
 8900WAT     H126942   3.446   0.326   5.001
 8900WAT     H226943   3.594   0.292   4.940
 8901WAT      O26944   5.356   1.474   7.850
 8901WAT     H126945   5.257   1.470   7.840
 8901WAT     H226946   5.389   1.564   7.820
 8902WAT      O26947   7.759   5.441   8.277
 8902WAT     H126948   7.729   5.354   8.237
 8902WAT     H226949   7.813   5.422   8.360
 8903WAT      O26950   0.063   6.992   1.826
 8903WAT     H126951   0.112   7.078   1.809
 8903WAT     H226952   0.040   6.985   1.923
 8904WAT      O26953   4.385   3.219   3.727
 8904WAT     H126954   4.373   3.162   3.809
 8904WAT     H226955   4.356   3.168   3.646
 8905WAT      O26956   2.306   0.162   3.593
 8905WAT     H126957   2.381   0.229   3.585
 8905WAT     H226958   2.225   0.197   3.546
 8906WAT      O26959   9.415   6.745   3.034
 8906WAT     H126960   9.384   6.678   3.101
 8906WAT     H226961   9.474   6.701   2.966
 8907WAT      O26962   4.807   6.673   3.706
 8907WAT     H126963   4.759   6.746   3.755
 8907WAT     H226964   4.905   6.694   3.703
 8908WAT      O26965   4.125   5.210   7.515
 8908WAT     H126966   4.065   5.289   7.504
 8908WAT     H226967   4.210   5.238   7.561
 8909WAT      O26968   1.180   2.158   2.117
 8909WAT     H126969   1.111   2.176   2.047
 8909WAT     H226970   1.271   2.160   2.076
 8910WAT      O26971   2.084   8.639   4.846
 8910WAT     H126972   2.033   8.644   4.932
 8910WAT     H226973   2.041   8.701   4.779
 8911WAT      O26974   0.816   5.963   5.798
 8911WAT     H126975   0.778   6.055   5.804
 8911WAT     H226976   0.893   5.963   5.734
 8912WAT      O26977   5.866   8.482   0.752
 8912WAT     H126978   5.944   8.484   0.689
 8912WAT     H226979   5.819   8.394   0.745
 8913WAT      O26980   4.367   0.007   5.961
 8913WAT     H126981   4.438  -0.051   5.921
 8913WAT     H226982   4.388   0.103   5.944
 8914WAT      O26983   9.703   1.527   6.388
 8914WAT     H126984   9.622   1.584   6.372
 8914WAT     H226985   9.781   1.586   6.407
 8915WAT      O26986   3.478   4.840   2.841
 8915WAT     H126987   3.482   4.778   2.763
 8915WAT     H226988   3.405   4.908   2.826
 8916WAT      O26989   5.959   1.464   8.521
 8916WAT     H126990   6.024   1.522   8.570
 8916WAT     H226991   5.902   1.415   8.588
 8917WAT      O26992   2.746   6.208   7.221
 8917WAT     H126993   2.778   6.131   7.165
 8917WAT     H226994   2.667   6.180   7.274
 8918WAT      O26995   2.275   8.057   5.023
 8918WAT     H126996   2.322   8.138   4.989
 8918WAT     H226997   2.187   8.047   4.976
 8919WAT      O26998   7.287   3.112   2.510
 8919WAT     H126999   7.213   3.120   2.578
 8919WAT     H227000   7.371   3.085   2.555
 8920WAT      O27001   8.806   9.375   5.200
 8920WAT     H127002   8.868   9.423   5.262
 8920WAT     H227003   8.817   9.410   5.107
 8921WAT      O27004   0.457   6.612   5.827
 8921WAT     H127005   0.466   6.712   5.829
 8921WAT     H227006   0.510   6.572   5.901
 8922WAT      O27007   2.099   4.837   8.333
 8922WAT     H127008   2.194   4.807   8.335
 8922WAT     H227009   2.084   4.897   8.254
 8923WAT      O27010   8.231   9.829   5.084
 8923WAT     H127011   8.316   9.831   5.136
 8923WAT     H227012   8.232   9.754   5.019
 8924WAT      O27013   6.188   8.103   6.396
 8924WAT     H127014   6.142   8.102   6.485
 8924WAT     H227015   6.178   8.194   6.356
 8925WAT      O27016   4.393   3.675   9.569
 8925WAT     H127017   4.323   3.727   9.617
 8925WAT     H227018   4.465   3.648   9.633
 8926WAT      O27019   6.834   8.449   9.639
 8926WAT     H127020   6.803   8.390   9.714
 8926WAT     H227021   6.899   8.398   9.582
 8927WAT      O27022   4.414   6.230   2.332
 8927WAT     H127023   4.353   6.235   2.411
 8927WAT     H227024   4.367   6.183   2.257
 8928WAT      O27025   5.981   6.676   6.565
 8928WAT     H127026   5.940   6.589   6.538
 8928WAT     H227027   6.063   6.694   6.511
 8929WAT      O27028   7.506   4.245   5.616
 8929WAT     H127029   7.436   4.219   5.682
 8929WAT     H227030   7.568   4.168   5.600
 8930WAT      O27031   2.231   4.986   1.596
 8930WAT     H127032   2.260   4.893   1.619
 8930WAT     H227033   2.178   5.025   1.672
 8931WAT      O27034   9.135   6.929   9.710
 8931WAT     H127035   9.042   6.962   9.727
 8931WAT     H227036   9.132   6.834   9.679
 8932WAT      O27037   4.985   1.564   6.000
 8932WAT     H127038   4.893   1.535   6.024
 8932WAT     H227039   5.033   1.488   5.955
 8933WAT      O27040   7.555   4.547   4.097
 8933WAT     H127041   7.531   4.637   4.061
 8933WAT     H227042   7.636   4.555   4.155
 8934WAT      O27043   0.516   4.889   8.661
 8934WAT     H127044   0.482   4.927   8.747
 8934WAT     H227045   0.538   4.792   8.673
 8935WAT      O27046   3.394   3.660   5.235
 8935WAT     H127047   3.443   3.747   5.237
 8935WAT     H227048   3.443   3.595   5.177
 8936WAT      O27049   3.706   4.463   0.034
 8936WAT     H127050   3.637   4.498  -0.029
 8936WAT     H227051   3.724   4.532   0.104
 8937WAT      O27052   6.780   5.999   1.970
 8937WAT     H127053   6.724   6.070   2.013
 8937WAT     H227054   6.867   5.992   2.017
 8938WAT      O27055   0.772   7.509   1.513
 8938WAT     H127056   0.788   7.599   1.474
 8938WAT     H227057   0.855   7.454   1.508
 8939WAT      O27058   5.825   1.881   2.633
 8939WAT     H127059   5.909   1.853   2.678
 8939WAT     H227060   5.846   1.943   2.557
 8940WAT      O27061   8.460   2.056   9.437
 8940WAT     H127062   8.430   2.007   9.355
 8940WAT     H227063   8.559   2.068   9.435
 8941WAT      O27064   3.713   3.427   0.579
 8941WAT     H127065   3.749   3.334   0.585
 8941WAT     H227066   3.742   3.479   0.659
 8942WAT      O27067   1.618   3.033   1.578
 8942WAT     H127068   1.560   3.055   1.657
 8942WAT     H227069   1.560   3.015   1.498
 8943WAT      O27070   2.451   3.537   9.512
 8943WAT     H127071   2.417   3.625   9.545
 8943WAT     H227072   2.412   3.517   9.423
 8944WAT      O27073   4.562   6.082   0.505
 8944WAT     H127074   4.490   6.066   0.572
 8944WAT     H227075   4.526   6.136   0.429
 8945WAT      O27076   6.489   0.011   0.093
 8945WAT     H127077   6.487  -0.009   0.190
 8945WAT     H227078   6.415   0.074   0.070
 8946WAT      O27079   3.622   9.610   4.250
 8946WAT     H127080   3.595   9.665   4.171
 8946WAT     H227081   3.722   9.610   4.258
 8947WAT      O27082   9.695   3.692   2.484
 8947WAT     H127083   9.730   3.599   2.484
 8947WAT     H227084   9.767   3.755   2.515
 8948WAT      O27085   6.753   4.486   3.573
 8948WAT     H127086   6.748   4.580   3.538
 8948WAT     H227087   6.837   4.475   3.626
 8949WAT      O27088   4.086   9.390   9.760
 8949WAT     H127089   4.119   9.303   9.723
 8949WAT     H227090   4.003   9.418   9.712
 8950WAT      O27091   6.874   0.317   6.457
 8950WAT     H127092   6.907   0.409   6.480
 8950WAT     H227093   6.803   0.324   6.387
 8951WAT      O27094   0.638   2.592   1.813
 8951WAT     H127095   0.539   2.602   1.806
 8951WAT     H227096   0.670   2.637   1.897
 8952WAT      O27097   0.567   8.546   6.241
 8952WAT     H127098   0.646   8.504   6.287
 8952WAT     H227099   0.505   8.474   6.211
 8953WAT      O27100   7.404   0.181   9.604
 8953WAT     H127101   7.324   0.126   9.628
 8953WAT     H227102   7.482   0.152   9.659
 8954WAT      O27103   4.207   5.334   1.605
 8954WAT     H127104   4.113   5.323   1.572
 8954WAT     H227105   4.271   5.303   1.535
 8955WAT      O27106   0.704   2.428   7.941
 8955WAT     H127107   0.629   2.486   7.974
 8955WAT     H227108   0.715   2.350   8.003
 8956WAT      O27109   9.576   0.697   6.125
 8956WAT     H127110   9.541   0.665   6.213
 8956WAT     H227111   9.579   0.797   6.124
 8957WAT      O27112   1.780   0.853   0.686
 8957WAT     H127113   1.754   0.895   0.773
 8957WAT     H227114   1.767   0.919   0.612
 8958WAT      O27115   8.637   5.815   2.872
 8958WAT     H127116   8.595   5.734   2.913
 8958WAT     H227117   8.660   5.796   2.777
 8959WAT      O27118   1.411   1.073   5.585
 8959WAT     H127119   1.335   1.008   5.589
 8959WAT     H227120   1.421   1.107   5.492
 8960WAT      O27121   7.733   6.615   1.033
 8960WAT     H127122   7.767   6.530   1.072
 8960WAT     H227123   7.688   6.669   1.104
 8961WAT      O27124   5.248   4.470   1.592
 8961WAT     H127125   5.310   4.408   1.641
 8961WAT     H227126   5.300   4.532   1.535
 8962WAT      O27127   4.051   9.321   0.393
 8962WAT     H127128   4.072   9.407   0.347
 8962WAT     H227129   3.954   9.316   0.413
 8963WAT      O27130   3.741   7.924   4.798
 8963WAT     H127131   3.769   7.828   4.803
 8963WAT     H227132   3.643   7.930   4.781
 8964WAT      O27133   5.980   7.123   6.363
 8964WAT     H127134   5.932   7.205   6.394
 8964WAT     H227135   6.001   7.131   6.266
 8965WAT      O27136   8.982   7.243   5.403
 8965WAT     H127137   8.976   7.342   5.417
 8965WAT     H227138   8.956   7.196   5.488
 8966WAT      O27139   8.269   8.235   6.647
 8966WAT     H127140   8.357   8.278   6.629
 8966WAT     H227141   8.225   8.212   6.560
 8967WAT      O27142   6.453   3.535   3.384
 8967WAT     H127143   6.413   3.555   3.474
 8967WAT     H227144   6.515   3.609   3.358
 8968WAT      O27145   9.442   4.830   4.574
 8968WAT     H127146   9.526   4.872   4.607
 8968WAT     H227147   9.364   4.862   4.629
 8969WAT      O27148   0.592   7.518   4.399
 8969WAT     H127149   0.535   7.584   4.449
 8969WAT     H227150   0.544   7.430   4.395
 8970WAT      O27151   5.626   9.811   0.896
 8970WAT     H127152   5.588   9.742   0.958
 8970WAT     H227153   5.570   9.894   0.901
 8971WAT      O27154   2.525   4.719   9.343
 8971WAT     H127155   2.441   4.773   9.337
 8971WAT     H227156   2.596   4.761   9.287
 8972WAT      O27157   3.763   2.430   6.788
 8972WAT     H127158   3.786   2.333   6.785
 8972WAT     H227159   3.693   2.450   6.720
 8973WAT      O27160   4.967   5.654   7.780
 8973WAT     H127161   5.027   5.600   7.721
 8973WAT     H227162   4.945   5.602   7.862
 8974WAT      O27163   2.316   4.074   5.061
 8974WAT     H127164   2.330   4.161   5.013
 8974WAT     H227165   2.238   4.084   5.123
 8975WAT      O27166   8.917   4.181   1.060
 8975WAT     H127167   8.938   4.093   1.104
 8975WAT     H227168   8.928   4.255   1.127
 8976WAT      O27169   9.223   7.689   0.862
 8976WAT     H127170   9.239   7.717   0.956
 8976WAT     H227171   9.184   7.766   0.811
 8977WAT      O27172   7.645   3.689   2.431
 8977WAT     H127173   7.709   3.623   2.467
 8977WAT     H227174   7.673   3.782   2.457
 8978WAT      O27175   0.306   9.168   2.160
 8978WAT     H127176   0.270   9.082   2.197
 8978WAT     H227177   0.229   9.227   2.134
 8979WAT      O27178   8.172   5.594   1.434
 8979WAT     H127179   8.164   5.672   1.372
 8979WAT     H227180   8.081   5.556   1.450
 8980WAT      O27181   3.679   1.825   6.321
 8980WAT     H127182   3.679   1.924   6.331
 8980WAT     H227183   3.696   1.782   6.410
 8981WAT      O27184   2.215   3.124   2.100
 8981WAT     H127185   2.119   3.151   2.091
 8981WAT     H227186   2.267   3.200   2.141
 8982WAT      O27187   5.641   6.623   1.115
 8982WAT     H127188   5.739   6.633   1.127
 8982WAT     H227189   5.598   6.713   1.115
 8983WAT      O27190   7.935   3.317   3.713
 8983WAT     H127191   7.887   3.403   3.727
 8983WAT     H227192   8.004   3.305   3.785
 8984WAT      O27193   5.298   1.888   9.860
 8984WAT     H127194   5.348   1.966   9.896
 8984WAT     H227195   5.224   1.919   9.801
 8985WAT      O27196   2.577   6.787   4.128
 8985WAT     H127197   2.504   6.845   4.091
 8985WAT     H227198   2.612   6.827   4.213
 8986WAT      O27199   9.045   6.582   5.377
 8986WAT     H127200   9.086   6.509   5.432
 8986WAT     H227201   9.077   6.575   5.282
 8987WAT      O27202   9.886   5.948   1.739
 8987WAT     H127203   9.795   5.989   1.748
 8987WAT     H227204   9.913   5.908   1.827
 8988WAT      O27205   6.024   6.423   2.600
 8988WAT     H127206   5.990   6.375   2.681
 8988WAT     H227207   5.999   6.519   2.605
 8989WAT      O27208   5.592   0.836   6.916
 8989WAT     H127209   5.496   0.826   6.942
 8989WAT     H227210   5.625   0.752   6.874
 8990WAT      O27211   6.612   1.017   0.784
 8990WAT     H127212   6.616   1.105   0.832
 8990WAT     H227213   6.684   0.957   0.820
 8991WAT      O27214   6.127   6.185   5.379
 8991WAT     H127215   6.193   6.244   5.426
 8991WAT     H227216   6.168   6.150   5.294
 8992WAT      O27217   2.804   0.692   5.517
 8992WAT     H127218   2.768   0.667   5.607
 8992WAT     H227219   2.730   0.725   5.459
 8993WAT      O27220   5.839   2.396   7.004
 8993WAT     H127221   5.827   2.446   6.918
 8993WAT     H227222   5.937   2.388   7.024
 8994WAT      O27223   6.232   3.503   1.325
 8994WAT     H127224   6.204   3.573   1.259
 8994WAT     H227225   6.170   3.505   1.404
 8995WAT      O27226   5.144   1.742   7.443
 8995WAT     H127227   5.062   1.754   7.498
 8995WAT     H227228   5.128   1.775   7.351
 8996WAT      O27229   3.598   9.784   0.677
 8996WAT     H127230   3.643   9.779   0.588
 8996WAT     H227231   3.501   9.801   0.665
 8997WAT      O27232   1.141   1.738   5.374
 8997WAT     H127233   1.177   1.791   5.451
 8997WAT     H227234   1.217   1.697   5.324
 8998WAT      O27235   0.673   0.570   0.941
 8998WAT     H127236   0.708   0.541   0.851
 8998WAT     H227237   0.657   0.669   0.940
 8999WAT      O27238   1.947   5.276   5.813
 8999WAT     H127239   1.997   5.266   5.899
 8999WAT     H227240   1.917   5.186   5.781
 9000WAT      O27241   1.735   7.770   2.916
 9000WAT     H127242   1.700   7.781   2.822
 9000WAT     H227243   1.815   7.828   2.928
 9001WAT      O27244   0.752   1.310   1.200
 9001WAT     H127245   0.847   1.324   1.229
 9001WAT     H227246   0.751   1.255   1.117
 9002WAT      O27247   7.628   9.839   8.510
 9002WAT     H127248   7.706   9.808   8.456
 9002WAT     H227249   7.546   9.839   8.453
 9003WAT      O27250   8.147   4.536   4.361
 9003WAT     H127251   8.183   4.629   4.356
 9003WAT     H227252   8.047   4.538   4.359
 9004WAT      O27253   3.455   0.853   5.541
 9004WAT     H127254   3.407   0.912   5.476
 9004WAT     H227255   3.545   0.829   5.505
 9005WAT      O27256   4.760   5.651   9.207
 9005WAT     H127257   4.711   5.629   9.123
 9005WAT     H227258   4.702   5.631   9.286
 9006WAT      O27259   1.059   8.477   7.845
 9006WAT     H127260   1.064   8.481   7.745
 9006WAT     H227261   0.978   8.425   7.872
 9007WAT      O27262   1.325   5.843   7.890
 9007WAT     H127263   1.255   5.807   7.827
 9007WAT     H227264   1.404   5.782   7.890
 9008WAT      O27265   6.713   6.695   7.424
 9008WAT     H127266   6.737   6.665   7.516
 9008WAT     H227267   6.658   6.779   7.430
 9009WAT      O27268   9.352   1.328   9.481
 9009WAT     H127269   9.451   1.346   9.474
 9009WAT     H227270   9.302   1.409   9.452
 9010WAT      O27271   9.732   0.854   4.715
 9010WAT     H127272   9.704   0.767   4.675
 9010WAT     H227273   9.670   0.926   4.684
 9011WAT      O27274   4.139   3.127   1.683
 9011WAT     H127275   4.239   3.122   1.684
 9011WAT     H227276   4.103   3.086   1.766
 9012WAT      O27277   4.788   3.922   0.045
 9012WAT     H127278   4.786   3.839   0.100
 9012WAT     H227279   4.701   3.933  -0.003
 9013WAT      O27280   3.737   9.438   8.949
 9013WAT     H127281   3.779   9.522   8.985
 9013WAT     H227282   3.776   9.418   8.860
 9014WAT      O27283   9.402   6.061   4.548
 9014WAT     H127284   9.469   5.986   4.551
 9014WAT     H227285   9.345   6.059   4.630
 9015WAT      O27286   2.393   6.209   2.320
 9015WAT     H127287   2.455   6.277   2.359
 9015WAT     H227288   2.426   6.117   2.341
 9016WAT      O27289   2.460   3.422   5.107
 9016WAT     H127290   2.385   3.391   5.165
 9016WAT     H227291   2.546   3.418   5.158
 9017WAT      O27292   2.022   2.043   3.273
 9017WAT     H127293   2.039   1.946   3.257
 9017WAT     H227294   2.047   2.095   3.191
 9018WAT      O27295   1.836   6.028   2.862
 9018WAT     H127296   1.765   6.008   2.794
 9018WAT     H227297   1.856   5.946   2.914
 9019WAT      O27298   2.483   7.898   8.099
 9019WAT     H127299   2.466   7.830   8.027
 9019WAT     H227300   2.519   7.982   8.057
 9020WAT      O27301   1.409   0.705   0.829
 9020WAT     H127302   1.457   0.638   0.886
 9020WAT     H227303   1.432   0.797   0.860
 9021WAT      O27304   4.080   3.159   3.936
 9021WAT     H127305   4.032   3.076   3.908
 9021WAT     H227306   4.178   3.140   3.941
 9022WAT      O27307   1.351   4.392   4.667
 9022WAT     H127308   1.320   4.326   4.736
 9022WAT     H227309   1.444   4.421   4.690
 9023WAT      O27310   9.297   7.183   7.971
 9023WAT     H127311   9.260   7.152   7.883
 9023WAT     H227312   9.258   7.128   8.045
 9024WAT      O27313   0.546   5.918   1.504
 9024WAT     H127314   0.456   5.909   1.462
 9024WAT     H227315   0.579   5.828   1.532
 9025WAT      O27316   8.809   1.552   9.453
 9025WAT     H127317   8.782   1.531   9.547
 9025WAT     H227318   8.908   1.547   9.444
 9026WAT      O27319   7.479   7.089   6.987
 9026WAT     H127320   7.423   7.152   6.935
 9026WAT     H227321   7.421   7.036   7.049
 9027WAT      O27322   0.885   2.984   5.169
 9027WAT     H127323   0.812   3.018   5.228
 9027WAT     H227324   0.938   3.061   5.133
 9028WAT      O27325   0.379   5.315   6.322
 9028WAT     H127326   0.319   5.383   6.280
 9028WAT     H227327   0.403   5.245   6.254
 9029WAT      O27328   9.163   2.190   6.729
 9029WAT     H127329   9.065   2.186   6.709
 9029WAT     H227330   9.180   2.153   6.821
 9030WAT      O27331   0.386   6.750   0.200
 9030WAT     H127332   0.449   6.813   0.246
 9030WAT     H227333   0.345   6.797   0.122
 9031WAT      O27334   9.137   3.971   0.121
 9031WAT     H127335   9.225   4.017   0.110
 9031WAT     H227336   9.152   3.877   0.151
 9032WAT      O27337   7.616   8.278   4.303
 9032WAT     H127338   7.520   8.290   4.332
 9032WAT     H227339   7.671   8.352   4.340
 9033WAT      O27340   0.173   3.536   1.269
 9033WAT     H127341   0.206   3.452   1.224
 9033WAT     H227342   0.216   3.544   1.359
 9034WAT      O27343   4.393   8.610   4.854
 9034WAT     H127344   4.419   8.702   4.823
 9034WAT     H227345   4.413   8.544   4.782
 9035WAT      O27346   5.846   9.450   3.775
 9035WAT     H127347   5.782   9.437   3.852
 9035WAT     H227348   5.794   9.457   3.690
 9036WAT      O27349   7.391   4.387   3.219
 9036WAT     H127350   7.419   4.291   3.215
 9036WAT     H227351   7.308   4.396   3.274
 9037WAT      O27352   1.015   9.772   0.377
 9037WAT     H127353   1.108   9.736   0.374
 9037WAT     H227354   0.991   9.807   0.286
 9038WAT      O27355   2.488   1.000   2.459
 9038WAT     H127356   2.418   1.011   2.388
 9038WAT     H227357   2.578   1.014   2.419
 9039WAT      O27358   7.467   5.541   9.047
 9039WAT     H127359   7.567   5.530   9.047
 9039WAT     H227360   7.432   5.532   9.140
 9040WAT      O27361   7.653   7.886   8.588
 9040WAT     H127362   7.729   7.950   8.576
 9040WAT     H227363   7.677   7.817   8.657
 9041WAT      O27364   1.768   2.251   8.044
 9041WAT     H127365   1.730   2.290   8.128
 9041WAT     H227366   1.812   2.323   7.991
 9042WAT      O27367   2.491   0.888   0.681
 9042WAT     H127368   2.564   0.888   0.750
 9042WAT     H227369   2.451   0.980   0.677
 9043WAT      O27370   7.024   8.857   1.210
 9043WAT     H127371   7.014   8.940   1.265
 9043WAT     H227372   7.003   8.877   1.114
 9044WAT      O27373   0.519   1.713   2.008
 9044WAT     H127374   0.456   1.792   2.009
 9044WAT     H227375   0.545   1.690   2.101
 9045WAT      O27376   7.977   0.967   0.995
 9045WAT     H127377   7.922   0.962   0.911
 9045WAT     H227378   8.064   1.013   0.976
 9046WAT      O27379   2.230   4.884   2.801
 9046WAT     H127380   2.254   4.819   2.728
 9046WAT     H227381   2.223   4.976   2.762
 9047WAT      O27382   8.461   8.842   3.435
 9047WAT     H127383   8.528   8.788   3.384
 9047WAT     H227384   8.417   8.907   3.374
 9048WAT      O27385   5.114   1.430   8.163
 9048WAT     H127386   5.066   1.496   8.105
 9048WAT     H227387   5.123   1.343   8.114
 9049WAT      O27388   3.266   3.368   8.186
 9049WAT     H127389   3.196   3.379   8.257
 9049WAT     H227390   3.349   3.416   8.213
 9050WAT      O27391   3.407   6.238   1.552
 9050WAT     H127392   3.439   6.144   1.546
 9050WAT     H227393   3.322   6.248   1.500
 9051WAT      O27394   6.959   6.133   0.296
 9051WAT     H127395   6.922   6.161   0.207
 9051WAT     H227396   6.933   6.039   0.315
 9052WAT      O27397   9.136   7.776   9.124
 9052WAT     H127398   9.157   7.734   9.036
 9052WAT     H227399   9.142   7.875   9.117
 9053WAT      O27400   6.418   5.394   7.396
 9053WAT     H127401   6.435   5.479   7.445
 9053WAT     H227402   6.357   5.413   7.318
 9054WAT      O27403   7.271   9.821   5.973
 9054WAT     H127404   7.349   9.849   6.029
 9054WAT     H227405   7.214   9.757   6.025
 9055WAT      O27406   3.430   4.994   7.113
 9055WAT     H127407   3.361   4.938   7.159
 9055WAT     H227408   3.522   4.963   7.139
 9056WAT      O27409   3.479   0.939   8.548
 9056WAT     H127410   3.560   0.998   8.547
 9056WAT     H227411   3.505   0.846   8.523
 9057WAT      O27412   2.458   4.563   2.062
 9057WAT     H127413   2.521   4.504   2.113
 9057WAT     H227414   2.489   4.658   2.068
 9058WAT      O27415   1.150   5.170   6.520
 9058WAT     H127416   1.219   5.236   6.550
 9058WAT     H227417   1.061   5.196   6.556
 9059WAT      O27418   8.505   2.193   8.964
 9059WAT     H127419   8.508   2.149   8.875
 9059WAT     H227420   8.415   2.180   9.005
 9060WAT      O27421   0.784   6.323   6.020
 9060WAT     H127422   0.880   6.348   6.006
 9060WAT     H227423   0.735   6.400   6.061
 9061WAT      O27424   8.578   7.389   2.616
 9061WAT     H127425   8.599   7.470   2.670
 9061WAT     H227426   8.651   7.373   2.550
 9062WAT      O27427   7.553   8.635   6.646
 9062WAT     H127428   7.618   8.599   6.711
 9062WAT     H227429   7.496   8.705   6.690
 9063WAT      O27430   5.102   0.984   1.534
 9063WAT     H127431   5.124   0.964   1.439
 9063WAT     H227432   5.180   0.958   1.592
 9064WAT      O27433   8.172   9.842   6.327
 9064WAT     H127434   8.117   9.842   6.410
 9064WAT     H227435   8.255   9.789   6.341
 9065WAT      O27436   0.829   7.637   3.273
 9065WAT     H127437   0.822   7.545   3.311
 9065WAT     H227438   0.749   7.691   3.300
 9066WAT      O27439   0.308   5.210   3.018
 9066WAT     H127440   0.258   5.275   3.075
 9066WAT     H227441   0.385   5.172   3.070
 9067WAT      O27442   3.127   1.952   9.059
 9067WAT     H127443   3.148   2.049   9.061
 9067WAT     H227444   3.130   1.919   8.964
 9068WAT      O27445   8.513   0.727   3.975
 9068WAT     H127446   8.498   0.665   4.052
 9068WAT     H227447   8.491   0.680   3.889
 9069WAT      O27448   6.970   0.086   1.775
 9069WAT     H127449   6.911   0.006   1.784
 9069WAT     H227450   7.003   0.114   1.865
 9070WAT      O27451   3.674   9.643   3.013
 9070WAT     H127452   3.724   9.728   3.025
 9070WAT     H227453   3.734   9.574   2.972
 9071WAT      O27454   6.989   0.537   1.999
 9071WAT     H127455   6.907   0.481   1.994
 9071WAT     H227456   6.993   0.583   2.088
 9072WAT      O27457   5.394   8.575   6.990
 9072WAT     H127458   5.387   8.663   6.943
 9072WAT     H227459   5.489   8.560   7.020
 9073WAT      O27460   1.192   0.810   9.019
 9073WAT     H127461   1.234   0.753   8.949
 9073WAT     H227462   1.135   0.880   8.975
 9074WAT      O27463   4.082   0.139   5.541
 9074WAT     H127464   4.140   0.082   5.600
 9074WAT     H227465   4.136   0.216   5.506
 9075WAT      O27466   5.663   0.548   9.744
 9075WAT     H127467   5.589   0.609   9.770
 9075WAT     H227468   5.694   0.570   9.652
 9076WAT      O27469   7.985   3.786   8.013
 9076WAT     H127470   8.060   3.837   8.056
 9076WAT     H227471   7.914   3.768   8.081
 9077WAT      O27472   8.817   7.564   0.775
 9077WAT     H127473   8.910   7.528   0.767
 9077WAT     H227474   8.818   7.648   0.830
 9078WAT      O27475   0.348   6.897   2.617
 9078WAT     H127476   0.305   6.981   2.651
 9078WAT     H227477   0.310   6.874   2.527
 9079WAT      O27478   5.347   5.573   1.829
 9079WAT     H127479   5.281   5.605   1.898
 9079WAT     H227480   5.300   5.514   1.763
 9080WAT      O27481   5.641   5.451   1.128
 9080WAT     H127482   5.624   5.353   1.135
 9080WAT     H227483   5.643   5.491   1.220
 9081WAT      O27484   4.458   8.818   0.163
 9081WAT     H127485   4.530   8.885   0.147
 9081WAT     H227486   4.494   8.743   0.219
 9082WAT      O27487   0.356   8.655   6.762
 9082WAT     H127488   0.388   8.604   6.682
 9082WAT     H227489   0.258   8.641   6.775
 9083WAT      O27490   9.556   2.996   0.133
 9083WAT     H127491   9.559   2.902   0.167
 9083WAT     H227492   9.648   3.023   0.104
 9084WAT      O27493   0.396   1.521   6.223
 9084WAT     H127494   0.433   1.613   6.215
 9084WAT     H227495   0.350   1.511   6.312
 9085WAT      O27496   4.287   5.209   1.889
 9085WAT     H127497   4.230   5.247   1.817
 9085WAT     H227498   4.243   5.128   1.928
 9086WAT      O27499   9.392   0.542   5.967
 9086WAT     H127500   9.453   0.594   6.028
 9086WAT     H227501   9.425   0.448   5.959
 9087WAT      O27502   2.909   2.139   8.015
 9087WAT     H127503   2.936   2.179   8.102
 9087WAT     H227504   2.955   2.187   7.940
 9088WAT      O27505   5.107   3.773   9.751
 9088WAT     H127506   5.051   3.822   9.684
 9088WAT     H227507   5.175   3.718   9.702
 9089WAT      O27508   3.803   0.087   0.754
 9089WAT     H127509   3.733   0.031   0.710
 9089WAT     H227510   3.840   0.038   0.833
 9090WAT      O27511   9.309   1.849   7.545
 9090WAT     H127512   9.327   1.833   7.448
 9090WAT     H227513   9.227   1.798   7.573
 9091WAT      O27514   8.739   9.579   6.233
 9091WAT     H127515   8.748   9.593   6.134
 9091WAT     H227516   8.642   9.569   6.256
 9092WAT      O27517   0.790   4.426   1.058
 9092WAT     H127518   0.705   4.459   1.100
 9092WAT     H227519   0.850   4.504   1.038
 9093WAT      O27520   6.749   6.695   0.040
 9093WAT     H127521   6.813   6.755  -0.006
 9093WAT     H227522   6.662   6.694  -0.009
 9094WAT      O27523   0.628   7.816   5.015
 9094WAT     H127524   0.704   7.807   4.951
 9094WAT     H227525   0.619   7.911   5.043
 9095WAT      O27526   5.459   9.122   1.921
 9095WAT     H127527   5.513   9.110   1.838
 9095WAT     H227528   5.515   9.100   2.001
 9096WAT      O27529   9.463   6.139   8.151
 9096WAT     H127530   9.452   6.062   8.088
 9096WAT     H227531   9.524   6.206   8.111
 9097WAT      O27532   5.996   9.008   2.317
 9097WAT     H127533   5.962   8.915   2.305
 9097WAT     H227534   6.001   9.054   2.228
 9098WAT      O27535   1.384   0.873   3.352
 9098WAT     H127536   1.405   0.853   3.448
 9098WAT     H227537   1.449   0.826   3.293
 9099WAT      O27538   7.070   3.452   4.921
 9099WAT     H127539   7.078   3.411   4.830
 9099WAT     H227540   7.049   3.381   4.988
 9100WAT      O27541   4.848   9.836   2.854
 9100WAT     H127542   4.773   9.782   2.816
 9100WAT     H227543   4.824   9.866   2.946
 9101WAT      O27544   4.774   4.475   0.163
 9101WAT     H127545   4.727   4.430   0.239
 9101WAT     H227546   4.825   4.554   0.197
 9102WAT      O27547   9.817   1.828   1.965
 9102WAT     H127548   9.785   1.737   1.989
 9102WAT     H227549   9.744   1.895   1.983
 9103WAT      O27550   2.688   2.813   4.379
 9103WAT     H127551   2.648   2.903   4.396
 9103WAT     H227552   2.741   2.784   4.459
 9104WAT      O27553   0.215   5.112   7.147
 9104WAT     H127554   0.139   5.083   7.206
 9104WAT     H227555   0.232   5.041   7.079
 9105WAT      O27556   3.381   6.922   6.389
 9105WAT     H127557   3.284   6.918   6.415
 9105WAT     H227558   3.392   6.880   6.299
 9106WAT      O27559   9.080   4.192   8.637
 9106WAT     H127560   9.042   4.260   8.575
 9106WAT     H227561   9.179   4.197   8.635
 9107WAT      O27562   1.056   6.597   1.587
 9107WAT     H127563   1.023   6.662   1.656
 9107WAT     H227564   1.131   6.543   1.626
 9108WAT      O27565   5.197   1.589   4.967
 9108WAT     H127566   5.282   1.621   4.927
 9108WAT     H227567   5.146   1.667   5.004
 9109WAT      O27568   4.364   7.461   5.088
 9109WAT     H127569   4.311   7.409   5.022
 9109WAT     H227570   4.413   7.534   5.041
 9110WAT      O27571   1.212   6.953   8.405
 9110WAT     H127572   1.271   6.937   8.483
 9110WAT     H227573   1.206   7.051   8.386
 9111WAT      O27574   5.341   3.454   1.823
 9111WAT     H127575   5.435   3.486   1.828
 9111WAT     H227576   5.300   3.483   1.737
 9112WAT      O27577   3.547   1.897   5.559
 9112WAT     H127578   3.592   1.881   5.471
 9112WAT     H227579   3.615   1.898   5.632
 9113WAT      O27580   2.089   0.635   3.279
 9113WAT     H127581   2.021   0.563   3.268
 9113WAT     H227582   2.051   0.723   3.249
 9114WAT      O27583   8.009   5.540   0.717
 9114WAT     H127584   8.044   5.454   0.753
 9114WAT     H227585   8.082   5.589   0.669
 9115WAT      O27586   7.906   4.658   1.939
 9115WAT     H127587   7.914   4.671   2.038
 9115WAT     H227588   7.981   4.703   1.892
 9116WAT      O27589   2.087   0.298   5.426
 9116WAT     H127590   2.029   0.374   5.458
 9116WAT     H227591   2.131   0.324   5.340
 9117WAT      O27592   7.087   1.407   4.376
 9117WAT     H127593   7.183   1.416   4.404
 9117WAT     H227594   7.031   1.470   4.429
 9118WAT      O27595   2.008   1.982   6.123
 9118WAT     H127596   1.964   1.916   6.062
 9118WAT     H227597   1.999   2.074   6.085
 9119WAT      O27598   7.856   3.097   0.962
 9119WAT     H127599   7.793   3.096   1.040
 9119WAT     H227600   7.942   3.053   0.987
 9120WAT      O27601   7.548   4.017   0.476
 9120WAT     H127602   7.459   3.975   0.494
 9120WAT     H227603   7.621   3.957   0.510
 9121WAT      O27604   1.064   9.457   8.037
 9121WAT     H127605   1.161   9.446   8.060
 9121WAT     H227606   1.042   9.554   8.028
 9122WAT      O27607   6.676   3.650   0.687
 9122WAT     H127608   6.715   3.724   0.632
 9122WAT     H227609   6.664   3.682   0.781
 9123WAT      O27610   3.480   4.893   2.150
 9123WAT     H127611   3.580   4.899   2.144
 9123WAT     H227612   3.448   4.819   2.091
 9124WAT      O27613   4.770   0.681   6.445
 9124WAT     H127614   4.730   0.769   6.471
 9124WAT     H227615   4.717   0.641   6.370
 9125WAT      O27616   0.769   0.877   3.229
 9125WAT     H127617   0.860   0.837   3.241
 9125WAT     H227618   0.777   0.977   3.227
 9126WAT      O27619   4.116   9.605   1.822
 9126WAT     H127620   4.190   9.588   1.758
 9126WAT     H227621   4.154   9.632   1.911
 9127WAT      O27622   4.655   6.564   4.207
 9127WAT     H127623   4.570   6.532   4.248
 9127WAT     H227624   4.720   6.488   4.202
 9128WAT      O27625   6.982   0.251   7.292
 9128WAT     H127626   7.024   0.202   7.216
 9128WAT     H227627   7.041   0.326   7.321
 9129WAT      O27628   9.434   2.598   0.365
 9129WAT     H127629   9.362   2.664   0.389
 9129WAT     H227630   9.515   2.646   0.333
 9130WAT      O27631   7.503   4.884   8.309
 9130WAT     H127632   7.505   4.786   8.289
 9130WAT     H227633   7.432   4.903   8.377
 9131WAT      O27634   7.584   6.712   1.792
 9131WAT     H127635   7.532   6.630   1.769
 9131WAT     H227636   7.530   6.793   1.769
 9132WAT      O27637   0.409   6.307   3.019
 9132WAT     H127638   0.505   6.285   3.005
 9132WAT     H227639   0.402   6.396   3.065
 9133WAT      O27640   8.286   3.294   7.276
 9133WAT     H127641   8.213   3.296   7.345
 9133WAT     H227642   8.260   3.231   7.202
 9134WAT      O27643   2.783   9.679   1.889
 9134WAT     H127644   2.870   9.639   1.861
 9134WAT     H227645   2.708   9.619   1.861
 9135WAT      O27646   0.482   3.765   2.377
 9135WAT     H127647   0.559   3.766   2.313
 9135WAT     H227648   0.465   3.672   2.408
 9136WAT      O27649   6.970   4.447   6.083
 9136WAT     H127650   7.025   4.481   6.007
 9136WAT     H227651   7.023   4.454   6.168
 9137WAT      O27652   0.741   8.551   4.310
 9137WAT     H127653   0.753   8.489   4.233
 9137WAT     H227654   0.676   8.511   4.375
 9138WAT      O27655   8.971   2.330   9.777
 9138WAT     H127656   8.931   2.400   9.719
 9138WAT     H227657   9.070   2.338   9.776
 9139WAT      O27658   2.692   3.649   8.530
 9139WAT     H127659   2.761   3.720   8.521
 9139WAT     H227660   2.724   3.580   8.595
 9140WAT      O27661   4.681   9.811   5.663
 9140WAT     H127662   4.715   9.755   5.587
 9140WAT     H227663   4.635   9.752   5.730
 9141WAT      O27664   5.744   8.365   3.711
 9141WAT     H127665   5.799   8.282   3.714
 9141WAT     H227666   5.763   8.421   3.792
 9142WAT      O27667   4.158   5.521   7.710
 9142WAT     H127668   4.129   5.616   7.694
 9142WAT     H227669   4.152   5.502   7.808
 9143WAT      O27670   2.985   5.147   7.692
 9143WAT     H127671   2.995   5.183   7.785
 9143WAT     H227672   2.887   5.137   7.672
 9144WAT      O27673   1.550   4.286   9.170
 9144WAT     H127674   1.529   4.373   9.216
 9144WAT     H227675   1.552   4.213   9.238
 9145WAT      O27676   3.601   7.997   6.645
 9145WAT     H127677   3.526   7.943   6.608
 9145WAT     H227678   3.601   7.990   6.745
 9146WAT      O27679   4.286   1.142   6.620
 9146WAT     H127680   4.355   1.110   6.554
 9146WAT     H227681   4.325   1.143   6.712
 9147WAT      O27682   4.056   5.761   6.610
 9147WAT     H127683   4.086   5.786   6.518
 9147WAT     H227684   3.957   5.744   6.609
 9148WAT      O27685   7.583   2.560   7.004
 9148WAT     H127686   7.511   2.509   7.051
 9148WAT     H227687   7.627   2.500   6.937
 9149WAT      O27688   1.083   3.148   4.838
 9149WAT     H127689   1.027   3.230   4.824
 9149WAT     H227690   1.164   3.152   4.781
 9150WAT      O27691   6.830   9.439   6.946
 9150WAT     H127692   6.879   9.389   7.018
 9150WAT     H227693   6.809   9.532   6.978
 9151WAT      O27694   4.910   8.984   8.222
 9151WAT     H127695   4.985   8.922   8.246
 9151WAT     H227696   4.826   8.952   8.266
 9152WAT      O27697   0.154   0.162   1.163
 9152WAT     H127698   0.182   0.191   1.254
 9152WAT     H227699   0.122   0.241   1.111
 9153WAT      O27700   3.526   0.588   9.451
 9153WAT     H127701   3.474   0.532   9.387
 9153WAT     H227702   3.463   0.631   9.516
 9154WAT      O27703   6.229   4.528   4.213
 9154WAT     H127704   6.270   4.507   4.124
 9154WAT     H227705   6.164   4.603   4.204
 9155WAT      O27706   4.815   5.537   1.510
 9155WAT     H127707   4.874   5.461   1.535
 9155WAT     H227708   4.728   5.530   1.559
 9156WAT      O27709   2.298   3.811   2.415
 9156WAT     H127710   2.230   3.831   2.486
 9156WAT     H227711   2.387   3.847   2.444
 9157WAT      O27712   5.184   1.698   9.510
 9157WAT     H127713   5.159   1.767   9.577
 9157WAT     H227714   5.109   1.686   9.445
 9158WAT      O27715   8.387   1.253   5.590
 9158WAT     H127716   8.292   1.280   5.598
 9158WAT     H227717   8.393   1.157   5.563
 9159WAT      O27718   3.262   9.599   8.156
 9159WAT     H127719   3.299   9.516   8.115
 9159WAT     H227720   3.303   9.613   8.246
 9160WAT      O27721   1.401   3.526   8.998
 9160WAT     H127722   1.320   3.534   9.056
 9160WAT     H227723   1.476   3.486   9.050
 9161WAT      O27724   5.602   2.617   3.683
 9161WAT     H127725   5.571   2.598   3.590
 9161WAT     H227726   5.525   2.613   3.746
 9162WAT      O27727   7.876   0.113   2.496
 9162WAT     H127728   7.782   0.108   2.463
 9162WAT     H227729   7.885   0.190   2.558
 9163WAT      O27730   5.635   0.788   5.208
 9163WAT     H127731   5.613   0.862   5.145
 9163WAT     H227732   5.725   0.751   5.185
 9164WAT      O27733   4.620   5.871   7.450
 9164WAT     H127734   4.611   5.970   7.461
 9164WAT     H227735   4.673   5.834   7.526
 9165WAT      O27736   0.982   6.569   2.352
 9165WAT     H127737   1.004   6.648   2.408
 9165WAT     H227738   0.984   6.595   2.255
 9166WAT      O27739   8.550   0.923   9.688
 9166WAT     H127740   8.643   0.892   9.667
 9166WAT     H227741   8.487   0.889   9.618
 9167WAT      O27742   4.416   8.245   5.282
 9167WAT     H127743   4.399   8.253   5.183
 9167WAT     H227744   4.439   8.150   5.303
 9168WAT      O27745   5.898   1.096   6.521
 9168WAT     H127746   5.947   1.180   6.545
 9168WAT     H227747   5.895   1.035   6.600
 9169WAT      O27748   9.663   9.449   4.365
 9169WAT     H127749   9.721   9.387   4.313
 9169WAT     H227750   9.666   9.540   4.324
 9170WAT      O27751   9.005   7.614   6.108
 9170WAT     H127752   8.943   7.680   6.066
 9170WAT     H227753   9.023   7.641   6.203
 9171WAT      O27754   4.012   7.578   4.892
 9171WAT     H127755   3.955   7.616   4.818
 9171WAT     H227756   4.093   7.635   4.904
 9172WAT      O27757   8.664   8.987   9.306
 9172WAT     H127758   8.614   9.017   9.387
 9172WAT     H227759   8.755   9.030   9.305
 9173WAT      O27760   9.689   3.275   4.920
 9173WAT     H127761   9.694   3.373   4.897
 9173WAT     H227762   9.646   3.226   4.844
 9174WAT      O27763   2.129   9.500   9.163
 9174WAT     H127764   2.217   9.453   9.171
 9174WAT     H227765   2.123   9.571   9.233
 9175WAT      O27766   1.238   8.375   0.846
 9175WAT     H127767   1.169   8.370   0.774
 9175WAT     H227768   1.317   8.319   0.821
 9176WAT      O27769   5.649   0.387   6.304
 9176WAT     H127770   5.628   0.435   6.219
 9176WAT     H227771   5.667   0.291   6.284
 9177WAT      O27772   7.762   9.760   3.731
 9177WAT     H127773   7.754   9.790   3.636
 9177WAT     H227774   7.857   9.734   3.749
 9178WAT      O27775   6.433   6.711   0.777
 9178WAT     H127776   6.480   6.707   0.866
 9178WAT     H227777   6.437   6.804   0.742
 9179WAT      O27778   7.750   5.432   4.663
 9179WAT     H127779   7.804   5.385   4.594
 9179WAT     H227780   7.692   5.366   4.712
 9180WAT      O27781   7.083   6.498   7.435
 9180WAT     H127782   7.069   6.519   7.338
 9180WAT     H227783   7.010   6.437   7.466
 9181WAT      O27784   6.672   6.131   2.580
 9181WAT     H127785   6.677   6.046   2.528
 9181WAT     H227786   6.579   6.143   2.616
 9182WAT      O27787   5.453   2.771   7.534
 9182WAT     H127788   5.420   2.851   7.585
 9182WAT     H227789   5.455   2.793   7.437
 9183WAT      O27790   7.181   2.719   3.254
 9183WAT     H127791   7.225   2.714   3.164
 9183WAT     H227792   7.218   2.795   3.306
 9184WAT      O27793   2.986   3.540   7.237
 9184WAT     H127794   3.064   3.598   7.262
 9184WAT     H227795   2.960   3.484   7.316
 9185WAT      O27796   9.355   3.898   2.191
 9185WAT     H127797   9.367   3.875   2.095
 9185WAT     H227798   9.311   3.988   2.199
 9186WAT      O27799   7.961   5.272   3.206
 9186WAT     H127800   8.040   5.333   3.195
 9186WAT     H227801   7.881   5.326   3.231
 9187WAT      O27802   6.315   4.881   4.896
 9187WAT     H127803   6.217   4.875   4.876
 9187WAT     H227804   6.352   4.789   4.905
 9188WAT      O27805   1.375   1.087   3.185
 9188WAT     H127806   1.393   1.009   3.245
 9188WAT     H227807   1.366   1.170   3.240
 9189WAT      O27808   9.812   1.112   4.146
 9189WAT     H127809   9.766   1.059   4.075
 9189WAT     H227810   9.892   1.062   4.178
 9190WAT      O27811   0.520   3.206   4.595
 9190WAT     H127812   0.514   3.152   4.679
 9190WAT     H227813   0.488   3.299   4.613
 9191WAT      O27814   8.234   1.618   4.816
 9191WAT     H127815   8.317   1.649   4.769
 9191WAT     H227816   8.248   1.525   4.849
 9192WAT      O27817   5.680   2.590   8.176
 9192WAT     H127818   5.751   2.637   8.122
 9192WAT     H227819   5.692   2.610   8.273
 9193WAT      O27820   8.856   8.583   9.771
 9193WAT     H127821   8.916   8.578   9.691
 9193WAT     H227822   8.780   8.519   9.759
 9194WAT      O27823   7.520   2.453   8.514
 9194WAT     H127824   7.511   2.535   8.570
 9194WAT     H227825   7.593   2.395   8.551
 9195WAT      O27826   6.308   4.164   6.112
 9195WAT     H127827   6.286   4.217   6.030
 9195WAT     H227828   6.396   4.193   6.149
 9196WAT      O27829   6.748   4.400   4.097
 9196WAT     H127830   6.684   4.433   4.027
 9196WAT     H227831   6.831   4.366   4.052
 9197WAT      O27832   1.948   7.988   1.366
 9197WAT     H127833   1.994   7.903   1.341
 9197WAT     H227834   1.849   7.976   1.358
 9198WAT      O27835   5.569   5.641   7.455
 9198WAT     H127836   5.603   5.597   7.372
 9198WAT     H227837   5.621   5.607   7.534
 9199WAT      O27838   7.168   2.486   8.082
 9199WAT     H127839   7.179   2.501   8.181
 9199WAT     H227840   7.124   2.398   8.067
 9200WAT      O27841   4.196   7.147   6.458
 9200WAT     H127842   4.193   7.118   6.554
 9200WAT     H227843   4.169   7.071   6.399
 9201WAT      O27844   7.581   6.132   0.637
 9201WAT     H127845   7.652   6.193   0.671
 9201WAT     H227846   7.603   6.104   0.543
 9202WAT      O27847   7.852   7.246   3.719
 9202WAT     H127848   7.849   7.157   3.674
 9202WAT     H227849   7.826   7.317   3.654
 9203WAT      O27850   2.592   9.407   7.883
 9203WAT     H127851   2.572   9.493   7.931
 9203WAT     H227852   2.571   9.330   7.944
 9204WAT      O27853   6.942   2.517   0.261
 9204WAT     H127854   6.949   2.537   0.163
 9204WAT     H227855   6.863   2.457   0.277
 9205WAT      O27856   5.927   6.700   1.166
 9205WAT     H127857   5.967   6.639   1.097
 9205WAT     H227858   5.938   6.661   1.257
 9206WAT      O27859   8.394   7.346   6.993
 9206WAT     H127860   8.378   7.443   6.979
 9206WAT     H227861   8.308   7.301   7.018
 9207WAT      O27862   5.638   9.049   2.098
 9207WAT     H127863   5.644   9.004   2.187
 9207WAT     H227864   5.703   9.007   2.034
 9208WAT      O27865   6.529   8.402   1.233
 9208WAT     H127866   6.611   8.452   1.204
 9208WAT     H227867   6.555   8.325   1.290
 9209WAT      O27868   6.686   3.607   6.642
 9209WAT     H127869   6.691   3.699   6.602
 9209WAT     H227870   6.674   3.614   6.741
 9210WAT      O27871   0.423   1.859   9.312
 9210WAT     H127872   0.324   1.873   9.304
 9210WAT     H227873   0.441   1.791   9.384
 9211WAT      O27874   7.285   8.257   9.050
 9211WAT     H127875   7.276   8.311   8.967
 9211WAT     H227876   7.308   8.163   9.027
 9212WAT      O27877   8.184   0.099   8.713
 9212WAT     H127878   8.098   0.147   8.697
 9212WAT     H227879   8.168   0.000   8.708
 9213WAT      O27880   0.062   6.411   1.657
 9213WAT     H127881   0.028   6.488   1.711
 9213WAT     H227882   0.125   6.357   1.712
 9214WAT      O27883   1.953   6.461   2.884
 9214WAT     H127884   2.047   6.439   2.859
 9214WAT     H227885   1.890   6.405   2.829
 9215WAT      O27886   2.631   1.700   9.679
 9215WAT     H127887   2.616   1.616   9.626
 9215WAT     H227888   2.674   1.677   9.766
 9216WAT      O27889   3.564   9.804   1.602
 9216WAT     H127890   3.491   9.863   1.635
 9216WAT     H227891   3.533   9.757   1.519
 9217WAT      O27892   1.442   0.585   6.179
 9217WAT     H127893   1.417   0.637   6.097
 9217WAT     H227894   1.497   0.643   6.239
 9218WAT      O27895   6.694   2.968   5.460
 9218WAT     H127896   6.633   3.042   5.431
 9218WAT     H227897   6.743   2.932   5.380
 9219WAT      O27898   1.684   6.382   8.273
 9219WAT     H127899   1.698   6.369   8.175
 9219WAT     H227900   1.740   6.459   8.304
 9220WAT      O27901   6.980   8.431   7.695
 9220WAT     H127902   6.912   8.358   7.688
 9220WAT     H227903   6.982   8.483   7.609
 9221WAT      O27904   1.708   1.744   3.307
 9221WAT     H127905   1.723   1.839   3.279
 9221WAT     H227906   1.684   1.689   3.226
 9222WAT      O27907   9.293   3.373   7.059
 9222WAT     H127908   9.348   3.445   7.103
 9222WAT     H227909   9.315   3.285   7.101
 9223WAT      O27910   9.623   5.254   9.700
 9223WAT     H127911   9.634   5.156   9.683
 9223WAT     H227912   9.706   5.289   9.744
 9224WAT      O27913   2.018   9.579   4.021
 9224WAT     H127914   1.925   9.611   4.038
 9224WAT     H227915   2.051   9.619   3.935
 9225WAT      O27916   7.313   3.319   7.303
 9225WAT     H127917   7.259   3.235   7.294
 9225WAT     H227918   7.391   3.302   7.364
 9226WAT      O27919   3.391   5.985   7.281
 9226WAT     H127920   3.330   6.055   7.244
 9226WAT     H227921   3.397   5.996   7.380
 9227WAT      O27922   3.703   6.000   8.552
 9227WAT     H127923   3.664   5.908   8.548
 9227WAT     H227924   3.777   6.007   8.485
 9228WAT      O27925   4.536   7.452   1.077
 9228WAT     H127926   4.599   7.517   1.034
 9228WAT     H227927   4.470   7.420   1.009
 9229WAT      O27928   6.649   9.596   1.359
 9229WAT     H127929   6.748   9.587   1.365
 9229WAT     H227930   6.625   9.693   1.353
 9230WAT      O27931   1.360   5.570   6.702
 9230WAT     H127932   1.270   5.582   6.744
 9230WAT     H227933   1.418   5.515   6.762
 9231WAT      O27934   2.496   6.979   5.470
 9231WAT     H127935   2.558   7.035   5.525
 9231WAT     H227936   2.480   7.024   5.382
 9232WAT      O27937   4.158   0.158   3.839
 9232WAT     H127938   4.112   0.160   3.750
 9232WAT     H227939   4.183   0.251   3.866
 9233WAT      O27940   9.001   8.595   0.742
 9233WAT     H127941   9.101   8.591   0.732
 9233WAT     H227942   8.967   8.503   0.764
 9234WAT      O27943   8.938   8.705   3.278
 9234WAT     H127944   8.999   8.679   3.352
 9234WAT     H227945   8.969   8.792   3.238
 9235WAT      O27946   7.604   1.951   1.054
 9235WAT     H127947   7.654   1.864   1.055
 9235WAT     H227948   7.654   2.017   0.997
 9236WAT      O27949   4.347   7.575   4.223
 9236WAT     H127950   4.289   7.512   4.274
 9236WAT     H227951   4.442   7.547   4.230
 9237WAT      O27952   4.366   4.564   4.286
 9237WAT     H127953   4.288   4.514   4.250
 9237WAT     H227954   4.346   4.593   4.379
 9238WAT      O27955   5.075   5.775   1.585
 9238WAT     H127956   5.072   5.695   1.645
 9238WAT     H227957   5.075   5.858   1.641
 9239WAT      O27958   6.868   5.095   3.844
 9239WAT     H127959   6.791   5.139   3.891
 9239WAT     H227960   6.849   5.092   3.746
 9240WAT      O27961   2.183   1.724   6.396
 9240WAT     H127962   2.217   1.798   6.338
 9240WAT     H227963   2.187   1.637   6.345
 9241WAT      O27964   5.017   6.273   2.574
 9241WAT     H127965   4.986   6.199   2.514
 9241WAT     H227966   4.974   6.263   2.664
 9242WAT      O27967   3.025   8.001   0.410
 9242WAT     H127968   3.116   7.960   0.409
 9242WAT     H227969   2.958   7.934   0.442
 9243WAT      O27970   0.961   5.835   5.999
 9243WAT     H127971   0.910   5.876   5.922
 9243WAT     H227972   0.901   5.773   6.049
 9244WAT      O27973   7.639   6.100   7.360
 9244WAT     H127974   7.558   6.042   7.373
 9244WAT     H227975   7.660   6.106   7.262
 9245WAT      O27976   1.449   7.536   4.571
 9245WAT     H127977   1.382   7.510   4.501
 9245WAT     H227978   1.404   7.546   4.659
 9246WAT      O27979   9.498   7.494   0.822
 9246WAT     H127980   9.552   7.416   0.789
 9246WAT     H227981   9.435   7.524   0.751
 9247WAT      O27982   1.062   3.668   2.589
 9247WAT     H127983   1.149   3.705   2.621
 9247WAT     H227984   0.988   3.702   2.646
 9248WAT      O27985   3.586   9.565   5.969
 9248WAT     H127986   3.500   9.590   6.012
 9248WAT     H227987   3.656   9.552   6.039
 9249WAT      O27988   8.816   3.398   3.152
 9249WAT     H127989   8.782   3.330   3.217
 9249WAT     H227990   8.768   3.390   3.065
 9250WAT      O27991   4.747   9.812   6.794
 9250WAT     H127992   4.682   9.810   6.718
 9250WAT     H227993   4.698   9.816   6.881
 9251WAT      O27994   0.249   3.784   6.274
 9251WAT     H127995   0.151   3.765   6.273
 9251WAT     H227996   0.299   3.705   6.240
 9252WAT      O27997   9.031   2.900   5.092
 9252WAT     H127998   9.112   2.892   5.149
 9252WAT     H227999   9.057   2.909   4.996
 9253WAT      O28000   2.222   9.373   7.922
 9253WAT     H128001   2.208   9.292   7.864
 9253WAT     H228002   2.241   9.452   7.864
 9254WAT      O28003   2.334   7.504   0.273
 9254WAT     H128004   2.273   7.582   0.289
 9254WAT     H228005   2.283   7.428   0.235
 9255WAT      O28006   3.617   2.487   1.057
 9255WAT     H128007   3.695   2.434   1.024
 9255WAT     H228008   3.648   2.571   1.100
 9256WAT      O28009   9.857   9.032   0.357
 9256WAT     H128010   9.929   8.992   0.414
 9256WAT     H228011   9.768   9.000   0.389
 9257WAT      O28012   8.046   4.598   2.511
 9257WAT     H128013   8.109   4.676   2.502
 9257WAT     H228014   7.959   4.630   2.549
 9258WAT      O28015   0.154   5.219   7.896
 9258WAT     H128016   0.191   5.311   7.908
 9258WAT     H228017   0.210   5.169   7.830
 9259WAT      O28018   9.245   7.027   0.086
 9259WAT     H128019   9.219   7.003  -0.008
 9259WAT     H228020   9.334   7.073   0.085
 9260WAT      O28021   9.619   7.788   8.446
 9260WAT     H128022   9.585   7.762   8.356
 9260WAT     H228023   9.542   7.812   8.506
 9261WAT      O28024   4.299   6.250   7.338
 9261WAT     H128025   4.235   6.326   7.327
 9261WAT     H228026   4.251   6.163   7.321
 9262WAT      O28027   8.540   2.150   5.221
 9262WAT     H128028   8.595   2.103   5.152
 9262WAT     H228029   8.596   2.219   5.266
 9263WAT      O28030   7.337   1.563   6.199
 9263WAT     H128031   7.407   1.560   6.270
 9263WAT     H228032   7.340   1.479   6.145
 9264WAT      O28033   6.471   2.914   5.949
 9264WAT     H128034   6.513   3.004   5.939
 9264WAT     H228035   6.397   2.920   6.016
 9265WAT      O28036   4.365   6.825   0.921
 9265WAT     H128037   4.268   6.801   0.921
 9265WAT     H228038   4.419   6.743   0.942
 9266WAT      O28039   2.485   1.332   7.357
 9266WAT     H128040   2.508   1.246   7.312
 9266WAT     H228041   2.549   1.403   7.327
 9267WAT      O28042   4.163   1.042   8.956
 9267WAT     H128043   4.193   1.047   9.051
 9267WAT     H228044   4.085   0.979   8.949
 9268WAT      O28045   4.318   9.055   1.019
 9268WAT     H128046   4.418   9.055   1.026
 9268WAT     H228047   4.281   9.117   1.088
 9269WAT      O28048   0.803   7.182   2.817
 9269WAT     H128049   0.858   7.246   2.764
 9269WAT     H228050   0.731   7.143   2.760
 9270WAT      O28051   3.706   2.777   2.696
 9270WAT     H128052   3.786   2.822   2.656
 9270WAT     H228053   3.624   2.827   2.668
 9271WAT      O28054   0.768   5.487   4.826
 9271WAT     H128055   0.789   5.465   4.921
 9271WAT     H228056   0.784   5.584   4.809
 9272WAT      O28057   7.357   9.727   0.560
 9272WAT     H128058   7.423   9.690   0.495
 9272WAT     H228059   7.359   9.827   0.557
 9273WAT      O28060   0.422   5.209   7.294
 9273WAT     H128061   0.384   5.205   7.387
 9273WAT     H228062   0.354   5.174   7.229
 9274WAT      O28063   2.369   1.272   1.882
 9274WAT     H128064   2.402   1.237   1.970
 9274WAT     H228065   2.270   1.285   1.886
 9275WAT      O28066   4.552   8.412   7.283
 9275WAT     H128067   4.452   8.406   7.286
 9275WAT     H228068   4.591   8.321   7.293
 9276WAT      O28069   5.781   4.200   9.733
 9276WAT     H128070   5.787   4.197   9.833
 9276WAT     H228071   5.859   4.250   9.696
 9277WAT      O28072   4.139   7.562   6.441
 9277WAT     H128073   4.210   7.632   6.431
 9277WAT     H228074   4.163   7.501   6.517
 9278WAT      O28075   7.466   7.269   9.514
 9278WAT     H128076   7.470   7.177   9.553
 9278WAT     H228077   7.461   7.262   9.414
 9279WAT      O28078   3.141   6.406   8.144
 9279WAT     H128079   3.107   6.448   8.228
 9279WAT     H228080   3.065   6.381   8.085
 9280WAT      O28081   4.005   7.576   9.634
 9280WAT     H128082   3.980   7.479   9.625
 9280WAT     H228083   4.043   7.592   9.725
 9281WAT      O28084   7.380   8.981   3.748
 9281WAT     H128085   7.377   9.067   3.697
 9281WAT     H228086   7.405   8.906   3.687
 9282WAT      O28087   0.934   3.436   7.914
 9282WAT     H128088   1.032   3.450   7.898
 9282WAT     H228089   0.881   3.499   7.857
 9283WAT      O28090   4.233   2.900   2.532
 9283WAT     H128091   4.276   2.818   2.571
 9283WAT     H228092   4.162   2.872   2.466
 9284WAT      O28093   7.601   2.603   8.096
 9284WAT     H128094   7.686   2.645   8.063
 9284WAT     H228095   7.544   2.578   8.019
 9285WAT      O28096   0.844   8.583   9.479
 9285WAT     H128097   0.780   8.646   9.435
 9285WAT     H228098   0.822   8.577   9.577
 9286WAT      O28099   5.251   8.339   4.584
 9286WAT     H128100   5.273   8.424   4.631
 9286WAT     H228101   5.319   8.269   4.609
 9287WAT      O28102   3.063   8.427   3.906
 9287WAT     H128103   3.103   8.456   3.992
 9287WAT     H228104   3.077   8.498   3.837
 9288WAT      O28105   0.019   2.980   4.510
 9288WAT     H128106  -0.068   3.027   4.493
 9288WAT     H228107   0.091   3.024   4.458
 9289WAT      O28108   4.346   4.561   9.793
 9289WAT     H128109   4.443   4.575   9.812
 9289WAT     H228110   4.292   4.580   9.875
 9290WAT      O28111   0.864   6.356   4.165
 9290WAT     H128112   0.895   6.439   4.213
 9290WAT     H228113   0.920   6.342   4.084
 9291WAT      O28114   4.135   9.811   9.110
 9291WAT     H128115   4.125   9.882   9.040
 9291WAT     H228116   4.054   9.811   9.169
 9292WAT      O28117   4.241   6.257   2.503
 9292WAT     H128118   4.186   6.174   2.499
 9292WAT     H228119   4.197   6.329   2.448
 9293WAT      O28120   9.176   3.267   0.883
 9293WAT     H128121   9.185   3.224   0.793
 9293WAT     H228122   9.229   3.215   0.950
 9294WAT      O28123   5.270   0.768   8.044
 9294WAT     H128124   5.281   0.762   8.143
 9294WAT     H228125   5.226   0.684   8.011
 9295WAT      O28126   2.185   1.824   5.039
 9295WAT     H128127   2.195   1.731   5.003
 9295WAT     H228128   2.261   1.880   5.007
 9296WAT      O28129   4.275   8.272   7.877
 9296WAT     H128130   4.189   8.290   7.926
 9296WAT     H228131   4.269   8.306   7.784
 9297WAT      O28132   0.671   9.287   1.649
 9297WAT     H128133   0.742   9.315   1.584
 9297WAT     H228134   0.703   9.305   1.742
 9298WAT      O28135   4.823   4.484   2.546
 9298WAT     H128136   4.906   4.480   2.602
 9298WAT     H228137   4.754   4.538   2.593
 9299WAT      O28138   3.023   5.030   5.488
 9299WAT     H128139   2.958   5.052   5.415
 9299WAT     H228140   3.005   5.088   5.567
 9300WAT      O28141   7.311   9.243   1.974
 9300WAT     H128142   7.297   9.285   1.885
 9300WAT     H228143   7.372   9.164   1.965
 9301WAT      O28144   3.867   2.595   3.394
 9301WAT     H128145   3.799   2.579   3.466
 9301WAT     H228146   3.902   2.688   3.400
 9302WAT      O28147   4.632   8.268   1.033
 9302WAT     H128148   4.666   8.331   1.102
 9302WAT     H228149   4.675   8.179   1.046
 9303WAT      O28150   2.572   5.490   2.422
 9303WAT     H128151   2.572   5.570   2.481
 9303WAT     H228152   2.482   5.481   2.378
 9304WAT      O28153   8.374   0.578   0.011
 9304WAT     H128154   8.298   0.584   0.076
 9304WAT     H228155   8.384   0.665  -0.037
 9305WAT      O28156   0.037   1.226   2.168
 9305WAT     H128157   0.120   1.282   2.169
 9305WAT     H228158   0.063   1.129   2.162
 9306WAT      O28159   9.470   2.114   1.088
 9306WAT     H128160   9.560   2.085   1.054
 9306WAT     H228161   9.470   2.212   1.103
 9307WAT      O28162   6.857   7.867   7.222
 9307WAT     H128163   6.887   7.803   7.151
 9307WAT     H228164   6.928   7.935   7.238
 9308WAT      O28165   7.722   2.881   4.055
 9308WAT     H128166   7.785   2.842   4.123
 9308WAT     H228167   7.669   2.954   4.097
 9309WAT      O28168   9.358   7.062   8.435
 9309WAT     H128169   9.338   7.020   8.523
 9309WAT     H228170   9.449   7.036   8.405
 9310WAT      O28171   3.351   5.448   6.379
 9310WAT     H128172   3.398   5.361   6.398
 9310WAT     H228173   3.265   5.451   6.429
 9311WAT      O28174   6.883   8.797   6.036
 9311WAT     H128175   6.974   8.757   6.052
 9311WAT     H228176   6.839   8.814   6.124
 9312WAT      O28177   9.174   5.557   6.384
 9312WAT     H128178   9.257   5.527   6.337
 9312WAT     H228179   9.108   5.591   6.317
 9313WAT      O28180   7.399   2.415   2.099
 9313WAT     H128181   7.317   2.451   2.143
 9313WAT     H228182   7.384   2.409   2.000
 9314WAT      O28183   9.511   5.670   9.191
 9314WAT     H128184   9.473   5.590   9.237
 9314WAT     H228185   9.601   5.648   9.155
 9315WAT      O28186   4.658   3.120   3.722
 9315WAT     H128187   4.580   3.150   3.667
 9315WAT     H228188   4.742   3.131   3.669
 9316WAT      O28189   6.506   1.178   6.318
 9316WAT     H128190   6.457   1.152   6.234
 9316WAT     H228191   6.557   1.100   6.352
 9317WAT      O28192   1.469   9.073   7.906
 9317WAT     H128193   1.379   9.089   7.863
 9317WAT     H228194   1.501   9.158   7.949
 9318WAT      O28195   5.837   1.219   0.114
 9318WAT     H128196   5.848   1.236   0.212
 9318WAT     H228197   5.920   1.176   0.079
 9319WAT      O28198   5.199   7.007   3.917
 9319WAT     H128199   5.203   7.036   4.013
 9319WAT     H228200   5.285   7.032   3.872
 9320WAT      O28201   2.784   0.336   3.892
 9320WAT     H128202   2.707   0.359   3.951
 9320WAT     H228203   2.842   0.268   3.938
 9321WAT      O28204   2.707   6.895   7.821
 9321WAT     H128205   2.738   6.898   7.916
 9321WAT     H228206   2.616   6.937   7.814
 9322WAT      O28207   1.631   0.530   2.274
 9322WAT     H128208   1.649   0.559   2.368
 9322WAT     H228209   1.695   0.577   2.212
 9323WAT      O28210   3.208   4.268   8.864
 9323WAT     H128211   3.185   4.183   8.817
 9323WAT     H228212   3.145   4.281   8.941
 9324WAT      O28213   7.717   8.626   9.604
 9324WAT     H128214   7.731   8.528   9.618
 9324WAT     H228215   7.775   8.657   9.529
 9325WAT      O28216   7.622   2.756   3.031
 9325WAT     H128217   7.662   2.734   3.120
 9325WAT     H228218   7.554   2.687   3.007
 9326WAT      O28219   0.231   2.899   5.190
 9326WAT     H128220   0.223   2.806   5.225
 9326WAT     H228221   0.202   2.901   5.094
 9327WAT      O28222   8.846   8.192   9.485
 9327WAT     H128223   8.870   8.270   9.427
 9327WAT     H228224   8.913   8.119   9.472
 9328WAT      O28225   2.584   5.654   6.234
 9328WAT     H128226   2.658   5.689   6.293
 9328WAT     H228227   2.609   5.564   6.200
 9329WAT      O28228   6.166   6.447   4.393
 9329WAT     H128229   6.212   6.419   4.308
 9329WAT     H228230   6.074   6.479   4.371
 9330WAT      O28231   1.596   9.402   2.192
 9330WAT     H128232   1.691   9.381   2.216
 9330WAT     H228233   1.584   9.395   2.093
 9331WAT      O28234   7.429   4.553   9.716
 9331WAT     H128235   7.398   4.485   9.648
 9331WAT     H228236   7.368   4.551   9.795
 9332WAT      O28237   3.703   3.778   5.024
 9332WAT     H128238   3.659   3.807   4.939
 9332WAT     H228239   3.657   3.821   5.102
 9333WAT      O28240   4.199   2.709   6.647
 9333WAT     H128241   4.121   2.673   6.699
 9333WAT     H228242   4.272   2.736   6.710
 9334WAT      O28243   2.451   8.995   1.573
 9334WAT     H128244   2.383   8.967   1.505
 9334WAT     H228245   2.466   9.094   1.565
 9335WAT      O28246   8.417   2.863   7.698
 9335WAT     H128247   8.334   2.849   7.643
 9335WAT     H228248   8.464   2.775   7.709
 9336WAT      O28249   5.953   0.314   3.175
 9336WAT     H128250   6.032   0.253   3.175
 9336WAT     H228251   5.879   0.273   3.227
 9337WAT      O28252   7.639   5.649   9.591
 9337WAT     H128253   7.681   5.723   9.645
 9337WAT     H228254   7.676   5.651   9.498
 9338WAT      O28255   4.654   2.425   6.302
 9338WAT     H128256   4.675   2.349   6.363
 9338WAT     H228257   4.599   2.493   6.350
 9339WAT      O28258   9.816   7.139   5.351
 9339WAT     H128259   9.867   7.218   5.385
 9339WAT     H228260   9.877   7.078   5.301
 9340WAT      O28261   3.726   8.735   7.515
 9340WAT     H128262   3.732   8.754   7.418
 9340WAT     H228263   3.783   8.656   7.537
 9341WAT      O28264   9.113   0.337   3.763
 9341WAT     H128265   9.141   0.383   3.679
 9341WAT     H228266   9.014   0.350   3.776
 9342WAT      O28267   8.956   9.485   1.518
 9342WAT     H128268   8.879   9.453   1.463
 9342WAT     H228269   8.980   9.578   1.491
 9343WAT      O28270   9.367   8.626   3.694
 9343WAT     H128271   9.405   8.665   3.610
 9343WAT     H228272   9.312   8.695   3.741
 9344WAT      O28273   1.954   7.567   1.967
 9344WAT     H128274   1.893   7.514   2.024
 9344WAT     H228275   1.902   7.638   1.919
 9345WAT      O28276   6.476   8.150   0.373
 9345WAT     H128277   6.520   8.151   0.463
 9345WAT     H228278   6.517   8.221   0.316
 9346WAT      O28279   1.959   4.606   1.443
 9346WAT     H128280   2.036   4.629   1.383
 9346WAT     H228281   1.981   4.633   1.537
 9347WAT      O28282   9.200   0.629   3.091
 9347WAT     H128283   9.280   0.669   3.046
 9347WAT     H228284   9.215   0.531   3.106
 9348WAT      O28285   5.394   2.855   4.933
 9348WAT     H128286   5.329   2.812   4.870
 9348WAT     H228287   5.455   2.784   4.970
 9349WAT      O28288   4.859   4.594   8.325
 9349WAT     H128289   4.904   4.623   8.409
 9349WAT     H228290   4.760   4.596   8.336
 9350WAT      O28291   5.013   6.392   8.809
 9350WAT     H128292   5.080   6.361   8.876
 9350WAT     H228293   4.997   6.490   8.819
 9351WAT      O28294   5.781   5.474   4.710
 9351WAT     H128295   5.766   5.535   4.632
 9351WAT     H228296   5.844   5.517   4.775
 9352WAT      O28297   9.788   1.179   9.139
 9352WAT     H128298   9.736   1.263   9.155
 9352WAT     H228299   9.821   1.144   9.226
 9353WAT      O28300   2.745   8.270   1.224
 9353WAT     H128301   2.755   8.176   1.258
 9353WAT     H228302   2.799   8.281   1.141
 9354WAT      O28303   6.720   7.312   9.316
 9354WAT     H128304   6.656   7.357   9.254
 9354WAT     H228305   6.712   7.353   9.407
 9355WAT      O28306   4.633   0.604   9.150
 9355WAT     H128307   4.603   0.683   9.203
 9355WAT     H228308   4.697   0.549   9.204
 9356WAT      O28309   8.287   3.480   0.601
 9356WAT     H128310   8.268   3.530   0.516
 9356WAT     H228311   8.335   3.541   0.665
 9357WAT      O28312   8.160   9.692   8.613
 9357WAT     H128313   8.227   9.656   8.548
 9357WAT     H228314   8.140   9.622   8.682
 9358WAT      O28315   4.933   6.952   8.541
 9358WAT     H128316   4.906   7.034   8.490
 9358WAT     H228317   4.887   6.951   8.629
 9359WAT      O28318   6.051   2.380   2.077
 9359WAT     H128319   5.955   2.407   2.088
 9359WAT     H228320   6.099   2.392   2.164
 9360WAT      O28321   7.824   7.904   9.253
 9360WAT     H128322   7.886   7.946   9.186
 9360WAT     H228323   7.736   7.952   9.251
 9361WAT      O28324   2.343   6.144   9.212
 9361WAT     H128325   2.332   6.045   9.202
 9361WAT     H228326   2.435   6.171   9.181
 9362WAT      O28327   3.868   0.917   9.285
 9362WAT     H128328   3.916   0.987   9.337
 9362WAT     H228329   3.790   0.884   9.337
 9363WAT      O28330   9.741   7.923   1.838
 9363WAT     H128331   9.839   7.911   1.819
 9363WAT     H228332   9.689   7.913   1.753
 9364WAT      O28333   8.281   5.213   1.827
 9364WAT     H128334   8.225   5.230   1.909
 9364WAT     H228335   8.324   5.299   1.798
 9365WAT      O28336   0.096   8.753   5.194
 9365WAT     H128337   0.009   8.788   5.230
 9365WAT     H228338   0.081   8.718   5.101
 9366WAT      O28339   4.264   7.149   8.030
 9366WAT     H128340   4.359   7.175   8.013
 9366WAT     H228341   4.262   7.060   8.076
 9367WAT      O28342   0.165   5.872   4.138
 9367WAT     H128343   0.219   5.873   4.222
 9367WAT     H228344   0.117   5.959   4.128
 9368WAT      O28345   5.466   6.018   1.174
 9368WAT     H128346   5.432   5.928   1.199
 9368WAT     H228347   5.456   6.081   1.251
 9369WAT      O28348   9.243   6.531   6.878
 9369WAT     H128349   9.190   6.602   6.924
 9369WAT     H228350   9.198   6.443   6.890
 9370WAT      O28351   0.495   9.710   4.146
 9370WAT     H128352   0.585   9.748   4.166
 9370WAT     H228353   0.483   9.703   4.047
 9371WAT      O28354   0.783   4.255   6.798
 9371WAT     H128355   0.784   4.156   6.809
 9371WAT     H228356   0.695   4.284   6.760
 9372WAT      O28357   5.271   5.444   3.840
 9372WAT     H128358   5.188   5.466   3.891
 9372WAT     H228359   5.312   5.360   3.877
 9373WAT      O28360   1.632   3.244   4.573
 9373WAT     H128361   1.649   3.207   4.481
 9373WAT     H228362   1.547   3.297   4.572
 9374WAT      O28363   9.191   4.627   0.998
 9374WAT     H128364   9.274   4.675   0.971
 9374WAT     H228365   9.129   4.621   0.919
 9375WAT      O28366   4.587   7.129   9.217
 9375WAT     H128367   4.605   7.179   9.132
 9375WAT     H228368   4.516   7.060   9.200
 9376WAT      O28369   6.685   6.835   2.430
 9376WAT     H128370   6.667   6.916   2.374
 9376WAT     H228371   6.694   6.755   2.371
 9377WAT      O28372   9.511   1.172   6.850
 9377WAT     H128373   9.430   1.158   6.793
 9377WAT     H228374   9.505   1.262   6.893
 9378WAT      O28375   9.609   1.169   0.978
 9378WAT     H128376   9.672   1.106   0.932
 9378WAT     H228377   9.601   1.144   1.074
 9379WAT      O28378   7.465   5.522   0.197
 9379WAT     H128379   7.433   5.596   0.138
 9379WAT     H228380   7.539   5.473   0.152
 9380WAT      O28381   7.642   0.324   4.543
 9380WAT     H128382   7.599   0.383   4.475
 9380WAT     H228383   7.673   0.379   4.620
 9381WAT      O28384   0.766   6.825   8.532
 9381WAT     H128385   0.842   6.793   8.589
 9381WAT     H228386   0.735   6.914   8.566
 9382WAT      O28387   7.589   0.439   3.209
 9382WAT     H128388   7.546   0.367   3.155
 9382WAT     H228389   7.534   0.458   3.291
 9383WAT      O28390   7.447   9.038   4.887
 9383WAT     H128391   7.412   9.115   4.833
 9383WAT     H228392   7.423   8.952   4.841
 9384WAT      O28393   8.733   8.500   6.934
 9384WAT     H128394   8.807   8.561   6.906
 9384WAT     H228395   8.771   8.422   6.984
 9385WAT      O28396   5.453   0.507   6.448
 9385WAT     H128397   5.470   0.486   6.544
 9385WAT     H228398   5.529   0.473   6.392
 9386WAT      O28399   7.416   8.868   9.714
 9386WAT     H128400   7.359   8.843   9.792
 9386WAT     H228401   7.438   8.786   9.661
 9387WAT      O28402   4.909   2.076   8.956
 9387WAT     H128403   4.860   2.068   8.870
 9387WAT     H228404   4.964   1.993   8.971
 9388WAT      O28405   0.169   1.763   5.044
 9388WAT     H128406   0.094   1.697   5.043
 9388WAT     H228407   0.167   1.814   5.130
 9389WAT      O28408   9.314   2.153   0.017
 9389WAT     H128409   9.288   2.211  -0.060
 9389WAT     H228410   9.370   2.206   0.081
 9390WAT      O28411   0.462   3.275   1.636
 9390WAT     H128412   0.389   3.232   1.689
 9390WAT     H228413   0.502   3.209   1.573
 9391WAT      O28414   1.667   3.075   9.816
 9391WAT     H128415   1.744   3.024   9.777
 9391WAT     H228416   1.702   3.142   9.881
 9392WAT      O28417   8.250   7.505   8.821
 9392WAT     H128418   8.278   7.523   8.916
 9392WAT     H228419   8.193   7.423   8.819
 9393WAT      O28420   3.010   9.641   7.340
 9393WAT     H128421   3.043   9.569   7.280
 9393WAT     H228422   2.951   9.602   7.411
 9394WAT      O28423   2.698   2.615   7.881
 9394WAT     H128424   2.678   2.538   7.942
 9394WAT     H228425   2.740   2.689   7.934
 9395WAT      O28426   0.319   2.888   7.412
 9395WAT     H128427   0.333   2.987   7.416
 9395WAT     H228428   0.398   2.846   7.367
 9396WAT      O28429   9.835   3.152   5.102
 9396WAT     H128430   9.770   3.190   5.037
 9396WAT     H228431   9.881   3.073   5.061
 9397WAT      O28432   7.155   6.786   8.729
 9397WAT     H128433   7.234   6.847   8.736
 9397WAT     H228434   7.162   6.714   8.798
 9398WAT      O28435   8.932   0.083   5.961
 9398WAT     H128436   8.946   0.004   5.901
 9398WAT     H228437   8.836   0.111   5.957
 9399WAT      O28438   9.466   1.790   1.247
 9399WAT     H128439   9.442   1.849   1.324
 9399WAT     H228440   9.540   1.729   1.274
 9400WAT      O28441   6.955   7.009   6.457
 9400WAT     H128442   7.017   7.079   6.422
 9400WAT     H228443   6.866   7.050   6.476
 9401WAT      O28444   4.100   5.710   3.589
 9401WAT     H128445   4.131   5.617   3.608
 9401WAT     H228446   4.047   5.710   3.504
 9402WAT      O28447   0.936   9.837   8.400
 9402WAT     H128448   1.029   9.801   8.394
 9402WAT     H228449   0.934   9.931   8.368
 9403WAT      O28450   5.777   2.083   6.139
 9403WAT     H128451   5.766   2.047   6.231
 9403WAT     H228452   5.769   2.008   6.072
 9404WAT      O28453   8.153   0.483   7.060
 9404WAT     H128454   8.192   0.562   7.013
 9404WAT     H228455   8.077   0.447   7.005
 9405WAT      O28456   6.680   1.492   3.398
 9405WAT     H128457   6.746   1.417   3.405
 9405WAT     H228458   6.718   1.574   3.440
 9406WAT      O28459   5.646   5.539   9.302
 9406WAT     H128460   5.561   5.514   9.347
 9406WAT     H228461   5.719   5.547   9.370
 9407WAT      O28462   2.643   1.704   1.958
 9407WAT     H128463   2.692   1.627   1.999
 9407WAT     H228464   2.706   1.756   1.900
 9408WAT      O28465   7.943   4.265   1.220
 9408WAT     H128466   7.954   4.337   1.289
 9408WAT     H228467   8.006   4.190   1.239
 9409WAT      O28468   1.507   2.171   1.308
 9409WAT     H128469   1.507   2.241   1.380
 9409WAT     H228470   1.420   2.176   1.258
 9410WAT      O28471   3.192   6.838   4.424
 9410WAT     H128472   3.228   6.798   4.508
 9410WAT     H228473   3.142   6.922   4.445
 9411WAT      O28474   2.329   6.144   1.971
 9411WAT     H128475   2.275   6.153   2.054
 9411WAT     H228476   2.425   6.163   1.992
 9412WAT      O28477   7.033   4.489   8.338
 9412WAT     H128478   7.078   4.579   8.341
 9412WAT     H228479   7.009   4.467   8.244
 9413WAT      O28480   2.056   0.945   9.003
 9413WAT     H128481   2.017   1.009   9.069
 9413WAT     H228482   2.152   0.968   8.987
 9414WAT      O28483   7.181   8.745   2.911
 9414WAT     H128484   7.158   8.681   2.985
 9414WAT     H228485   7.182   8.695   2.824
 9415WAT      O28486   6.201   8.485   5.574
 9415WAT     H128487   6.170   8.545   5.649
 9415WAT     H228488   6.198   8.390   5.604
 9416WAT      O28489   0.378   8.843   1.352
 9416WAT     H128490   0.477   8.844   1.370
 9416WAT     H228491   0.331   8.896   1.423
 9417WAT      O28492   0.528   4.498   4.687
 9417WAT     H128493   0.485   4.577   4.730
 9417WAT     H228494   0.459   4.427   4.671
 9418WAT      O28495   0.755   4.850   4.633
 9418WAT     H128496   0.694   4.879   4.707
 9418WAT     H228497   0.847   4.834   4.669
 9419WAT      O28498   3.293   0.246   5.424
 9419WAT     H128499   3.236   0.166   5.407
 9419WAT     H228500   3.362   0.223   5.493
 9420WAT      O28501   0.918   9.670   8.765
 9420WAT     H128502   0.850   9.714   8.706
 9420WAT     H228503   0.959   9.738   8.825
 9421WAT      O28504   6.772   1.456   8.378
 9421WAT     H128505   6.810   1.367   8.401
 9421WAT     H228506   6.672   1.451   8.379
 9422WAT      O28507   6.860   2.624   2.320
 9422WAT     H128508   6.897   2.547   2.373
 9422WAT     H228509   6.808   2.683   2.381
 9423WAT      O28510   3.464   7.848   0.998
 9423WAT     H128511   3.493   7.765   1.045
 9423WAT     H228512   3.485   7.927   1.055
 9424WAT      O28513   7.230   0.332   3.026
 9424WAT     H128514   7.194   0.260   2.967
 9424WAT     H228515   7.160   0.403   3.037
 9425WAT      O28516   0.247   5.395   3.204
 9425WAT     H128517   0.229   5.307   3.248
 9425WAT     H228518   0.166   5.453   3.211
 9426WAT      O28519   6.123   5.155   6.003
 9426WAT     H128520   6.095   5.235   5.951
 9426WAT     H228521   6.043   5.114   6.046
 9427WAT      O28522   9.107   8.371   8.102
 9427WAT     H128523   9.165   8.308   8.153
 9427WAT     H228524   9.155   8.401   8.020
 9428WAT      O28525   7.280   6.072   1.973
 9428WAT     H128526   7.282   6.093   1.875
 9428WAT     H228527   7.248   6.152   2.024
 9429WAT      O28528   4.215   4.155   8.630
 9429WAT     H128529   4.256   4.186   8.716
 9429WAT     H228530   4.266   4.077   8.595
 9430WAT      O28531   1.313   5.550   4.853
 9430WAT     H128532   1.237   5.493   4.821
 9430WAT     H228533   1.345   5.516   4.942
 9431WAT      O28534   9.662   2.032   4.621
 9431WAT     H128535   9.568   2.013   4.593
 9431WAT     H228536   9.694   2.115   4.576
 9432WAT      O28537   3.376   0.460   7.013
 9432WAT     H128538   3.412   0.515   6.938
 9432WAT     H228539   3.444   0.392   7.041
 9433WAT      O28540   5.295   6.085   0.545
 9433WAT     H128541   5.350   6.107   0.465
 9433WAT     H228542   5.355   6.061   0.621
 9434WAT      O28543   3.952   2.612   5.128
 9434WAT     H128544   3.857   2.643   5.119
 9434WAT     H228545   4.008   2.656   5.058
 9435WAT      O28546   5.005   1.112   8.566
 9435WAT     H128547   5.083   1.069   8.612
 9435WAT     H228548   4.960   1.045   8.507
 9436WAT      O28549   7.479   9.600   8.171
 9436WAT     H128550   7.537   9.682   8.173
 9436WAT     H228551   7.535   9.519   8.183
 9437WAT      O28552   5.331   8.880   8.127
 9437WAT     H128553   5.334   8.788   8.167
 9437WAT     H228554   5.416   8.897   8.077
 9438WAT      O28555   1.269   9.657   4.226
 9438WAT     H128556   1.252   9.699   4.315
 9438WAT     H228557   1.293   9.561   4.238
 9439WAT      O28558   4.556   6.131   7.446
 9439WAT     H128559   4.456   6.136   7.449
 9439WAT     H228560   4.590   6.197   7.379
 9440WAT      O28561   5.366   0.216   7.997
 9440WAT     H128562   5.360   0.276   7.916
 9440WAT     H228563   5.339   0.268   8.078
 9441WAT      O28564   0.563   9.580   7.919
 9441WAT     H128565   0.556   9.637   8.001
 9441WAT     H228566   0.474   9.541   7.897
 9442WAT      O28567   3.037   4.609   0.853
 9442WAT     H128568   3.123   4.569   0.821
 9442WAT     H228569   3.045   4.708   0.854
 9443WAT      O28570   7.936   4.947   2.381
 9443WAT     H128571   7.906   4.932   2.287
 9443WAT     H228572   7.964   5.042   2.392
 9444WAT      O28573   7.290   0.051   3.294
 9444WAT     H128574   7.355   0.032   3.220
 9444WAT     H228575   7.276   0.150   3.301
 9445WAT      O28576   2.443   3.373   7.141
 9445WAT     H128577   2.367   3.327   7.187
 9445WAT     H228578   2.407   3.436   7.072
 9446WAT      O28579   7.305   3.043   0.010
 9446WAT     H128580   7.398   3.008   0.022
 9446WAT     H228581   7.241   2.967   0.012
 9447WAT      O28582   4.985   5.757   7.343
 9447WAT     H128583   4.977   5.662   7.373
 9447WAT     H228584   4.994   5.817   7.424
 9448WAT      O28585   7.115   3.192   7.542
 9448WAT     H128586   7.019   3.164   7.553
 9448WAT     H228587   7.159   3.136   7.472
 9449WAT      O28588   7.621   0.414   9.357
 9449WAT     H128589   7.666   0.328   9.380
 9449WAT     H228590   7.655   0.446   9.268
 9450WAT      O28591   9.429   7.457   1.529
 9450WAT     H128592   9.494   7.384   1.550
 9450WAT     H228593   9.441   7.484   1.433
 9451WAT      O28594   6.375   8.714   9.826
 9451WAT     H128595   6.372   8.662   9.740
 9451WAT     H228596   6.439   8.671   9.889
 9452WAT      O28597   3.685   9.468   1.094
 9452WAT     H128598   3.609   9.530   1.116
 9452WAT     H228599   3.683   9.389   1.155
 9453WAT      O28600   1.983   5.586   5.495
 9453WAT     H128601   1.953   5.605   5.588
 9453WAT     H228602   2.078   5.615   5.484
 9454WAT      O28603   3.222   1.691   9.539
 9454WAT     H128604   3.131   1.712   9.573
 9454WAT     H228605   3.272   1.776   9.524
 9455WAT      O28606   3.504   0.292   8.397
 9455WAT     H128607   3.465   0.383   8.403
 9455WAT     H228608   3.436   0.230   8.356
 9456WAT      O28609   8.347   7.733   5.162
 9456WAT     H128610   8.381   7.786   5.084
 9456WAT     H228611   8.296   7.654   5.129
 9457WAT      O28612   1.476   7.661   1.799
 9457WAT     H128613   1.441   7.568   1.786
 9457WAT     H228614   1.558   7.658   1.856
 9458WAT      O28615   3.806   1.394   6.163
 9458WAT     H128616   3.889   1.400   6.108
 9458WAT     H228617   3.748   1.321   6.128
 9459WAT      O28618   5.058   3.694   7.610
 9459WAT     H128619   5.039   3.623   7.678
 9459WAT     H228620   5.118   3.763   7.650
 9460WAT      O28621   8.580   0.585   0.396
 9460WAT     H128622   8.645   0.635   0.453
 9460WAT     H228623   8.599   0.604   0.299
 9461WAT      O28624   5.163   0.934   1.275
 9461WAT     H128625   5.262   0.924   1.269
 9461WAT     H228626   5.134   1.012   1.219
 9462WAT      O28627   2.935   4.396   6.046
 9462WAT     H128628   2.953   4.352   6.134
 9462WAT     H228629   2.921   4.326   5.976
 9463WAT      O28630   1.001   8.864   4.504
 9463WAT     H128631   1.051   8.790   4.459
 9463WAT     H228632   0.903   8.849   4.495
 9464WAT      O28633   7.614   7.015   9.128
 9464WAT     H128634   7.609   6.948   9.202
 9464WAT     H228635   7.685   7.083   9.149
 9465WAT      O28636   0.672   5.884   4.218
 9465WAT     H128637   0.615   5.827   4.278
 9465WAT     H228638   0.632   5.884   4.126
 9466WAT      O28639   5.163   5.033   3.405
 9466WAT     H128640   5.164   4.944   3.450
 9466WAT     H228641   5.167   5.021   3.306
 9467WAT      O28642   3.600   3.192   8.270
 9467WAT     H128643   3.578   3.289   8.263
 9467WAT     H228644   3.579   3.160   8.362
 9468WAT      O28645   9.032   6.285   2.432
 9468WAT     H128646   8.960   6.320   2.372
 9468WAT     H228647   8.992   6.223   2.499
 9469WAT      O28648   8.673   8.693   5.736
 9469WAT     H128649   8.742   8.764   5.736
 9469WAT     H228650   8.660   8.658   5.828
 9470WAT      O28651   3.871   5.569   1.217
 9470WAT     H128652   3.843   5.635   1.287
 9470WAT     H228653   3.961   5.532   1.240
 9471WAT      O28654   3.001   9.319   9.513
 9471WAT     H128655   2.901   9.326   9.507
 9471WAT     H228656   3.030   9.343   9.606
 9472WAT      O28657   5.315   7.925   3.478
 9472WAT     H128658   5.407   7.945   3.510
 9472WAT     H228659   5.250   7.938   3.553
 9473WAT      O28660   9.366   6.963   4.129
 9473WAT     H128661   9.296   7.035   4.122
 9473WAT     H228662   9.438   6.980   4.062
 9474WAT      O28663   1.123   5.963   0.205
 9474WAT     H128664   1.025   5.945   0.199
 9474WAT     H228665   1.164   5.905   0.274
 9475WAT      O28666   6.519   8.242   9.449
 9475WAT     H128667   6.427   8.223   9.483
 9475WAT     H228668   6.549   8.166   9.391
 9476WAT      O28669   6.640   0.788   7.408
 9476WAT     H128670   6.636   0.712   7.343
 9476WAT     H228671   6.719   0.844   7.388
 9477WAT      O28672   7.846   8.919   1.150
 9477WAT     H128673   7.893   8.976   1.082
 9477WAT     H228674   7.747   8.932   1.142
 9478WAT      O28675   2.729   8.019   5.674
 9478WAT     H128676   2.709   8.090   5.742
 9478WAT     H228677   2.688   7.933   5.703
 9479WAT      O28678   4.507   9.723   0.828
 9479WAT     H128679   4.582   9.669   0.789
 9479WAT     H228680   4.466   9.673   0.904
 9480WAT      O28681   7.944   0.391   4.929
 9480WAT     H128682   7.992   0.304   4.944
 9480WAT     H228683   7.846   0.375   4.931
 9481WAT      O28684   4.445   6.921   6.986
 9481WAT     H128685   4.356   6.882   7.006
 9481WAT     H228686   4.479   6.884   6.899
 9482WAT      O28687   2.413   1.749   4.695
 9482WAT     H128688   2.447   1.687   4.625
 9482WAT     H228689   2.481   1.820   4.713
 9483WAT      O28690   9.324   9.110   8.050
 9483WAT     H128691   9.349   9.136   8.144
 9483WAT     H228692   9.306   9.011   8.047
 9484WAT      O28693   0.788   6.284   7.277
 9484WAT     H128694   0.879   6.302   7.238
 9484WAT     H228695   0.794   6.208   7.342
 9485WAT      O28696   5.461   0.159   5.391
 9485WAT     H128697   5.552   0.151   5.351
 9485WAT     H228698   5.396   0.104   5.339
 9486WAT      O28699   6.652   7.348   1.955
 9486WAT     H128700   6.741   7.325   1.995
 9486WAT     H228701   6.617   7.268   1.905
 9487WAT      O28702   1.685   1.716   7.831
 9487WAT     H128703   1.652   1.809   7.814
 9487WAT     H228704   1.642   1.653   7.766
 9488WAT      O28705   1.798   0.299   4.761
 9488WAT     H128706   1.843   0.213   4.782
 9488WAT     H228707   1.700   0.290   4.775
 9489WAT      O28708   6.434   8.650   1.951
 9489WAT     H128709   6.385   8.648   2.038
 9489WAT     H228710   6.401   8.727   1.896
 9490WAT      O28711   6.827   2.927   2.042
 9490WAT     H128712   6.834   2.854   1.974
 9490WAT     H228713   6.889   2.907   2.119
 9491WAT      O28714   2.816   4.881   8.513
 9491WAT     H128715   2.889   4.862   8.578
 9491WAT     H228716   2.757   4.800   8.504
 9492WAT      O28717   0.124   2.795   2.773
 9492WAT     H128718   0.142   2.708   2.817
 9492WAT     H228719   0.194   2.861   2.798
 9493WAT      O28720   4.584   2.896   6.943
 9493WAT     H128721   4.606   2.967   7.009
 9493WAT     H228722   4.498   2.917   6.897
 9494WAT      O28723   2.461   8.075   7.047
 9494WAT     H128724   2.382   8.102   7.103
 9494WAT     H228725   2.526   8.024   7.103
 9495WAT      O28726   5.619   2.200   7.994
 9495WAT     H128727   5.706   2.215   8.041
 9495WAT     H228728   5.551   2.168   8.059
 9496WAT      O28729   0.471   2.627   6.831
 9496WAT     H128730   0.566   2.596   6.836
 9496WAT     H228731   0.415   2.572   6.893
 9497WAT      O28732   6.097   6.096   8.820
 9497WAT     H128733   6.136   6.024   8.877
 9497WAT     H228734   6.003   6.115   8.850
 9498WAT      O28735   7.111   4.064   7.771
 9498WAT     H128736   7.042   4.107   7.830
 9498WAT     H228737   7.095   4.090   7.676
 9499WAT      O28738   8.426   9.121   4.444
 9499WAT     H128739   8.358   9.194   4.450
 9499WAT     H228740   8.411   9.055   4.517
 9500WAT      O28741   5.825   7.688   5.048
 9500WAT     H128742   5.859   7.669   5.140
 9500WAT     H228743   5.747   7.630   5.028
 9501WAT      O28744   0.792   4.291   6.243
 9501WAT     H128745   0.884   4.269   6.275
 9501WAT     H228746   0.746   4.348   6.311
 9502WAT      O28747   4.060   2.633   7.340
 9502WAT     H128748   4.098   2.610   7.251
 9502WAT     H228749   4.100   2.574   7.410
 9503WAT      O28750   8.149   6.443   5.349
 9503WAT     H128751   8.051   6.447   5.330
 9503WAT     H228752   8.200   6.488   5.275
 9504WAT      O28753   0.700   4.966   6.630
 9504WAT     H128754   0.625   4.916   6.672
 9504WAT     H228755   0.782   4.958   6.687
 9505WAT      O28756   6.077   6.113   0.726
 9505WAT     H128757   6.050   6.203   0.693
 9505WAT     H228758   6.166   6.089   0.686
 9506WAT      O28759   9.358   4.254   1.958
 9506WAT     H128760   9.331   4.229   2.051
 9506WAT     H228761   9.300   4.205   1.892
 9507WAT      O28762   2.768   1.830   0.244
 9507WAT     H128763   2.728   1.780   0.321
 9507WAT     H228764   2.697   1.887   0.201
 9508WAT      O28765   8.420   5.279   7.020
 9508WAT     H128766   8.407   5.375   7.043
 9508WAT     H228767   8.396   5.263   6.925
 9509WAT      O28768   2.222   0.007   7.023
 9509WAT     H128769   2.261  -0.017   7.113
 9509WAT     H228770   2.293  -0.002   6.953
 9510WAT      O28771   9.809   1.641   6.881
 9510WAT     H128772   9.712   1.615   6.878
 9510WAT     H228773   9.851   1.623   6.792
 9511WAT      O28774   0.275   3.009   9.790
 9511WAT     H128775   0.361   3.029   9.743
 9511WAT     H228776   0.291   3.003   9.889
 9512WAT      O28777   8.134   9.182   8.123
 9512WAT     H128778   8.177   9.106   8.075
 9512WAT     H228779   8.162   9.269   8.082
 9513WAT      O28780   6.673   5.839   8.319
 9513WAT     H128781   6.616   5.799   8.392
 9513WAT     H228782   6.616   5.899   8.262
 9514WAT      O28783   5.659   3.282   8.356
 9514WAT     H128784   5.568   3.257   8.322
 9514WAT     H228785   5.652   3.365   8.413
 9515WAT      O28786   8.856   6.231   2.978
 9515WAT     H128787   8.818   6.236   2.885
 9515WAT     H228788   8.859   6.135   3.007
 9516WAT      O28789   8.201   2.147   7.769
 9516WAT     H128790   8.118   2.140   7.824
 9516WAT     H228791   8.279   2.168   7.828
 9517WAT      O28792   0.363   4.212   9.650
 9517WAT     H128793   0.413   4.185   9.567
 9517WAT     H228794   0.325   4.131   9.694
 9518WAT      O28795   8.673   4.811   8.025
 9518WAT     H128796   8.644   4.807   7.930
 9518WAT     H228797   8.694   4.718   8.057
 9519WAT      O28798   4.971   9.124   3.909
 9519WAT     H128799   4.957   9.107   4.006
 9519WAT     H228800   4.905   9.192   3.877
 9520WAT      O28801   0.759   1.696   3.952
 9520WAT     H128802   0.842   1.724   3.904
 9520WAT     H228803   0.689   1.767   3.942
 9521WAT      O28804   1.702   2.231   0.942
 9521WAT     H128805   1.732   2.310   0.888
 9521WAT     H228806   1.746   2.234   1.032
 9522WAT      O28807   3.958   6.862   0.626
 9522WAT     H128808   4.020   6.817   0.561
 9522WAT     H228809   3.979   6.959   0.631
 9523WAT      O28810   6.162   3.473   8.787
 9523WAT     H128811   6.111   3.558   8.772
 9523WAT     H228812   6.247   3.476   8.734
 9524WAT      O28813   7.095   1.703   9.254
 9524WAT     H128814   7.032   1.781   9.259
 9524WAT     H228815   7.184   1.730   9.292
 9525WAT      O28816   8.810   2.462   3.971
 9525WAT     H128817   8.869   2.532   3.930
 9525WAT     H228818   8.842   2.372   3.943
 9526WAT      O28819   7.095   3.944   3.867
 9526WAT     H128820   7.008   3.950   3.917
 9526WAT     H228821   7.151   4.024   3.887
 9527WAT      O28822   4.868   9.096   2.272
 9527WAT     H128823   4.813   9.124   2.194
 9527WAT     H228824   4.886   8.998   2.267
 9528WAT      O28825   3.858   3.915   2.736
 9528WAT     H128826   3.896   3.970   2.810
 9528WAT     H228827   3.844   3.973   2.656
 9529WAT      O28828   7.454   1.945   2.130
 9529WAT     H128829   7.501   1.889   2.062
 9529WAT     H228830   7.521   2.003   2.177
 9530WAT      O28831   5.672   9.322   4.218
 9530WAT     H128832   5.690   9.368   4.131
 9530WAT     H228833   5.730   9.362   4.289
 9531WAT      O28834   4.072   1.483   4.474
 9531WAT     H128835   4.053   1.394   4.515
 9531WAT     H228836   4.100   1.471   4.379
 9532WAT      O28837   0.483   3.589   7.238
 9532WAT     H128838   0.393   3.577   7.195
 9532WAT     H228839   0.485   3.677   7.285
 9533WAT      O28840   5.243   7.720   5.565
 9533WAT     H128841   5.284   7.632   5.586
 9533WAT     H228842   5.143   7.710   5.561
 9534WAT      O28843   9.418   8.839   4.348
 9534WAT     H128844   9.349   8.910   4.358
 9534WAT     H228845   9.463   8.822   4.436
 9535WAT      O28846   1.238   1.908   1.919
 9535WAT     H128847   1.228   1.817   1.960
 9535WAT     H228848   1.147   1.945   1.899
 9536WAT      O28849   9.159   5.444   2.757
 9536WAT     H128850   9.173   5.452   2.855
 9536WAT     H228851   9.082   5.383   2.739
 9537WAT      O28852   7.927   1.621   8.590
 9537WAT     H128853   7.880   1.709   8.601
 9537WAT     H228854   8.017   1.627   8.633
 9538WAT      O28855   2.846   4.287   8.003
 9538WAT     H128856   2.805   4.249   7.921
 9538WAT     H228857   2.915   4.355   7.977
 9539WAT      O28858   1.215   7.031   6.353
 9539WAT     H128859   1.263   7.058   6.436
 9539WAT     H228860   1.137   6.973   6.377
 9540WAT      O28861   5.842   7.651   5.597
 9540WAT     H128862   5.751   7.631   5.560
 9540WAT     H228863   5.833   7.676   5.694
 9541WAT      O28864   0.940   2.968   8.429
 9541WAT     H128865   0.867   3.036   8.440
 9541WAT     H228866   1.018   2.993   8.486
 9542WAT      O28867   0.884   6.782   9.740
 9542WAT     H128868   0.904   6.726   9.820
 9542WAT     H228869   0.969   6.817   9.701
 9543WAT      O28870   1.346   6.720   9.042
 9543WAT     H128871   1.342   6.766   9.130
 9543WAT     H228872   1.286   6.640   9.043
 9544WAT      O28873   5.037   3.274   1.536
 9544WAT     H128874   5.026   3.369   1.564
 9544WAT     H228875   5.098   3.270   1.457
 9545WAT      O28876   9.787   9.487   5.101
 9545WAT     H128877   9.701   9.445   5.072
 9545WAT     H228878   9.848   9.495   5.022
 9546WAT      O28879   1.897   2.281   5.343
 9546WAT     H128880   1.974   2.345   5.345
 9546WAT     H228881   1.925   2.198   5.296
 9547WAT      O28882   7.110   4.933   4.077
 9547WAT     H128883   7.186   4.869   4.091
 9547WAT     H228884   7.133   4.999   4.006
 9548WAT      O28885   5.411   0.654   3.457
 9548WAT     H128886   5.311   0.664   3.460
 9548WAT     H228887   5.435   0.587   3.387
 9549WAT      O28888   3.471   3.115   0.444
 9549WAT     H128889   3.398   3.184   0.448
 9549WAT     H228890   3.559   3.158   0.463
 9550WAT      O28891   7.948   5.662   1.054
 9550WAT     H128892   7.983   5.574   1.022
 9550WAT     H228893   7.901   5.709   0.980
 9551WAT      O28894   4.100   9.036   9.308
 9551WAT     H128895   4.035   9.095   9.260
 9551WAT     H228896   4.162   8.994   9.241
 9552WAT      O28897   5.358   2.045   5.382
 9552WAT     H128898   5.312   2.034   5.470
 9552WAT     H228899   5.456   2.057   5.397
 9553WAT      O28900   4.379   8.443   0.998
 9553WAT     H128901   4.456   8.480   0.946
 9553WAT     H228902   4.402   8.351   1.031
 9554WAT      O28903   7.810   5.594   9.344
 9554WAT     H128904   7.784   5.590   9.248
 9554WAT     H228905   7.909   5.578   9.353
 9555WAT      O28906   0.928   7.555   9.635
 9555WAT     H128907   0.880   7.575   9.721
 9555WAT     H228908   0.862   7.525   9.567
 9556WAT      O28909   7.534   9.032   3.993
 9556WAT     H128910   7.446   9.069   4.023
 9556WAT     H228911   7.570   9.087   3.918
 9557WAT      O28912   7.774   0.757   9.019
 9557WAT     H128913   7.861   0.805   9.026
 9557WAT     H228914   7.700   0.824   9.008
 9558WAT      O28915   9.237   9.427   3.938
 9558WAT     H128916   9.207   9.520   3.918
 9558WAT     H228917   9.171   9.362   3.900
 9559WAT      O28918   7.218   9.162   9.470
 9559WAT     H128919   7.307   9.207   9.465
 9559WAT     H228920   7.211   9.094   9.397
 9560WAT      O28921   2.777   8.254   5.807
 9560WAT     H128922   2.854   8.312   5.784
 9560WAT     H228923   2.697   8.310   5.829
 9561WAT      O28924   4.034   3.613   0.878
 9561WAT     H128925   4.063   3.585   0.969
 9561WAT     H228926   4.007   3.709   0.879
 9562WAT      O28927   1.274   0.261   4.841
 9562WAT     H128928   1.223   0.341   4.872
 9562WAT     H228929   1.249   0.182   4.896
 9563WAT      O28930   6.964   2.995   4.394
 9563WAT     H128931   6.885   2.934   4.393
 9563WAT     H228932   6.999   3.006   4.301
 9564WAT      O28933   5.341   2.538   9.357
 9564WAT     H128934   5.426   2.544   9.305
 9564WAT     H228935   5.268   2.504   9.298
 9565WAT      O28936   9.444   3.124   9.270
 9565WAT     H128937   9.395   3.129   9.183
 9565WAT     H228938   9.534   3.166   9.259
 9566WAT      O28939   0.257   2.717   6.560
 9566WAT     H128940   0.238   2.800   6.507
 9566WAT     H228941   0.180   2.698   6.621
 9567WAT      O28942   7.588   5.926   2.898
 9567WAT     H128943   7.614   5.856   2.964
 9567WAT     H228944   7.574   6.013   2.944
 9568WAT      O28945   7.794   2.936   8.271
 9568WAT     H128946   7.789   2.980   8.181
 9568WAT     H228947   7.737   2.986   8.336
 9569WAT      O28948   8.894   0.426   8.697
 9569WAT     H128949   8.851   0.514   8.680
 9569WAT     H228950   8.950   0.400   8.618
 9570WAT      O28951   6.327   1.039   0.831
 9570WAT     H128952   6.425   1.022   0.843
 9570WAT     H228953   6.314   1.116   0.769
 9571WAT      O28954   6.028   3.299   5.115
 9571WAT     H128955   5.941   3.260   5.084
 9571WAT     H228956   6.028   3.307   5.215
 9572WAT      O28957   1.121   7.751   9.627
 9572WAT     H128958   1.075   7.838   9.647
 9572WAT     H228959   1.054   7.678   9.624
 9573WAT      O28960   3.659   2.736   1.430
 9573WAT     H128961   3.682   2.779   1.516
 9573WAT     H228962   3.734   2.678   1.400
 9574WAT      O28963   3.116   7.796   4.511
 9574WAT     H128964   3.079   7.863   4.576
 9574WAT     H228965   3.060   7.713   4.513
 9575WAT      O28966   2.675   3.115   6.342
 9575WAT     H128967   2.756   3.123   6.400
 9575WAT     H228968   2.687   3.039   6.279
 9576WAT      O28969   9.676   1.131   5.800
 9576WAT     H128970   9.676   1.068   5.722
 9576WAT     H228971   9.767   1.136   5.839
 9577WAT      O28972   7.828   6.528   6.316
 9577WAT     H128973   7.741   6.574   6.304
 9577WAT     H228974   7.855   6.530   6.413
 9578WAT      O28975   7.664   5.740   6.233
 9578WAT     H128976   7.567   5.732   6.211
 9578WAT     H228977   7.682   5.832   6.270
 9579WAT      O28978   0.197   1.542   1.651
 9579WAT     H128979   0.152   1.538   1.561
 9579WAT     H228980   0.293   1.564   1.638
 9580WAT      O28981   3.573   3.978   7.324
 9580WAT     H128982   3.600   3.939   7.236
 9580WAT     H228983   3.642   4.044   7.354
 9581WAT      O28984   0.626   7.833   3.682
 9581WAT     H128985   0.707   7.878   3.643
 9581WAT     H228986   0.578   7.897   3.740
 9582WAT      O28987   3.841   2.273   4.281
 9582WAT     H128988   3.761   2.228   4.321
 9582WAT     H228989   3.864   2.228   4.194
 9583WAT      O28990   7.627   6.059   1.122
 9583WAT     H128991   7.673   6.106   1.047
 9583WAT     H228992   7.535   6.095   1.132
 9584WAT      O28993   5.704   7.898   6.617
 9584WAT     H128994   5.705   7.908   6.717
 9584WAT     H228995   5.704   7.988   6.575
 9585WAT      O28996   0.650   4.152   5.383
 9585WAT     H128997   0.713   4.158   5.460
 9585WAT     H228998   0.572   4.094   5.408
 9586WAT      O28999   4.807   8.296   9.022
 9586WAT     H129000   4.812   8.284   9.121
 9586WAT     H229001   4.736   8.237   8.985
 9587WAT      O29002   4.785   9.561   6.450
 9587WAT     H129003   4.708   9.512   6.491
 9587WAT     H229004   4.840   9.602   6.522
 9588WAT      O29005   1.774   7.960   3.304
 9588WAT     H129006   1.691   8.001   3.268
 9588WAT     H229007   1.828   8.030   3.351
 9589WAT      O29008   4.662   6.914   8.140
 9589WAT     H129009   4.594   6.938   8.210
 9589WAT     H229010   4.752   6.907   8.182
 9590WAT      O29011   3.507   0.094   7.104
 9590WAT     H129012   3.554   0.180   7.088
 9590WAT     H229013   3.420   0.111   7.150
 9591WAT      O29014   8.452   5.681   4.383
 9591WAT     H129015   8.514   5.612   4.420
 9591WAT     H229016   8.361   5.671   4.425
 9592WAT      O29017   7.321   7.787   4.686
 9592WAT     H129018   7.248   7.767   4.752
 9592WAT     H229019   7.281   7.827   4.603
 9593WAT      O29020   7.540   4.285   2.318
 9593WAT     H129021   7.542   4.345   2.239
 9593WAT     H229022   7.624   4.297   2.372
 9594WAT      O29023   0.876   1.895   1.508
 9594WAT     H129024   0.831   1.808   1.529
 9594WAT     H229025   0.975   1.883   1.516
 9595WAT      O29026   6.944   0.266   3.412
 9595WAT     H129027   6.898   0.211   3.482
 9595WAT     H229028   6.890   0.349   3.395
 9596WAT      O29029   0.495   0.587   9.600
 9596WAT     H129030   0.557   0.632   9.535
 9596WAT     H229031   0.546   0.566   9.683
 9597WAT      O29032   0.601   8.159   9.213
 9597WAT     H129033   0.606   8.087   9.281
 9597WAT     H229034   0.664   8.233   9.238
 9598WAT      O29035   9.148   3.551   4.087
 9598WAT     H129036   9.216   3.486   4.053
 9598WAT     H229037   9.059   3.532   4.046
 9599WAT      O29038   9.719   0.191   1.429
 9599WAT     H129039   9.743   0.193   1.332
 9599WAT     H229040   9.715   0.285   1.464
 9600WAT      O29041   9.334   7.548   2.374
 9600WAT     H129042   9.306   7.644   2.369
 9600WAT     H229043   9.404   7.537   2.445
 9601WAT      O29044   7.867   9.357   5.989
 9601WAT     H129045   7.790   9.298   5.965
 9601WAT     H229046   7.835   9.432   6.047
 9602WAT      O29047   4.003   5.822   5.503
 9602WAT     H129048   4.038   5.737   5.540
 9602WAT     H229049   4.051   5.844   5.417
 9603WAT      O29050   6.202   0.462   4.741
 9603WAT     H129051   6.289   0.453   4.693
 9603WAT     H229052   6.133   0.498   4.677
 9604WAT      O29053   0.678   8.403   1.610
 9604WAT     H129054   0.734   8.375   1.688
 9604WAT     H229055   0.725   8.379   1.525
 9605WAT      O29056   2.525   7.709   3.709
 9605WAT     H129057   2.546   7.626   3.657
 9605WAT     H229058   2.455   7.689   3.777
 9606WAT      O29059   0.787   2.622   3.004
 9606WAT     H129060   0.785   2.523   3.019
 9606WAT     H229061   0.696   2.660   3.021
 9607WAT      O29062   3.007   0.898   0.740
 9607WAT     H129063   2.989   0.826   0.673
 9607WAT     H229064   3.003   0.988   0.696
 9608WAT      O29065   6.682   5.421   2.960
 9608WAT     H129066   6.694   5.478   3.042
 9608WAT     H229067   6.709   5.327   2.981
 9609WAT      O29068   1.944   0.416   0.759
 9609WAT     H129069   1.883   0.368   0.822
 9609WAT     H229070   1.961   0.508   0.794
 9610WAT      O29071   0.790   5.193   4.775
 9610WAT     H129072   0.882   5.169   4.743
 9610WAT     H229073   0.787   5.290   4.798
 9611WAT      O29074   3.533   9.263   0.752
 9611WAT     H129075   3.615   9.268   0.808
 9611WAT     H229076   3.548   9.313   0.666
 9612WAT      O29077   0.999   3.931   2.177
 9612WAT     H129078   0.986   4.001   2.246
 9612WAT     H229079   1.023   3.844   2.221
 9613WAT      O29080   2.357   1.106   6.073
 9613WAT     H129081   2.316   1.167   6.004
 9613WAT     H229082   2.301   1.024   6.083
 9614WAT      O29083   7.006   9.110   1.307
 9614WAT     H129084   7.084   9.138   1.251
 9614WAT     H229085   6.927   9.169   1.286
 9615WAT      O29086   3.515   1.730   4.441
 9615WAT     H129087   3.599   1.727   4.496
 9615WAT     H229088   3.530   1.683   4.354
 9616WAT      O29089   8.078   7.929   6.543
 9616WAT     H129090   8.131   7.850   6.575
 9616WAT     H229091   8.139   7.995   6.501
 9617WAT      O29092   1.986   5.271   5.509
 9617WAT     H129093   1.970   5.274   5.608
 9617WAT     H229094   2.040   5.351   5.481
 9618WAT      O29095   7.079   5.833   3.005
 9618WAT     H129096   7.050   5.795   3.093
 9618WAT     H229097   7.101   5.758   2.943
 9619WAT      O29098   2.105   4.811   3.016
 9619WAT     H129099   2.032   4.743   3.011
 9619WAT     H229100   2.136   4.833   2.923
 9620WAT      O29101   2.901   7.823   3.412
 9620WAT     H129102   2.901   7.726   3.391
 9620WAT     H229103   2.962   7.871   3.348
 9621WAT      O29104   7.004   2.712   0.433
 9621WAT     H129105   6.940   2.708   0.510
 9621WAT     H229106   6.981   2.641   0.367
 9622WAT      O29107   7.552   4.881   1.099
 9622WAT     H129108   7.640   4.878   1.146
 9622WAT     H229109   7.506   4.793   1.107
 9623WAT      O29110   1.577   8.290   4.079
 9623WAT     H129111   1.478   8.290   4.081
 9623WAT     H229112   1.611   8.197   4.094
 9624WAT      O29113   2.993   8.046   0.858
 9624WAT     H129114   2.989   8.136   0.902
 9624WAT     H229115   2.930   8.045   0.780
 9625WAT      O29116   2.398   6.103   8.108
 9625WAT     H129117   2.439   6.101   8.199
 9625WAT     H229118   2.413   6.015   8.063
 9626WAT      O29119   1.864   1.923   2.317
 9626WAT     H129120   1.791   1.946   2.380
 9626WAT     H229121   1.868   1.823   2.306
 9627WAT      O29122   4.841   3.635   3.084
 9627WAT     H129123   4.830   3.677   2.993
 9627WAT     H229124   4.819   3.538   3.079
 9628WAT      O29125   7.340   1.423   7.743
 9628WAT     H129126   7.277   1.495   7.714
 9628WAT     H229127   7.411   1.411   7.674
 9629WAT      O29128   8.774   8.303   7.605
 9629WAT     H129129   8.799   8.208   7.587
 9629WAT     H229130   8.727   8.309   7.694
 9630WAT      O29131   4.584   7.186   9.665
 9630WAT     H129132   4.603   7.239   9.583
 9630WAT     H229133   4.573   7.089   9.640
 9631WAT      O29134   7.445   2.749   4.849
 9631WAT     H129135   7.542   2.738   4.828
 9631WAT     H229136   7.434   2.822   4.917
 9632WAT      O29137   8.825   3.908   4.492
 9632WAT     H129138   8.753   3.887   4.558
 9632WAT     H229139   8.905   3.945   4.540
 9633WAT      O29140   9.204   1.787   3.431
 9633WAT     H129141   9.116   1.744   3.409
 9633WAT     H229142   9.192   1.886   3.433
 9634WAT      O29143   4.950   1.207   1.563
 9634WAT     H129144   5.001   1.125   1.539
 9634WAT     H229145   5.014   1.283   1.578
 9635WAT      O29146   8.897   9.381   0.683
 9635WAT     H129147   8.980   9.436   0.682
 9635WAT     H229148   8.912   9.296   0.632
 9636WAT      O29149   8.412   0.433   1.745
 9636WAT     H129150   8.314   0.444   1.763
 9636WAT     H229151   8.432   0.336   1.730
 9637WAT      O29152   6.526   7.407   9.154
 9637WAT     H129153   6.476   7.392   9.068
 9637WAT     H229154   6.588   7.484   9.142
 9638WAT      O29155   0.853   0.082   6.075
 9638WAT     H129156   0.875   0.108   6.169
 9638WAT     H229157   0.936   0.085   6.019
 9639WAT      O29158   8.909   4.933   6.734
 9639WAT     H129159   8.921   4.858   6.668
 9639WAT     H229160   8.995   4.982   6.745
 9640WAT      O29161   1.839   9.746   1.992
 9640WAT     H129162   1.826   9.713   2.086
 9640WAT     H229163   1.937   9.757   1.974
 9641WAT      O29164   5.123   4.208   0.231
 9641WAT     H129165   5.220   4.208   0.205
 9641WAT     H229166   5.066   4.195   0.150
 9642WAT      O29167   3.547   0.745   4.886
 9642WAT     H129168   3.571   0.749   4.789
 9642WAT     H229169   3.607   0.679   4.932
 9643WAT      O29170   1.621   9.322   7.567
 9643WAT     H129171   1.653   9.401   7.515
 9643WAT     H229172   1.522   9.328   7.580
 9644WAT      O29173   5.535   1.779   2.154
 9644WAT     H129174   5.444   1.783   2.113
 9644WAT     H229175   5.527   1.745   2.248
 9645WAT      O29176   5.049   4.772   7.654
 9645WAT     H129177   4.973   4.709   7.671
 9645WAT     H229178   5.064   4.781   7.556
 9646WAT      O29179   6.328   8.914   5.686
 9646WAT     H129180   6.428   8.911   5.696
 9646WAT     H229181   6.300   8.848   5.617
 9647WAT      O29182   3.579   5.067   8.346
 9647WAT     H129183   3.527   5.147   8.374
 9647WAT     H229184   3.677   5.086   8.354
 9648WAT      O29185   7.530   9.044   0.762
 9648WAT     H129186   7.452   9.090   0.806
 9648WAT     H229187   7.593   9.113   0.726
 9649WAT      O29188   1.196   3.756   9.262
 9649WAT     H129189   1.118   3.793   9.314
 9649WAT     H229190   1.161   3.705   9.183
 9650WAT      O29191   3.194   0.774   0.168
 9650WAT     H129192   3.165   0.693   0.218
 9650WAT     H229193   3.273   0.751   0.111
 9651WAT      O29194   6.531   9.662   3.425
 9651WAT     H129195   6.432   9.680   3.423
 9651WAT     H229196   6.575   9.724   3.489
 9652WAT      O29197   5.208   8.730   0.184
 9652WAT     H129198   5.135   8.795   0.206
 9652WAT     H229199   5.296   8.768   0.210
 9653WAT      O29200   0.678   0.512   5.576
 9653WAT     H129201   0.625   0.441   5.622
 9653WAT     H229202   0.775   0.502   5.598
 9654WAT      O29203   5.114   7.186   7.352
 9654WAT     H129204   5.115   7.106   7.292
 9654WAT     H229205   5.021   7.222   7.358
 9655WAT      O29206   2.085   2.735   2.707
 9655WAT     H129207   2.030   2.818   2.713
 9655WAT     H229208   2.060   2.683   2.625
 9656WAT      O29209   3.050   1.599   4.023
 9656WAT     H129210   2.992   1.588   3.942
 9656WAT     H229211   3.005   1.560   4.103
 9657WAT      O29212   4.387   8.672   8.001
 9657WAT     H129213   4.396   8.727   8.084
 9657WAT     H229214   4.427   8.721   7.924
 9658WAT      O29215   9.419   6.929   4.391
 9658WAT     H129216   9.447   6.842   4.432
 9658WAT     H229217   9.427   6.923   4.291
 9659WAT      O29218   8.164   4.919   1.551
 9659WAT     H129219   8.121   5.008   1.570
 9659WAT     H229220   8.251   4.914   1.600
 9660WAT      O29221   0.786   6.660   1.910
 9660WAT     H129222   0.776   6.580   1.851
 9660WAT     H229223   0.707   6.720   1.898
 9661WAT      O29224   9.079   0.475   8.497
 9661WAT     H129225   9.177   0.488   8.513
 9661WAT     H229226   9.033   0.564   8.502
 9662WAT      O29227   9.852   3.404   7.089
 9662WAT     H129228   9.822   3.310   7.070
 9662WAT     H229229   9.871   3.414   7.186
 9663WAT      O29230   9.376   9.167   1.481
 9663WAT     H129231   9.448   9.196   1.418
 9663WAT     H229232   9.316   9.244   1.501
 9664WAT      O29233   9.316   2.736   0.825
 9664WAT     H129234   9.254   2.709   0.751
 9664WAT     H229235   9.284   2.822   0.865
 9665WAT      O29236   6.367   2.956   3.151
 9665WAT     H129237   6.337   3.017   3.224
 9665WAT     H229238   6.462   2.929   3.166
 9666WAT      O29239   9.612   4.226   1.699
 9666WAT     H129240   9.599   4.128   1.713
 9666WAT     H229241   9.630   4.270   1.787
 9667WAT      O29242   4.423   6.446   4.323
 9667WAT     H129243   4.404   6.357   4.364
 9667WAT     H229244   4.353   6.512   4.352
 9668WAT      O29245   8.101   5.813   6.037
 9668WAT     H129246   8.184   5.762   6.013
 9668WAT     H229247   8.123   5.911   6.040
 9669WAT      O29248   1.061   8.648   1.664
 9669WAT     H129249   0.990   8.580   1.648
 9669WAT     H229250   1.047   8.690   1.754
 9670WAT      O29251   8.906   8.009   2.125
 9670WAT     H129252   8.911   7.998   2.224
 9670WAT     H229253   8.820   8.054   2.100
 9671WAT      O29254   0.642   4.068   8.878
 9671WAT     H129255   0.645   3.968   8.869
 9671WAT     H229256   0.632   4.109   8.787
 9672WAT      O29257   8.725   9.662   2.695
 9672WAT     H129258   8.799   9.729   2.687
 9672WAT     H229259   8.637   9.710   2.695
 9673WAT      O29260   7.185   4.297   8.854
 9673WAT     H129261   7.126   4.226   8.891
 9673WAT     H229262   7.179   4.297   8.754
 9674WAT      O29263   4.339   8.195   9.704
 9674WAT     H129264   4.242   8.202   9.728
 9674WAT     H229265   4.351   8.128   9.631
 9675WAT      O29266   7.470   8.720   9.258
 9675WAT     H129267   7.380   8.704   9.301
 9675WAT     H229268   7.536   8.655   9.294
 9676WAT      O29269   5.131   4.543   0.141
 9676WAT     H129270   5.149   4.445   0.132
 9676WAT     H229271   5.217   4.592   0.155
 9677WAT      O29272   6.713   2.983   4.949
 9677WAT     H129273   6.687   3.072   4.911
 9677WAT     H229274   6.630   2.932   4.972
 9678WAT      O29275   9.635   1.907   1.582
 9678WAT     H129276   9.724   1.928   1.623
 9678WAT     H229277   9.638   1.929   1.485
 9679WAT      O29278   5.637   3.463   2.916
 9679WAT     H129279   5.659   3.516   2.998
 9679WAT     H229280   5.557   3.405   2.933
 9680WAT      O29281   6.000   1.550   7.584
 9680WAT     H129282   5.915   1.538   7.532
 9680WAT     H229283   6.077   1.515   7.531
 9681WAT      O29284   7.287   2.875   3.898
 9681WAT     H129285   7.364   2.871   3.833
 9681WAT     H229286   7.322   2.888   3.990
 9682WAT      O29287   0.383   6.587   3.726
 9682WAT     H129288   0.321   6.628   3.793
 9682WAT     H229289   0.475   6.579   3.765
 9683WAT      O29290   4.795   8.088   2.109
 9683WAT     H129291   4.782   8.164   2.046
 9683WAT     H229292   4.745   8.107   2.194
 9684WAT      O29293   9.773   3.090   0.017
 9684WAT     H129294   9.815   3.137  -0.061
 9684WAT     H229295   9.813   3.124   0.102
 9685WAT      O29296   4.566   4.336   9.207
 9685WAT     H129297   4.619   4.268   9.258
 9685WAT     H229298   4.469   4.312   9.210
 9686WAT      O29299   3.863   0.447   7.393
 9686WAT     H129300   3.826   0.452   7.486
 9686WAT     H229301   3.909   0.359   7.380
 9687WAT      O29302   4.102   6.276   9.028
 9687WAT     H129303   4.153   6.361   9.013
 9687WAT     H229304   4.141   6.228   9.108
 9688WAT      O29305   3.931   9.772   2.416
 9688WAT     H129306   3.975   9.846   2.467
 9688WAT     H229307   3.837   9.760   2.448
 9689WAT      O29308   4.511   4.662   4.046
 9689WAT     H129309   4.609   4.644   4.040
 9689WAT     H229310   4.478   4.637   4.137
 9690WAT      O29311   5.317   6.768   0.633
 9690WAT     H129312   5.228   6.812   0.620
 9690WAT     H229313   5.326   6.737   0.727
 9691WAT      O29314   8.594   3.487   5.578
 9691WAT     H129315   8.496   3.492   5.596
 9691WAT     H229316   8.613   3.412   5.515
 9692WAT      O29317   1.249   7.986   3.125
 9692WAT     H129318   1.243   7.942   3.035
 9692WAT     H229319   1.247   7.915   3.196
 9693WAT      O29320   9.105   7.903   0.295
 9693WAT     H129321   9.038   7.952   0.351
 9693WAT     H229322   9.102   7.805   0.316
 9694WAT      O29323   9.441   2.507   6.128
 9694WAT     H129324   9.457   2.572   6.054
 9694WAT     H229325   9.505   2.525   6.203
 9695WAT      O29326   4.821   5.001   0.139
 9695WAT     H129327   4.882   4.964   0.209
 9695WAT     H229328   4.739   5.038   0.183
 9696WAT      O29329   7.124   3.272   3.011
 9696WAT     H129330   7.107   3.177   3.038
 9696WAT     H229331   7.196   3.311   3.069
 9697WAT      O29332   2.776   2.827   8.070
 9697WAT     H129333   2.864   2.873   8.075
 9697WAT     H229334   2.724   2.844   8.153
 9698WAT      O29335   6.252   4.358   5.891
 9698WAT     H129336   6.172   4.393   5.843
 9698WAT     H229337   6.335   4.388   5.845
 9699WAT      O29338   5.386   6.734   0.127
 9699WAT     H129339   5.404   6.636   0.123
 9699WAT     H229340   5.452   6.777   0.190
 9700WAT      O29341   7.775   9.123   6.536
 9700WAT     H129342   7.839   9.194   6.566
 9700WAT     H229343   7.818   9.033   6.549
 9701WAT      O29344   6.261   0.876   5.258
 9701WAT     H129345   6.174   0.829   5.272
 9701WAT     H229346   6.337   0.813   5.276
 9702WAT      O29347   7.989   3.468   4.130
 9702WAT     H129348   7.916   3.403   4.108
 9702WAT     H229349   8.066   3.419   4.170
 9703WAT      O29350   9.782   6.723   8.627
 9703WAT     H129351   9.733   6.720   8.540
 9703WAT     H229352   9.855   6.654   8.626
 9704WAT      O29353   9.278   1.743   8.774
 9704WAT     H129354   9.199   1.682   8.771
 9704WAT     H229355   9.335   1.719   8.853
 9705WAT      O29356   8.385   5.996   7.237
 9705WAT     H129357   8.328   6.066   7.194
 9705WAT     H229358   8.464   5.978   7.179
 9706WAT      O29359   1.891   4.900   7.074
 9706WAT     H129360   1.945   4.984   7.086
 9706WAT     H229361   1.952   4.826   7.046
 9707WAT      O29362   4.958   6.257   6.333
 9707WAT     H129363   5.035   6.266   6.396
 9707WAT     H229364   4.873   6.245   6.386
 9708WAT      O29365   6.170   3.930   4.598
 9708WAT     H129366   6.113   3.855   4.567
 9708WAT     H229367   6.130   4.017   4.568
 9709WAT      O29368   4.982   6.124   2.126
 9709WAT     H129369   4.930   6.056   2.074
 9709WAT     H229370   4.998   6.089   2.219
 9710WAT      O29371   3.698   9.474   7.776
 9710WAT     H129372   3.764   9.546   7.750
 9710WAT     H229373   3.709   9.453   7.873
 9711WAT      O29374   0.065   3.550   0.798
 9711WAT     H129375   0.040   3.488   0.872
 9711WAT     H229376   0.150   3.597   0.820
 9712WAT      O29377   1.633   8.105   7.647
 9712WAT     H129378   1.599   8.020   7.688
 9712WAT     H229379   1.557   8.167   7.631
 9713WAT      O29380   2.658   3.229   1.820
 9713WAT     H129381   2.626   3.174   1.743
 9713WAT     H229382   2.758   3.231   1.820
 9714WAT      O29383   8.113   2.512   4.119
 9714WAT     H129384   8.084   2.550   4.031
 9714WAT     H229385   8.179   2.573   4.162
 9715WAT      O29386   1.260   2.761   9.151
 9715WAT     H129387   1.230   2.686   9.091
 9715WAT     H229388   1.311   2.724   9.228
 9716WAT      O29389   4.319   3.165   0.035
 9716WAT     H129390   4.275   3.186  -0.053
 9716WAT     H229391   4.253   3.178   0.109
 9717WAT      O29392   1.637   3.555   9.742
 9717WAT     H129393   1.638   3.471   9.687
 9717WAT     H229394   1.724   3.602   9.733
 9718WAT      O29395   1.717   2.334   2.262
 9718WAT     H129396   1.689   2.249   2.308
 9718WAT     H229397   1.700   2.326   2.164
 9719WAT      O29398   2.207   9.016   6.220
 9719WAT     H129399   2.142   9.082   6.181
 9719WAT     H229400   2.157   8.936   6.253
 9720WAT      O29401   7.950   8.576   2.937
 9720WAT     H129402   7.951   8.477   2.945
 9720WAT     H229403   7.989   8.604   2.849
 9721WAT      O29404   3.680   6.636   0.468
 9721WAT     H129405   3.612   6.629   0.395
 9721WAT     H229406   3.742   6.558   0.463
 9722WAT      O29407   2.139   5.099   6.311
 9722WAT     H129408   2.232   5.118   6.341
 9722WAT     H229409   2.130   5.002   6.288
 9723WAT      O29410   3.616   2.820   6.824
 9723WAT     H129411   3.637   2.733   6.869
 9723WAT     H229412   3.566   2.879   6.887
 9724WAT      O29413   5.964   3.882   5.134
 9724WAT     H129414   5.945   3.975   5.166
 9724WAT     H229415   6.030   3.839   5.195
 9725WAT      O29416   5.666   6.721   0.683
 9725WAT     H129417   5.751   6.773   0.674
 9725WAT     H229418   5.607   6.765   0.751
 9726WAT      O29419   6.186   4.448   8.336
 9726WAT     H129420   6.112   4.419   8.397
 9726WAT     H229421   6.151   4.511   8.268
 9727WAT      O29422   5.787   7.304   1.797
 9727WAT     H129423   5.749   7.372   1.860
 9727WAT     H229424   5.758   7.212   1.825
 9728WAT      O29425   6.325   5.950   1.863
 9728WAT     H129426   6.272   5.952   1.778
 9728WAT     H229427   6.388   5.872   1.861
 9729WAT      O29428   6.883   5.158   2.254
 9729WAT     H129429   6.860   5.152   2.157
 9729WAT     H229430   6.944   5.082   2.278
 9730WAT      O29431   9.462   9.485   4.888
 9730WAT     H129432   9.493   9.487   4.793
 9730WAT     H229433   9.510   9.412   4.937
 9731WAT      O29434   0.498   7.714   8.385
 9731WAT     H129435   0.466   7.809   8.383
 9731WAT     H229436   0.458   7.663   8.308
 9732WAT      O29437   0.837   3.331   6.515
 9732WAT     H129438   0.776   3.378   6.578
 9732WAT     H229439   0.802   3.239   6.496
 9733WAT      O29440   3.859   7.242   7.945
 9733WAT     H129441   3.817   7.161   7.985
 9733WAT     H229442   3.794   7.284   7.881
 9734WAT      O29443   8.156   2.645   7.250
 9734WAT     H129444   8.167   2.658   7.348
 9734WAT     H229445   8.178   2.550   7.226
 9735WAT      O29446   0.446   8.377   0.884
 9735WAT     H129447   0.498   8.357   0.967
 9735WAT     H229448   0.399   8.465   0.895
 9736WAT      O29449   6.988   5.055   5.970
 9736WAT     H129450   7.045   4.981   6.005
 9736WAT     H229451   7.017   5.079   5.878
 9737WAT      O29452   0.125   4.974   6.434
 9737WAT     H129453   0.133   4.898   6.499
 9737WAT     H229454   0.177   5.052   6.469
 9738WAT      O29455   4.895   7.509   4.554
 9738WAT     H129456   4.870   7.439   4.621
 9738WAT     H229457   4.849   7.490   4.467
 9739WAT      O29458   7.090   1.584   3.242
 9739WAT     H129459   7.166   1.519   3.242
 9739WAT     H229460   7.121   1.672   3.277
 9740WAT      O29461   1.365   7.351   9.380
 9740WAT     H129462   1.415   7.384   9.300
 9740WAT     H229463   1.267   7.360   9.363
 9741WAT      O29464   8.051   6.891   4.501
 9741WAT     H129465   8.025   6.985   4.478
 9741WAT     H229466   8.067   6.885   4.600
 9742WAT      O29467   2.643   1.203   1.322
 9742WAT     H129468   2.668   1.126   1.380
 9742WAT     H229469   2.699   1.283   1.346
 9743WAT      O29470   6.385   8.870   6.837
 9743WAT     H129471   6.480   8.898   6.850
 9743WAT     H229472   6.368   8.785   6.888
 9744WAT      O29473   0.004   6.937   4.732
 9744WAT     H129474  -0.068   6.994   4.692
 9744WAT     H229475   0.071   6.996   4.777
 9745WAT      O29476   5.763   3.261   8.965
 9745WAT     H129477   5.677   3.306   8.940
 9745WAT     H229478   5.744   3.173   9.008
 9746WAT      O29479   7.297   8.734   2.399
 9746WAT     H129480   7.377   8.688   2.437
 9746WAT     H229481   7.221   8.729   2.464
 9747WAT      O29482   9.667   8.759   3.479
 9747WAT     H129483   9.671   8.802   3.388
 9747WAT     H229484   9.750   8.783   3.530
 9748WAT      O29485   3.960   0.513   2.113
 9748WAT     H129486   3.884   0.458   2.145
 9748WAT     H229487   4.019   0.537   2.190
 9749WAT      O29488   3.821   4.661   2.608
 9749WAT     H129489   3.816   4.582   2.669
 9749WAT     H229490   3.827   4.744   2.663
 9750WAT      O29491   7.868   0.219   3.569
 9750WAT     H129492   7.802   0.152   3.536
 9750WAT     H229493   7.822   0.307   3.583
 9751WAT      O29494   1.245   4.717   3.334
 9751WAT     H129495   1.261   4.622   3.306
 9751WAT     H229496   1.180   4.718   3.410
 9752WAT      O29497   8.621   3.738   1.615
 9752WAT     H129498   8.655   3.824   1.654
 9752WAT     H229499   8.546   3.703   1.671
 9753WAT      O29500   3.324   9.152   1.793
 9753WAT     H129501   3.264   9.147   1.873
 9753WAT     H229502   3.327   9.246   1.759
 9754WAT      O29503   7.354   0.325   7.078
 9754WAT     H129504   7.416   0.323   7.156
 9754WAT     H229505   7.261   0.346   7.110
 9755WAT      O29506   4.555   5.512   1.111
 9755WAT     H129507   4.545   5.611   1.101
 9755WAT     H229508   4.649   5.486   1.089
 9756WAT      O29509   9.652   0.704   5.089
 9756WAT     H129510   9.723   0.653   5.139
 9756WAT     H229511   9.562   0.672   5.118
 9757WAT      O29512   4.901   6.364   3.127
 9757WAT     H129513   4.851   6.277   3.127
 9757WAT     H229514   4.995   6.348   3.158
 9758WAT      O29515   1.924   0.473   2.729
 9758WAT     H129516   1.991   0.539   2.763
 9758WAT     H229517   1.971   0.391   2.696
 9759WAT      O29518   5.251   1.803   4.170
 9759WAT     H129519   5.303   1.739   4.226
 9759WAT     H229520   5.226   1.759   4.083
 9760WAT      O29521   8.348   5.820   5.695
 9760WAT     H129522   8.333   5.744   5.631
 9760WAT     H229523   8.356   5.783   5.788
 9761WAT      O29524   9.451   6.604   8.743
 9761WAT     H129525   9.412   6.628   8.654
 9761WAT     H229526   9.534   6.550   8.730
 9762WAT      O29527   3.876   0.027   0.229
 9762WAT     H129528   3.856   0.122   0.253
 9762WAT     H229529   3.930   0.024   0.145
 9763WAT      O29530   8.035   8.007   8.041
 9763WAT     H129531   7.997   8.044   7.955
 9763WAT     H229532   8.126   8.045   8.056
 9764WAT      O29533   7.671   3.392   0.863
 9764WAT     H129534   7.612   3.364   0.788
 9764WAT     H229535   7.720   3.313   0.899
 9765WAT      O29536   6.369   7.239   9.790
 9765WAT     H129537   6.294   7.299   9.764
 9765WAT     H229538   6.377   7.236   9.890
 9766WAT      O29539   5.827   4.523   3.072
 9766WAT     H129540   5.843   4.464   3.152
 9766WAT     H229541   5.891   4.600   3.074
 9767WAT      O29542   2.385   9.752   5.236
 9767WAT     H129543   2.459   9.686   5.226
 9767WAT     H229544   2.422   9.838   5.271
 9768WAT      O29545   4.747   0.861   1.692
 9768WAT     H129546   4.758   0.931   1.763
 9768WAT     H229547   4.651   0.833   1.688
 9769WAT      O29548   0.846   3.945   6.785
 9769WAT     H129549   0.940   3.949   6.819
 9769WAT     H229550   0.848   3.939   6.685
 9770WAT      O29551   3.737   5.231   8.608
 9770WAT     H129552   3.743   5.258   8.512
 9770WAT     H229553   3.819   5.178   8.632
 9771WAT      O29554   3.508   5.992   1.503
 9771WAT     H129555   3.597   6.033   1.518
 9771WAT     H229556   3.488   5.926   1.575
 9772WAT      O29557   1.992   6.091   7.901
 9772WAT     H129558   1.933   6.076   7.822
 9772WAT     H229559   1.987   6.013   7.962
 9773WAT      O29560   0.623   7.278   1.728
 9773WAT     H129561   0.564   7.357   1.707
 9773WAT     H229562   0.603   7.246   1.820
 9774WAT      O29563   3.522   6.378   7.631
 9774WAT     H129564   3.508   6.462   7.580
 9774WAT     H229565   3.620   6.358   7.636
 9775WAT      O29566   4.168   0.203   0.473
 9775WAT     H129567   4.268   0.205   0.474
 9775WAT     H229568   4.133   0.293   0.446
 9776WAT      O29569   7.083   4.643   7.749
 9776WAT     H129570   7.115   4.722   7.697
 9776WAT     H229571   7.066   4.566   7.687
 9777WAT      O29572   4.500   0.785   9.710
 9777WAT     H129573   4.568   0.843   9.665
 9777WAT     H229574   4.486   0.816   9.804
 9778WAT      O29575   2.762   6.693   6.977
 9778WAT     H129576   2.717   6.633   7.042
 9778WAT     H229577   2.811   6.638   6.909
 9779WAT      O29578   4.266   8.984   6.108
 9779WAT     H129579   4.329   9.053   6.073
 9779WAT     H229580   4.176   9.025   6.123
 9780WAT      O29581   6.605   0.685   6.214
 9780WAT     H129582   6.574   0.626   6.140
 9780WAT     H229583   6.692   0.653   6.249
 9781WAT      O29584   6.102   3.803   7.314
 9781WAT     H129585   6.005   3.823   7.306
 9781WAT     H229586   6.126   3.790   7.410
 9782WAT      O29587   9.480   4.763   5.208
 9782WAT     H129588   9.418   4.815   5.149
 9782WAT     H229589   9.431   4.683   5.245
 9783WAT      O29590   2.396   3.235   8.036
 9783WAT     H129591   2.342   3.173   7.978
 9783WAT     H229592   2.492   3.232   8.007
 9784WAT      O29593   7.909   6.253   2.594
 9784WAT     H129594   7.941   6.191   2.666
 9784WAT     H229595   7.958   6.340   2.602
 9785WAT      O29596   1.123   2.926   2.476
 9785WAT     H129597   1.086   3.012   2.510
 9785WAT     H229598   1.200   2.945   2.415
 9786WAT      O29599   7.018   9.083   3.548
 9786WAT     H129600   7.114   9.106   3.533
 9786WAT     H229601   7.002   9.065   3.645
 9787WAT      O29602   5.537   3.713   9.448
 9787WAT     H129603   5.514   3.760   9.363
 9787WAT     H229604   5.578   3.624   9.426
 9788WAT      O29605   7.873   2.288   8.367
 9788WAT     H129606   7.943   2.345   8.411
 9788WAT     H229607   7.810   2.347   8.317
 9789WAT      O29608   0.367   0.015   0.313
 9789WAT     H129609   0.459   0.029   0.277
 9789WAT     H229610   0.305   0.083   0.273
 9790WAT      O29611   9.735   2.495   9.392
 9790WAT     H129612   9.645   2.511   9.434
 9790WAT     H229613   9.728   2.507   9.293
 9791WAT      O29614   9.155   5.804   8.400
 9791WAT     H129615   9.232   5.867   8.413
 9791WAT     H229616   9.112   5.823   8.312
 9792WAT      O29617   7.123   7.669   8.050
 9792WAT     H129618   7.141   7.732   8.125
 9792WAT     H229619   7.205   7.659   7.994
 9793WAT      O29620   7.076   6.419   5.199
 9793WAT     H129621   7.091   6.452   5.106
 9793WAT     H229622   7.117   6.328   5.209
 9794WAT      O29623   6.100   2.200   8.244
 9794WAT     H129624   6.094   2.132   8.172
 9794WAT     H229625   6.112   2.291   8.204
 9795WAT      O29626   8.086   5.938   0.461
 9795WAT     H129627   8.151   6.002   0.420
 9795WAT     H229628   8.065   5.866   0.396
 9796WAT      O29629   4.605   5.170   0.201
 9796WAT     H129630   4.619   5.171   0.102
 9796WAT     H229631   4.624   5.261   0.238
 9797WAT      O29632   6.138   2.882   0.662
 9797WAT     H129633   6.211   2.856   0.599
 9797WAT     H229634   6.126   2.810   0.731
 9798WAT      O29635   1.060   2.760   5.613
 9798WAT     H129636   1.102   2.847   5.585
 9798WAT     H229637   1.068   2.695   5.538
 9799WAT      O29638   9.788   2.479   8.214
 9799WAT     H129639   9.864   2.535   8.249
 9799WAT     H229640   9.702   2.528   8.227
 9800WAT      O29641   8.940   2.412   3.171
 9800WAT     H129642   8.986   2.501   3.181
 9800WAT     H229643   9.005   2.345   3.135
 9801WAT      O29644   7.848   0.679   8.424
 9801WAT     H129645   7.792   0.602   8.390
 9801WAT     H229646   7.920   0.699   8.358
 9802WAT      O29647   9.776   6.910   6.657
 9802WAT     H129648   9.683   6.904   6.621
 9802WAT     H229649   9.838   6.943   6.586
 9803WAT      O29650   6.585   3.058   2.679
 9803WAT     H129651   6.570   2.960   2.670
 9803WAT     H229652   6.633   3.092   2.598
 9804WAT      O29653   2.424   3.667   7.668
 9804WAT     H129654   2.383   3.584   7.631
 9804WAT     H229655   2.518   3.648   7.697
 9805WAT      O29656   4.862   2.586   0.695
 9805WAT     H129657   4.867   2.501   0.642
 9805WAT     H229658   4.938   2.646   0.670
 9806WAT      O29659   3.677   6.306   0.351
 9806WAT     H129660   3.765   6.341   0.385
 9806WAT     H229661   3.675   6.206   0.362
 9807WAT      O29662   0.266   5.591   2.155
 9807WAT     H129663   0.216   5.525   2.210
 9807WAT     H229664   0.358   5.557   2.136
 9808WAT      O29665   9.821   8.849   9.098
 9808WAT     H129666   9.901   8.789   9.093
 9808WAT     H229667   9.737   8.795   9.091
 9809WAT      O29668   1.189   3.195   6.748
 9809WAT     H129669   1.193   3.186   6.648
 9809WAT     H229670   1.142   3.280   6.772
 9810WAT      O29671   8.570   7.592   9.651
 9810WAT     H129672   8.480   7.563   9.685
 9810WAT     H229673   8.633   7.604   9.728
 9811WAT      O29674   6.108   7.362   4.518
 9811WAT     H129675   6.103   7.286   4.584
 9811WAT     H229676   6.187   7.420   4.541
 9812WAT      O29677   8.286   7.186   5.270
 9812WAT     H129678   8.319   7.233   5.352
 9812WAT     H229679   8.219   7.244   5.223
 9813WAT      O29680   1.255   0.265   8.588
 9813WAT     H129681   1.165   0.266   8.631
 9813WAT     H229682   1.257   0.195   8.515
 9814WAT      O29683   0.376   2.893   4.037
 9814WAT     H129684   0.428   2.947   4.104
 9814WAT     H229685   0.285   2.873   4.074
 9815WAT      O29686   6.529   8.329   0.958
 9815WAT     H129687   6.526   8.241   0.912
 9815WAT     H229688   6.523   8.315   1.057
 9816WAT      O29689   8.444   4.384   6.840
 9816WAT     H129690   8.497   4.301   6.859
 9816WAT     H229691   8.505   4.463   6.836
 9817WAT      O29692   9.284   6.852   5.193
 9817WAT     H129693   9.340   6.786   5.244
 9817WAT     H229694   9.219   6.895   5.254
 9818WAT      O29695   1.015   7.280   5.367
 9818WAT     H129696   1.052   7.190   5.392
 9818WAT     H229697   1.057   7.310   5.281
 9819WAT      O29698   5.159   6.228   4.982
 9819WAT     H129699   5.080   6.240   5.042
 9819WAT     H229700   5.128   6.197   4.892
 9820WAT      O29701   7.506   8.830   9.031
 9820WAT     H129702   7.480   8.804   9.124
 9820WAT     H229703   7.605   8.822   9.020
 9821WAT      O29704   4.444   2.648   2.658
 9821WAT     H129705   4.356   2.681   2.694
 9821WAT     H229706   4.442   2.548   2.652
 9822WAT      O29707   6.096   8.353   1.403
 9822WAT     H129708   6.145   8.374   1.318
 9822WAT     H229709   6.044   8.433   1.432
 9823WAT      O29710   2.378   1.174   6.876
 9823WAT     H129711   2.403   1.095   6.931
 9823WAT     H229712   2.304   1.149   6.813
 9824WAT      O29713   6.845   8.533   6.651
 9824WAT     H129714   6.893   8.450   6.681
 9824WAT     H229715   6.787   8.566   6.725
 9825WAT      O29716   5.312   6.882   4.895
 9825WAT     H129717   5.303   6.981   4.886
 9825WAT     H229718   5.375   6.847   4.826
 9826WAT      O29719   5.793   6.299   5.903
 9826WAT     H129720   5.867   6.250   5.949
 9826WAT     H229721   5.800   6.396   5.925
 9827WAT      O29722   1.990   3.147   0.925
 9827WAT     H129723   1.992   3.238   0.882
 9827WAT     H229724   1.895   3.122   0.944
 9828WAT      O29725   9.846   2.176   6.771
 9828WAT     H129726   9.764   2.162   6.716
 9828WAT     H229727   9.924   2.191   6.711
 9829WAT      O29728   5.328   9.350   5.238
 9829WAT     H129729   5.426   9.361   5.223
 9829WAT     H229730   5.294   9.425   5.294
 9830WAT      O29731   9.455   3.444   6.826
 9830WAT     H129732   9.382   3.477   6.886
 9830WAT     H229733   9.415   3.412   6.740
 9831WAT      O29734   3.082   9.724   7.992
 9831WAT     H129735   3.088   9.824   8.000
 9831WAT     H229736   3.134   9.682   8.067
 9832WAT      O29737   8.056   1.442   1.259
 9832WAT     H129738   8.091   1.531   1.288
 9832WAT     H229739   8.022   1.448   1.165
 9833WAT      O29740   3.743   2.442   1.621
 9833WAT     H129741   3.779   2.503   1.691
 9833WAT     H229742   3.759   2.481   1.531
 9834WAT      O29743   5.991   3.269   8.764
 9834WAT     H129744   5.956   3.256   8.856
 9834WAT     H229745   6.052   3.348   8.763
 9835WAT      O29746   0.833   3.588   1.824
 9835WAT     H129747   0.931   3.585   1.842
 9835WAT     H229748   0.792   3.499   1.845
 9836WAT      O29749   9.495   3.512   1.335
 9836WAT     H129750   9.450   3.503   1.246
 9836WAT     H229751   9.594   3.500   1.323
 9837WAT      O29752   7.291   7.123   3.417
 9837WAT     H129753   7.254   7.211   3.387
 9837WAT     H229754   7.385   7.113   3.384
 9838WAT      O29755   1.393   1.701   0.821
 9838WAT     H129756   1.336   1.673   0.744
 9838WAT     H229757   1.362   1.790   0.854
 9839WAT      O29758   8.667   7.644   1.102
 9839WAT     H129759   8.654   7.659   1.201
 9839WAT     H229760   8.585   7.601   1.064
 9840WAT      O29761   4.334   9.328   3.226
 9840WAT     H129762   4.276   9.406   3.202
 9840WAT     H229763   4.387   9.301   3.145
 9841WAT      O29764   8.899   8.161   4.516
 9841WAT     H129765   8.820   8.100   4.515
 9841WAT     H229766   8.982   8.109   4.498
 9842WAT      O29767   8.134   2.547   5.177
 9842WAT     H129768   8.148   2.619   5.245
 9842WAT     H229769   8.180   2.572   5.092
 9843WAT      O29770   2.254   0.501   0.098
 9843WAT     H129771   2.249   0.405   0.070
 9843WAT     H229772   2.331   0.513   0.161
 9844WAT      O29773   6.198   2.255   0.049
 9844WAT     H129774   6.162   2.171   0.088
 9844WAT     H229775   6.126   2.303  -0.000
 9845WAT      O29776   2.229   2.729   0.514
 9845WAT     H129777   2.134   2.739   0.486
 9845WAT     H229778   2.281   2.684   0.442
 9846WAT      O29779   7.260   4.722   4.186
 9846WAT     H129780   7.212   4.705   4.272
 9846WAT     H229781   7.358   4.726   4.202
 9847WAT      O29782   5.607   4.373   7.968
 9847WAT     H129783   5.592   4.274   7.965
 9847WAT     H229784   5.640   4.405   7.879
 9848WAT      O29785   0.760   2.566   1.008
 9848WAT     H129786   0.682   2.627   0.992
 9848WAT     H229787   0.763   2.497   0.935
 9849WAT      O29788   5.860   2.756   8.084
 9849WAT     H129789   5.879   2.851   8.108
 9849WAT     H229790   5.864   2.745   7.985
 9850WAT      O29791   3.637   1.376   9.604
 9850WAT     H129792   3.661   1.324   9.686
 9850WAT     H229793   3.539   1.395   9.604
 9851WAT      O29794   0.664   3.024   7.402
 9851WAT     H129795   0.670   2.970   7.486
 9851WAT     H229796   0.746   3.081   7.393
 9852WAT      O29797   1.558   4.509   2.099
 9852WAT     H129798   1.606   4.445   2.160
 9852WAT     H229799   1.481   4.550   2.148
 9853WAT      O29800   2.576   9.494   8.442
 9853WAT     H129801   2.546   9.568   8.502
 9853WAT     H229802   2.623   9.533   8.363
 9854WAT      O29803   0.639   0.084   0.249
 9854WAT     H129804   0.673   0.052   0.337
 9854WAT     H229805   0.656   0.014   0.179
 9855WAT      O29806   3.773   2.805   2.956
 9855WAT     H129807   3.722   2.887   2.980
 9855WAT     H229808   3.749   2.777   2.863
 9856WAT      O29809   4.443   6.026   3.697
 9856WAT     H129810   4.345   6.006   3.696
 9856WAT     H229811   4.481   6.004   3.787
 9857WAT      O29812   2.876   9.283   2.104
 9857WAT     H129813   2.878   9.337   2.188
 9857WAT     H229814   2.844   9.190   2.124
 9858WAT      O29815   1.395   7.084   6.587
 9858WAT     H129816   1.392   6.994   6.629
 9858WAT     H229817   1.390   7.155   6.657
 9859WAT      O29818   9.642   4.744   7.815
 9859WAT     H129819   9.597   4.673   7.870
 9859WAT     H229820   9.662   4.823   7.873
 9860WAT      O29821   3.429   4.394   4.771
 9860WAT     H129822   3.407   4.480   4.725
 9860WAT     H229823   3.444   4.412   4.868
 9861WAT      O29824   3.416   0.621   1.498
 9861WAT     H129825   3.457   0.659   1.415
 9861WAT     H229826   3.353   0.688   1.537
 9862WAT      O29827   2.556   3.666   5.347
 9862WAT     H129828   2.490   3.625   5.409
 9862WAT     H229829   2.507   3.722   5.279
 9863WAT      O29830   0.099   2.395   9.843
 9863WAT     H129831   0.099   2.492   9.816
 9863WAT     H229832   0.012   2.354   9.815
 9864WAT      O29833   8.771   6.793   7.072
 9864WAT     H129834   8.671   6.794   7.067
 9864WAT     H229835   8.808   6.870   7.020
 9865WAT      O29836   3.272   5.231   9.803
 9865WAT     H129837   3.253   5.237   9.901
 9865WAT     H229838   3.280   5.323   9.765
 9866WAT      O29839   4.475   1.666   3.655
 9866WAT     H129840   4.490   1.572   3.622
 9866WAT     H229841   4.385   1.698   3.625
 9867WAT      O29842   8.806   1.275   0.416
 9867WAT     H129843   8.850   1.359   0.386
 9867WAT     H229844   8.762   1.231   0.338
 9868WAT      O29845   3.636   4.038   0.851
 9868WAT     H129846   3.572   4.037   0.928
 9868WAT     H229847   3.589   4.008   0.768
 9869WAT      O29848   9.333   2.537   8.754
 9869WAT     H129849   9.335   2.440   8.775
 9869WAT     H229850   9.370   2.552   8.662
 9870WAT      O29851   3.273   2.528   1.540
 9870WAT     H129852   3.335   2.530   1.619
 9870WAT     H229853   3.311   2.584   1.466
 9871WAT      O29854   5.448   7.461   5.116
 9871WAT     H129855   5.481   7.555   5.106
 9871WAT     H229856   5.508   7.411   5.178
 9872WAT      O29857   1.127   6.777   5.938
 9872WAT     H129858   1.071   6.743   5.862
 9872WAT     H229859   1.080   6.854   5.982
 9873WAT      O29860   5.699   7.076   4.880
 9873WAT     H129861   5.670   6.980   4.889
 9873WAT     H229862   5.619   7.135   4.871
 9874WAT      O29863   4.455   8.731   8.619
 9874WAT     H129864   4.455   8.824   8.582
 9874WAT     H229865   4.549   8.698   8.626
 9875WAT      O29866   9.621   1.003   1.855
 9875WAT     H129867   9.638   0.993   1.953
 9875WAT     H229868   9.558   0.932   1.825
 9876WAT      O29869   6.722   4.993   8.415
 9876WAT     H129870   6.680   5.011   8.504
 9876WAT     H229871   6.651   4.995   8.344
 9877WAT      O29872   4.390   1.035   7.860
 9877WAT     H129873   4.401   1.095   7.939
 9877WAT     H229874   4.435   0.947   7.879
 9878WAT      O29875   4.568   0.090   2.258
 9878WAT     H129876   4.576   0.153   2.336
 9878WAT     H229877   4.657   0.078   2.215
 9879WAT      O29878   4.748   0.719   0.330
 9879WAT     H129879   4.831   0.774   0.321
 9879WAT     H229880   4.771   0.633   0.376
 9880WAT      O29881   3.734   5.495   9.244
 9880WAT     H129882   3.770   5.485   9.337
 9880WAT     H229883   3.640   5.528   9.248
 9881WAT      O29884   0.855   7.783   4.884
 9881WAT     H129885   0.899   7.784   4.794
 9881WAT     H229886   0.894   7.710   4.939
 9882WAT      O29887   5.220   6.645   5.206
 9882WAT     H129888   5.224   6.546   5.222
 9882WAT     H229889   5.243   6.694   5.290
 9883WAT      O29890   9.845   6.622   1.762
 9883WAT     H129891   9.813   6.614   1.857
 9883WAT     H229892   9.768   6.649   1.704
 9884WAT      O29893   1.449   2.844   7.220
 9884WAT     H129894   1.452   2.762   7.277
 9884WAT     H229895   1.380   2.907   7.256
 9885WAT      O29896   7.571   0.126   0.172
 9885WAT     H129897   7.499   0.065   0.204
 9885WAT     H229898   7.628   0.155   0.249
 9886WAT      O29899   1.221   1.667   4.939
 9886WAT     H129900   1.317   1.663   4.910
 9886WAT     H229901   1.214   1.714   5.027
 9887WAT      O29902   1.811   3.225   4.789
 9887WAT     H129903   1.765   3.251   4.704
 9887WAT     H229904   1.743   3.198   4.858
 9888WAT      O29905   4.709   4.339   5.898
 9888WAT     H129906   4.760   4.261   5.933
 9888WAT     H229907   4.611   4.325   5.916
 9889WAT      O29908   8.093   8.714   6.192
 9889WAT     H129909   8.149   8.635   6.216
 9889WAT     H229910   8.045   8.747   6.274
 9890WAT      O29911   8.058   6.445   8.487
 9890WAT     H129912   8.087   6.523   8.542
 9890WAT     H229913   8.137   6.385   8.471
 9891WAT      O29914   2.714   4.438   3.605
 9891WAT     H129915   2.635   4.472   3.656
 9891WAT     H229916   2.792   4.499   3.620
 9892WAT      O29917   9.878   0.202   4.089
 9892WAT     H129918   9.907   0.297   4.092
 9892WAT     H229919   9.912   0.154   4.170
 9893WAT      O29920   3.574   5.988   7.077
 9893WAT     H129921   3.663   6.031   7.090
 9893WAT     H229922   3.527   5.980   7.165
 9894WAT      O29923   6.941   9.417   0.658
 9894WAT     H129924   7.024   9.471   0.642
 9894WAT     H229925   6.880   9.467   0.720
 9895WAT      O29926   2.880   7.217   4.145
 9895WAT     H129927   2.912   7.243   4.054
 9895WAT     H229928   2.955   7.177   4.197
 9896WAT      O29929   5.376   7.288   3.487
 9896WAT     H129930   5.452   7.233   3.522
 9896WAT     H229931   5.337   7.243   3.407
 9897WAT      O29932   3.113   3.905   1.844
 9897WAT     H129933   3.079   3.998   1.859
 9897WAT     H229934   3.080   3.846   1.917
 9898WAT      O29935   8.059   2.944   8.073
 9898WAT     H129936   8.046   2.970   7.977
 9898WAT     H229937   8.026   2.850   8.086
 9899WAT      O29938   3.705   1.133   7.358
 9899WAT     H129939   3.754   1.093   7.435
 9899WAT     H229940   3.700   1.232   7.369
 9900WAT      O29941   3.349   9.603   9.523
 9900WAT     H129942   3.430   9.556   9.557
 9900WAT     H229943   3.294   9.635   9.601
 9901WAT      O29944   5.579   1.402   3.925
 9901WAT     H129945   5.549   1.363   3.838
 9901WAT     H229946   5.583   1.501   3.918
 9902WAT      O29947   0.695   5.290   6.910
 9902WAT     H129948   0.623   5.346   6.870
 9902WAT     H229949   0.663   5.252   6.997
 9903WAT      O29950   8.222   4.681   7.095
 9903WAT     H129951   8.139   4.728   7.065
 9903WAT     H229952   8.231   4.688   7.194
 9904WAT      O29953   4.225   6.659   6.747
 9904WAT     H129954   4.175   6.718   6.810
 9904WAT     H229955   4.241   6.708   6.661
 9905WAT      O29956   7.013   2.711   6.263
 9905WAT     H129957   6.993   2.745   6.355
 9905WAT     H229958   7.031   2.613   6.266
 9906WAT      O29959   7.464   3.403   9.268
 9906WAT     H129960   7.398   3.333   9.242
 9906WAT     H229961   7.557   3.369   9.249
 9907WAT      O29962   1.533   4.030   8.823
 9907WAT     H129963   1.504   4.118   8.861
 9907WAT     H229964   1.519   3.958   8.891
 9908WAT      O29965   2.642   2.591   0.852
 9908WAT     H129966   2.586   2.661   0.808
 9908WAT     H229967   2.722   2.572   0.796
 9909WAT      O29968   1.209   4.270   1.955
 9909WAT     H129969   1.212   4.350   1.895
 9909WAT     H229970   1.274   4.202   1.923
 9910WAT      O29971   2.512   4.824   2.361
 9910WAT     H129972   2.470   4.744   2.404
 9910WAT     H229973   2.540   4.801   2.268
 9911WAT      O29974   8.326   1.070   2.022
 9911WAT     H129975   8.340   1.169   2.009
 9911WAT     H229976   8.246   1.041   1.970
 9912WAT      O29977   5.684   4.058   3.825
 9912WAT     H129978   5.779   4.041   3.850
 9912WAT     H229979   5.650   3.983   3.769
 9913WAT      O29980   2.358   9.371   9.099
 9913WAT     H129981   2.428   9.401   9.035
 9913WAT     H229982   2.401   9.330   9.179
 9914WAT      O29983   1.962   7.719   4.982
 9914WAT     H129984   2.019   7.678   5.054
 9914WAT     H229985   1.956   7.656   4.905
 9915WAT      O29986   0.621   3.544   8.561
 9915WAT     H129987   0.533   3.590   8.558
 9915WAT     H229988   0.642   3.518   8.656
 9916WAT      O29989   5.506   3.636   3.266
 9916WAT     H129990   5.597   3.611   3.231
 9916WAT     H229991   5.442   3.640   3.190
 9917WAT      O29992   1.446   0.027   0.217
 9917WAT     H129993   1.543   0.022   0.196
 9917WAT     H229994   1.420  -0.050   0.275
 9918WAT      O29995   2.565   7.787   5.726
 9918WAT     H129996   2.589   7.726   5.801
 9918WAT     H229997   2.476   7.762   5.689
 9919WAT      O29998   6.055   7.402   0.270
 9919WAT     H129999   6.139   7.380   0.319
 9919WAT     H230000   5.998   7.461   0.328
 9920WAT      O30001   9.243   6.297   8.208
 9920WAT     H130002   9.271   6.369   8.144
 9920WAT     H230003   9.313   6.225   8.210
 9921WAT      O30004   2.337   5.624   7.829
 9921WAT     H130005   2.249   5.584   7.802
 9921WAT     H230006   2.392   5.555   7.876
 9922WAT      O30007   0.901   8.920   8.582
 9922WAT     H130008   0.829   8.858   8.614
 9922WAT     H230009   0.904   8.919   8.482
 9923WAT      O30010   4.006   2.753   8.557
 9923WAT     H130011   4.066   2.758   8.476
 9923WAT     H230012   4.005   2.843   8.602
 9924WAT      O30013   6.754   7.795   4.288
 9924WAT     H130014   6.696   7.777   4.209
 9924WAT     H230015   6.823   7.864   4.264
 9925WAT      O30016   2.456   6.265   3.174
 9925WAT     H130017   2.365   6.264   3.217
 9925WAT     H230018   2.480   6.173   3.143
 9926WAT      O30019   8.258   3.669   2.384
 9926WAT     H130020   8.328   3.700   2.449
 9926WAT     H230021   8.233   3.575   2.404
 9927WAT      O30022   4.821   7.723   6.612
 9927WAT     H130023   4.841   7.805   6.557
 9927WAT     H230024   4.906   7.676   6.634
 9928WAT      O30025   2.881   0.774   6.722
 9928WAT     H130026   2.971   0.775   6.767
 9928WAT     H230027   2.893   0.773   6.623
 9929WAT      O30028   2.710   5.772   3.686
 9929WAT     H130029   2.783   5.825   3.644
 9929WAT     H230030   2.681   5.817   3.771
 9930WAT      O30031   8.307   6.275   9.731
 9930WAT     H130032   8.306   6.350   9.665
 9930WAT     H230033   8.241   6.205   9.703
 9931WAT      O30034   3.762   6.117   0.613
 9931WAT     H130035   3.699   6.193   0.596
 9931WAT     H230036   3.816   6.101   0.530
 9932WAT      O30037   9.161   9.137   4.895
 9932WAT     H130038   9.239   9.145   4.956
 9932WAT     H230039   9.093   9.074   4.934
 9933WAT      O30040   3.801   1.369   6.809
 9933WAT     H130041   3.886   1.381   6.860
 9933WAT     H230042   3.726   1.354   6.873
 9934WAT      O30043   5.497   0.066   8.332
 9934WAT     H130044   5.555  -0.011   8.306
 9934WAT     H230045   5.418   0.032   8.383
 9935WAT      O30046   8.528   4.882   0.172
 9935WAT     H130047   8.459   4.951   0.147
 9935WAT     H230048   8.610   4.929   0.203
 9936WAT      O30049   3.639   0.364   4.465
 9936WAT     H130050   3.731   0.397   4.448
 9936WAT     H230051   3.581   0.383   4.386
 9937WAT      O30052   7.659   7.911   1.021
 9937WAT     H130053   7.642   7.984   1.087
 9937WAT     H230054   7.723   7.942   0.952
 9938WAT      O30055   0.048   2.770   3.652
 9938WAT     H130056   0.129   2.797   3.600
 9938WAT     H230057   0.073   2.754   3.747
 9939WAT      O30058   3.130   5.380   7.704
 9939WAT     H130059   3.093   5.302   7.653
 9939WAT     H230060   3.081   5.388   7.791
 9940WAT      O30061   0.496   4.908   8.406
 9940WAT     H130062   0.501   4.909   8.506
 9940WAT     H230063   0.406   4.940   8.377
 9941WAT      O30064   9.584   3.146   5.846
 9941WAT     H130065   9.618   3.052   5.852
 9941WAT     H230066   9.661   3.208   5.827
 9942WAT      O30067   1.732   8.822   1.459
 9942WAT     H130068   1.803   8.784   1.400
 9942WAT     H230069   1.718   8.762   1.538
 9943WAT      O30070   9.444   0.741   4.183
 9943WAT     H130071   9.500   0.716   4.104
 9943WAT     H230072   9.378   0.667   4.202
 9944WAT      O30073   0.801   0.966   0.054
 9944WAT     H130074   0.869   0.894   0.071
 9944WAT     H230075   0.817   1.042   0.116
 9945WAT      O30076   9.384   2.333   5.933
 9945WAT     H130077   9.404   2.235   5.947
 9945WAT     H230078   9.403   2.383   6.017
 9946WAT      O30079   3.807   7.346   1.780
 9946WAT     H130080   3.861   7.421   1.821
 9946WAT     H230081   3.812   7.266   1.839
 9947WAT      O30082   4.642   3.117   5.306
 9947WAT     H130083   4.718   3.123   5.241
 9947WAT     H230084   4.622   3.021   5.326
 9948WAT      O30085   3.818   0.716   2.305
 9948WAT     H130086   3.904   0.678   2.340
 9948WAT     H230087   3.752   0.643   2.292
 9949WAT      O30088   0.290   6.719   7.759
 9949WAT     H130089   0.343   6.715   7.675
 9949WAT     H230090   0.251   6.810   7.769
 9950WAT      O30091   3.184   5.026   2.094
 9950WAT     H130092   3.244   4.984   2.026
 9950WAT     H230093   3.238   5.085   2.154
 9951WAT      O30094   1.210   4.147   3.639
 9951WAT     H130095   1.219   4.223   3.703
 9951WAT     H230096   1.212   4.060   3.689
 9952WAT      O30097   5.466   2.479   8.016
 9952WAT     H130098   5.534   2.529   8.070
 9952WAT     H230099   5.472   2.508   7.921
 9953WAT      O30100   4.552   1.588   6.250
 9953WAT     H130101   4.457   1.585   6.220
 9953WAT     H230102   4.555   1.575   6.349
 9954WAT      O30103   9.721   6.074   3.600
 9954WAT     H130104   9.742   6.157   3.548
 9954WAT     H230105   9.695   6.001   3.537
 9955WAT      O30106   0.534   9.346   8.577
 9955WAT     H130107   0.529   9.429   8.633
 9955WAT     H230108   0.542   9.266   8.637
 9956WAT      O30109   4.248   0.410   3.866
 9956WAT     H130110   4.219   0.489   3.920
 9956WAT     H230111   4.247   0.433   3.769
 9957WAT      O30112   8.502   0.363   2.191
 9957WAT     H130113   8.496   0.264   2.181
 9957WAT     H230114   8.528   0.386   2.285
 9958WAT      O30115   8.357   5.848   4.179
 9958WAT     H130116   8.429   5.890   4.123
 9958WAT     H230117   8.399   5.795   4.252
 9959WAT      O30118   0.030   1.193   5.957
 9959WAT     H130119   0.057   1.189   6.053
 9959WAT     H230120  -0.038   1.265   5.945
 9960WAT      O30121   7.243   8.834   3.282
 9960WAT     H130122   7.200   8.753   3.242
 9960WAT     H230123   7.230   8.833   3.381
 9961WAT      O30124   0.756   9.091   5.787
 9961WAT     H130125   0.758   9.191   5.789
 9961WAT     H230126   0.754   9.055   5.880
 9962WAT      O30127   7.712   0.515   4.722
 9962WAT     H130128   7.726   0.563   4.809
 9962WAT     H230129   7.761   0.563   4.650
 9963WAT      O30130   0.195   1.933   1.992
 9963WAT     H130131   0.100   1.904   2.002
 9963WAT     H230132   0.227   1.911   1.900
 9964WAT      O30133   5.878   1.233   0.380
 9964WAT     H130134   5.807   1.229   0.450
 9964WAT     H230135   5.965   1.262   0.421
 9965WAT      O30136   7.577   6.854   5.506
 9965WAT     H130137   7.541   6.900   5.424
 9965WAT     H230138   7.528   6.886   5.587
 9966WAT      O30139   7.082   3.814   8.123
 9966WAT     H130140   7.106   3.910   8.108
 9966WAT     H230141   7.104   3.788   8.217
 9967WAT      O30142   0.798   1.608   0.602
 9967WAT     H130143   0.743   1.526   0.613
 9967WAT     H230144   0.787   1.667   0.682
 9968WAT      O30145   9.242   4.617   3.860
 9968WAT     H130146   9.218   4.520   3.855
 9968WAT     H230147   9.224   4.661   3.772
 9969WAT      O30148   5.909   4.899   7.112
 9969WAT     H130149   5.827   4.933   7.157
 9969WAT     H230150   5.934   4.811   7.150
 9970WAT      O30151   1.562   1.454   1.324
 9970WAT     H130152   1.602   1.364   1.338
 9970WAT     H230153   1.602   1.497   1.243
 9971WAT      O30154   6.471   7.657   4.521
 9971WAT     H130155   6.387   7.711   4.515
 9971WAT     H230156   6.531   7.697   4.590
 9972WAT      O30157   2.168   7.657   0.901
 9972WAT     H130158   2.163   7.701   0.811
 9972WAT     H230159   2.137   7.563   0.893
 9973WAT      O30160   8.267   6.636   0.750
 9973WAT     H130161   8.177   6.680   0.748
 9973WAT     H230162   8.320   6.664   0.669
 9974WAT      O30163   9.553   9.120   0.890
 9974WAT     H130164   9.636   9.169   0.917
 9974WAT     H230165   9.475   9.157   0.940
 9975WAT      O30166   2.031   1.628   2.953
 9975WAT     H130167   1.954   1.658   2.896
 9975WAT     H230168   2.016   1.656   3.047
 9976WAT      O30169   9.605   9.109   6.542
 9976WAT     H130170   9.704   9.101   6.550
 9976WAT     H230171   9.576   9.202   6.564
 9977WAT      O30172   9.352   6.278   2.967
 9977WAT     H130173   9.317   6.288   3.060
 9977WAT     H230174   9.289   6.322   2.903
 9978WAT      O30175   2.770   3.504   8.049
 9978WAT     H130176   2.750   3.471   8.141
 9978WAT     H230177   2.866   3.486   8.028
 9979WAT      O30178   8.328   5.367   3.367
 9979WAT     H130179   8.330   5.463   3.395
 9979WAT     H230180   8.295   5.311   3.443
 9980WAT      O30181   2.833   5.971   7.570
 9980WAT     H130182   2.774   5.899   7.532
 9980WAT     H230183   2.928   5.954   7.543
 9981WAT      O30184   8.735   8.541   5.493
 9981WAT     H130185   8.666   8.470   5.494
 9981WAT     H230186   8.735   8.589   5.581
 9982WAT      O30187   4.386   1.624   4.756
 9982WAT     H130188   4.389   1.542   4.814
 9982WAT     H230189   4.413   1.704   4.809
 9983WAT      O30190   6.181   2.147   4.329
 9983WAT     H130191   6.144   2.098   4.250
 9983WAT     H230192   6.224   2.081   4.392
 9984WAT      O30193   7.327   7.264   4.146
 9984WAT     H130194   7.247   7.295   4.093
 9984WAT     H230195   7.308   7.275   4.244
 9985WAT      O30196   1.982   8.404   6.564
 9985WAT     H130197   2.032   8.478   6.609
 9985WAT     H230198   1.937   8.348   6.633
 9986WAT      O30199   9.585   8.025   6.548
 9986WAT     H130200   9.573   7.987   6.639
 9986WAT     H230201   9.559   7.957   6.480
 9987WAT      O30202   1.722   0.246   9.411
 9987WAT     H130203   1.772   0.161   9.394
 9987WAT     H230204   1.631   0.240   9.371
 9988WAT      O30205   1.319   7.073   2.003
 9988WAT     H130206   1.326   7.172   1.996
 9988WAT     H230207   1.223   7.045   1.996
 9989WAT      O30208   2.059   1.973   0.584
 9989WAT     H130209   2.015   2.058   0.614
 9989WAT     H230210   2.113   1.935   0.660
 9990WAT      O30211   8.099   3.285   7.496
 9990WAT     H130212   8.148   3.230   7.564
 9990WAT     H230213   8.086   3.378   7.530
 9991WAT      O30214   9.392   7.156   2.488
 9991WAT     H130215   9.382   7.069   2.439
 9991WAT     H230216   9.452   7.143   2.567
 9992WAT      O30217   5.658   9.397   1.115
 9992WAT     H130218   5.605   9.332   1.060
 9992WAT     H230219   5.751   9.363   1.126
 9993WAT      O30220   7.046   5.864   4.071
 9993WAT     H130221   7.036   5.797   3.998
 9993WAT     H230222   7.027   5.821   4.159
 9994WAT      O30223   7.450   1.644   3.014
 9994WAT     H130224   7.436   1.733   3.058
 9994WAT     H230225   7.461   1.573   3.084
 9995WAT      O30226   2.366   5.839   0.692
 9995WAT     H130227   2.401   5.764   0.749
 9995WAT     H230228   2.266   5.840   0.697
 9996WAT      O30229   7.158   6.221   6.515
 9996WAT     H130230   7.190   6.198   6.424
 9996WAT     H230231   7.188   6.152   6.580
 9997WAT      O30232   8.306   9.329   8.941
 9997WAT     H130233   8.259   9.329   8.853
 9997WAT     H230234   8.405   9.336   8.925
 9998WAT      O30235   4.447   3.974   7.802
 9998WAT     H130236   4.388   4.039   7.754
 9998WAT     H230237   4.391   3.901   7.841
 9999WAT      O30238   7.396   0.226   1.849
 9999WAT     H130239   7.401   0.290   1.925
 9999WAT     H230240   7.301   0.218   1.817
10000WAT      O30241   8.641   4.259   8.114
10000WAT     H130242   8.601   4.256   8.023
10000WAT     H230243   8.568   4.274   8.182
10001WAT      O30244   8.726   6.992   7.718
10001WAT     H130245   8.752   6.897   7.702
10001WAT     H230246   8.643   7.013   7.667
10002WAT      O30247   6.248   4.276   1.383
10002WAT     H130248   6.332   4.286   1.328
10002WAT     H230249   6.190   4.356   1.369
10003WAT      O30250   9.765   6.289   5.225
10003WAT     H130251   9.808   6.298   5.135
10003WAT     H230252   9.682   6.235   5.218
10004WAT      O30253   4.034   3.352   6.637
10004WAT     H130254   3.994   3.373   6.727
10004WAT     H230255   3.990   3.408   6.567
10005WAT      O30256   4.820   0.557   0.540
10005WAT     H130257   4.738   0.583   0.591
10005WAT     H230258   4.892   0.533   0.604
10006WAT      O30259   1.840   6.865   6.724
10006WAT     H130260   1.826   6.950   6.672
10006WAT     H230261   1.932   6.831   6.706
10007WAT      O30262   9.273   0.194   0.420
10007WAT     H130263   9.342   0.126   0.444
10007WAT     H230264   9.222   0.220   0.502
10008WAT      O30265   8.301   4.012   9.767
10008WAT     H130266   8.391   3.969   9.773
10008WAT     H230267   8.311   4.107   9.740
10009WAT      O30268   9.322   2.857   5.987
10009WAT     H130269   9.318   2.919   6.065
10009WAT     H230270   9.247   2.791   5.993
10010WAT      O30271   3.343   8.983   6.131
10010WAT     H130272   3.345   9.064   6.071
10010WAT     H230273   3.248   8.954   6.144
10011WAT      O30274   5.123   5.947   4.157
10011WAT     H130275   5.064   5.873   4.189
10011WAT     H230276   5.070   6.031   4.147
10012WAT      O30277   2.180   5.217   2.844
10012WAT     H130278   2.170   5.315   2.826
10012WAT     H230279   2.142   5.165   2.767
10013WAT      O30280   8.405   6.303   0.981
10013WAT     H130281   8.305   6.303   0.988
10013WAT     H230282   8.432   6.288   0.886
10014WAT      O30283   6.405   1.215   0.349
10014WAT     H130284   6.491   1.240   0.305
10014WAT     H230285   6.407   1.118   0.374
10015WAT      O30286   6.270   2.608   5.462
10015WAT     H130287   6.363   2.622   5.494
10015WAT     H230288   6.262   2.638   5.367
10016WAT      O30289   2.771   5.656   5.795
10016WAT     H130290   2.780   5.720   5.719
10016WAT     H230291   2.676   5.627   5.803
10017WAT      O30292   6.611   8.198   8.296
10017WAT     H130293   6.667   8.173   8.375
10017WAT     H230294   6.667   8.194   8.213
10018WAT      O30295   5.606   4.332   3.693
10018WAT     H130296   5.576   4.312   3.599
10018WAT     H230297   5.651   4.251   3.731
10019WAT      O30298   4.303   6.681   5.982
10019WAT     H130299   4.311   6.644   5.889
10019WAT     H230300   4.341   6.615   6.047
10020WAT      O30301   7.044   8.846   2.128
10020WAT     H130302   7.097   8.763   2.141
10020WAT     H230303   7.083   8.900   2.053
10021WAT      O30304   9.470   3.575   8.694
10021WAT     H130305   9.441   3.635   8.768
10021WAT     H230306   9.544   3.619   8.643
10022WAT      O30307   5.250   0.811   7.768
10022WAT     H130308   5.250   0.799   7.867
10022WAT     H230309   5.188   0.745   7.727
10023WAT      O30310   5.220   2.565   0.854
10023WAT     H130311   5.207   2.514   0.769
10023WAT     H230312   5.285   2.516   0.912
10024WAT      O30313   4.124   8.118   5.915
10024WAT     H130314   4.091   8.208   5.942
10024WAT     H230315   4.207   8.127   5.861
10025WAT      O30316   2.848   3.041   3.969
10025WAT     H130317   2.887   3.048   4.061
10025WAT     H230318   2.801   3.126   3.946
10026WAT      O30319   2.974   0.500   7.106
10026WAT     H130320   2.929   0.430   7.051
10026WAT     H230321   2.922   0.585   7.102
10027WAT      O30322   9.465   0.379   3.047
10027WAT     H130323   9.512   0.346   3.129
10027WAT     H230324   9.366   0.371   3.060
10028WAT      O30325   4.571   5.174   3.150
10028WAT     H130326   4.485   5.194   3.103
10028WAT     H230327   4.628   5.117   3.091
10029WAT      O30328   4.416   8.008   2.710
10029WAT     H130329   4.383   8.100   2.729
10029WAT     H230330   4.419   7.955   2.795
10030WAT      O30331   8.425   6.152   7.464
10030WAT     H130332   8.520   6.184   7.464
10030WAT     H230333   8.404   6.111   7.375
10031WAT      O30334   8.115   0.245   0.473
10031WAT     H130335   8.106   0.309   0.549
10031WAT     H230336   8.179   0.172   0.498
10032WAT      O30337   5.744   3.783   2.972
10032WAT     H130338   5.743   3.704   3.034
10032WAT     H230339   5.678   3.769   2.899
10033WAT      O30340   0.959   3.144   1.716
10033WAT     H130341   1.010   3.230   1.714
10033WAT     H230342   0.891   3.144   1.642
10034WAT      O30343   1.301   2.769   4.422
10034WAT     H130344   1.205   2.749   4.442
10034WAT     H230345   1.324   2.734   4.331
10035WAT      O30346   1.461   8.114   3.556
10035WAT     H130347   1.415   8.188   3.605
10035WAT     H230348   1.481   8.039   3.619
10036WAT      O30349   1.627   5.916   1.755
10036WAT     H130350   1.527   5.914   1.749
10036WAT     H230351   1.654   5.967   1.836
10037WAT      O30352   4.803   9.228   7.614
10037WAT     H130353   4.704   9.218   7.621
10037WAT     H230354   4.844   9.209   7.703
10038WAT      O30355   8.134   1.690   2.604
10038WAT     H130356   8.179   1.777   2.623
10038WAT     H230357   8.039   1.694   2.634
10039WAT      O30358   3.391   8.182   9.706
10039WAT     H130359   3.415   8.240   9.628
10039WAT     H230360   3.298   8.147   9.694
10040WAT      O30361   1.820   3.030   0.185
10040WAT     H130362   1.864   3.034   0.275
10040WAT     H230363   1.721   3.024   0.197
10041WAT      O30364   0.592   0.065   2.640
10041WAT     H130365   0.610   0.153   2.684
10041WAT     H230366   0.646  -0.006   2.686
10042WAT      O30367   7.444   5.156   2.965
10042WAT     H130368   7.522   5.109   3.007
10042WAT     H230369   7.359   5.123   3.007
10043WAT      O30370   2.876   7.374   3.452
10043WAT     H130371   2.783   7.401   3.475
10043WAT     H230372   2.876   7.280   3.418
10044WAT      O30373   2.843   3.546   2.042
10044WAT     H130374   2.792   3.553   1.956
10044WAT     H230375   2.890   3.458   2.046
10045WAT      O30376   1.729   0.364   5.924
10045WAT     H130377   1.680   0.385   6.009
10045WAT     H230378   1.695   0.277   5.887
10046WAT      O30379   3.278   7.298   3.361
10046WAT     H130380   3.226   7.337   3.437
10046WAT     H230381   3.220   7.294   3.280
10047WAT      O30382   4.758   5.482   7.577
10047WAT     H130383   4.732   5.499   7.481
10047WAT     H230384   4.830   5.546   7.604
10048WAT      O30385   4.268   0.632   7.963
10048WAT     H130386   4.215   0.717   7.963
10048WAT     H230387   4.206   0.554   7.952
10049WAT      O30388   4.517   2.785   1.875
10049WAT     H130389   4.446   2.715   1.865
10049WAT     H230390   4.517   2.820   1.969
10050WAT      O30391   2.233   0.038   5.056
10050WAT     H130392   2.216  -0.016   4.974
10050WAT     H230393   2.290  -0.016   5.119
10051WAT      O30394   5.520   7.511   3.440
10051WAT     H130395   5.576   7.495   3.359
10051WAT     H230396   5.483   7.424   3.473
10052WAT      O30397   1.354   6.350   6.387
10052WAT     H130398   1.278   6.356   6.322
10052WAT     H230399   1.350   6.427   6.450
10053WAT      O30400   7.879   3.777   6.707
10053WAT     H130401   7.808   3.757   6.774
10053WAT     H230402   7.934   3.855   6.740
10054WAT      O30403   2.487   9.555   7.677
10054WAT     H130404   2.549   9.506   7.738
10054WAT     H230405   2.409   9.588   7.728
10055WAT      O30406   5.394   5.610   2.443
10055WAT     H130407   5.463   5.636   2.511
10055WAT     H230408   5.429   5.630   2.352
10056WAT      O30409   1.585   1.438   5.482
10056WAT     H130410   1.606   1.485   5.396
10056WAT     H230411   1.665   1.389   5.514
10057WAT      O30412   4.632   4.852   1.302
10057WAT     H130413   4.688   4.772   1.326
10057WAT     H230414   4.620   4.908   1.384
10058WAT      O30415   6.459   4.669   1.724
10058WAT     H130416   6.512   4.749   1.752
10058WAT     H230417   6.521   4.597   1.691
10059WAT      O30418   0.610   6.516   0.020
10059WAT     H130419   0.631   6.460  -0.060
10059WAT     H230420   0.511   6.534   0.024
10060WAT      O30421   8.820   8.981   3.450
10060WAT     H130422   8.899   8.935   3.490
10060WAT     H230423   8.747   8.989   3.518
10061WAT      O30424   6.174   5.282   8.982
10061WAT     H130425   6.144   5.203   9.036
10061WAT     H230426   6.267   5.308   9.010
10062WAT      O30427   5.103   2.932   6.708
10062WAT     H130428   5.091   2.948   6.806
10062WAT     H230429   5.064   3.007   6.656
10063WAT      O30430   0.841   0.525   1.958
10063WAT     H130431   0.768   0.546   2.023
10063WAT     H230432   0.823   0.435   1.916
10064WAT      O30433   0.053   0.462   2.571
10064WAT     H130434   0.096   0.551   2.585
10064WAT     H230435  -0.045   0.475   2.557
10065WAT      O30436   2.255   0.678   3.765
10065WAT     H130437   2.259   0.580   3.746
10065WAT     H230438   2.255   0.728   3.678
10066WAT      O30439   9.624   1.505   7.650
10066WAT     H130440   9.594   1.548   7.564
10066WAT     H230441   9.552   1.514   7.718
10067WAT      O30442   5.940   2.295   4.932
10067WAT     H130443   5.993   2.230   4.877
10067WAT     H230444   5.939   2.265   5.027
10068WAT      O30445   6.736   9.826   8.303
10068WAT     H130446   6.662   9.758   8.301
10068WAT     H230447   6.792   9.816   8.221
10069WAT      O30448   5.034   1.735   0.838
10069WAT     H130449   5.044   1.636   0.830
10069WAT     H230450   4.981   1.757   0.919
10070WAT      O30451   1.457   3.514   8.185
10070WAT     H130452   1.362   3.513   8.217
10070WAT     H230453   1.470   3.589   8.120
10071WAT      O30454   1.452   1.862   4.368
10071WAT     H130455   1.375   1.912   4.407
10071WAT     H230456   1.430   1.765   4.364
10072WAT      O30457   1.074   5.608   7.997
10072WAT     H130458   1.023   5.528   8.030
10072WAT     H230459   1.095   5.668   8.073
10073WAT      O30460   1.919   1.557   6.977
10073WAT     H130461   1.880   1.586   7.065
10073WAT     H230462   1.914   1.632   6.912
10074WAT      O30463   3.985   3.793   0.538
10074WAT     H130464   3.920   3.720   0.517
10074WAT     H230465   3.970   3.826   0.631
10075WAT      O30466   9.709   9.475   6.654
10075WAT     H130467   9.741   9.446   6.563
10075WAT     H230468   9.770   9.437   6.724
10076WAT      O30469   7.040   0.430   6.229
10076WAT     H130470   7.027   0.351   6.289
10076WAT     H230471   7.045   0.399   6.134
10077WAT      O30472   5.663   6.524   7.856
10077WAT     H130473   5.693   6.608   7.812
10077WAT     H230474   5.643   6.455   7.785
10078WAT      O30475   8.681   0.693   6.009
10078WAT     H130476   8.734   0.609   6.015
10078WAT     H230477   8.681   0.726   5.915
10079WAT      O30478   0.783   8.917   6.590
10079WAT     H130479   0.818   8.951   6.676
10079WAT     H230480   0.858   8.879   6.536
10080WAT      O30481   4.356   4.372   2.115
10080WAT     H130482   4.287   4.435   2.080
10080WAT     H230483   4.350   4.285   2.065
10081WAT      O30484   1.909   4.507   8.042
10081WAT     H130485   2.003   4.538   8.054
10081WAT     H230486   1.890   4.433   8.106
10082WAT      O30487   8.961   9.067   4.664
10082WAT     H130488   8.951   9.045   4.567
10082WAT     H230489   9.045   9.120   4.678
10083WAT      O30490   4.617   0.453   6.878
10083WAT     H130491   4.685   0.496   6.818
10083WAT     H230492   4.525   0.469   6.842
10084WAT      O30493   5.474   7.341   3.036
10084WAT     H130494   5.394   7.380   3.081
10084WAT     H230495   5.445   7.274   2.968
10085WAT      O30496   2.595   7.678   6.242
10085WAT     H130497   2.588   7.578   6.247
10085WAT     H230498   2.577   7.717   6.332
10086WAT      O30499   1.536   5.619   1.407
10086WAT     H130500   1.537   5.699   1.467
10086WAT     H230501   1.444   5.608   1.369
10087WAT      O30502   6.845   9.209   1.928
10087WAT     H130503   6.804   9.276   1.866
10087WAT     H230504   6.847   9.248   2.020
10088WAT      O30505   3.921   1.608   9.120
10088WAT     H130506   3.895   1.554   9.040
10088WAT     H230507   3.939   1.702   9.093
10089WAT      O30508   2.096   6.178   5.760
10089WAT     H130509   2.157   6.221   5.693
10089WAT     H230510   2.088   6.236   5.840
10090WAT      O30511   2.300   9.497   3.806
10090WAT     H130512   2.383   9.445   3.828
10090WAT     H230513   2.313   9.592   3.834
10091WAT      O30514   8.973   1.914   6.352
10091WAT     H130515   8.925   1.938   6.436
10091WAT     H230516   9.004   1.997   6.305
10092WAT      O30517   2.663   6.699   1.632
10092WAT     H130518   2.695   6.605   1.616
10092WAT     H230519   2.651   6.745   1.544
10093WAT      O30520   0.889   6.560   8.351
10093WAT     H130521   0.862   6.655   8.338
10093WAT     H230522   0.820   6.499   8.310
10094WAT      O30523   6.950   6.591   3.200
10094WAT     H130524   6.946   6.538   3.284
10094WAT     H230525   6.934   6.688   3.220
10095WAT      O30526   9.606   7.770   5.552
10095WAT     H130527   9.584   7.788   5.457
10095WAT     H230528   9.701   7.796   5.570
10096WAT      O30529   9.808   1.293   9.723
10096WAT     H130530   9.784   1.238   9.803
10096WAT     H230531   9.907   1.300   9.716
10097WAT      O30532   3.013   7.754   0.733
10097WAT     H130533   3.010   7.852   0.752
10097WAT     H230534   2.995   7.703   0.817
10098WAT      O30535   8.753   5.659   4.925
10098WAT     H130536   8.704   5.688   4.843
10098WAT     H230537   8.806   5.736   4.961
10099WAT      O30538   8.967   3.291   4.167
10099WAT     H130539   8.993   3.352   4.092
10099WAT     H230540   8.930   3.206   4.130
10100WAT      O30541   8.680   5.085   8.007
10100WAT     H130542   8.597   5.108   7.958
10100WAT     H230543   8.683   4.986   8.024
10101WAT      O30544   3.000   2.738   1.146
10101WAT     H130545   3.042   2.647   1.154
10101WAT     H230546   2.904   2.728   1.122
10102WAT      O30547   7.853   9.298   1.552
10102WAT     H130548   7.780   9.244   1.509
10102WAT     H230549   7.940   9.249   1.543
10103WAT      O30550   7.814   3.943   9.231
10103WAT     H130551   7.868   3.997   9.166
10103WAT     H230552   7.874   3.878   9.277
10104WAT      O30553   2.956   7.648   7.011
10104WAT     H130554   2.955   7.746   6.992
10104WAT     H230555   2.880   7.625   7.072
10105WAT      O30556   5.020   5.768   9.130
10105WAT     H130557   4.964   5.699   9.177
10105WAT     H230558   5.094   5.722   9.080
10106WAT      O30559   7.202   0.066   1.160
10106WAT     H130560   7.133   0.074   1.232
10106WAT     H230561   7.166   0.106   1.076
10107WAT      O30562   5.194   2.219   5.244
10107WAT     H130563   5.274   2.190   5.297
10107WAT     H230564   5.213   2.308   5.203
10108WAT      O30565   8.338   7.595   8.566
10108WAT     H130566   8.332   7.560   8.659
10108WAT     H230567   8.261   7.657   8.549
10109WAT      O30568   6.508   3.174   5.833
10109WAT     H130569   6.452   3.179   5.750
10109WAT     H230570   6.604   3.183   5.808
10110WAT      O30571   4.219   0.663   7.409
10110WAT     H130572   4.142   0.709   7.453
10110WAT     H230573   4.208   0.666   7.310
10111WAT      O30574   4.013   8.971   8.899
10111WAT     H130575   3.925   9.009   8.870
10111WAT     H230576   4.006   8.872   8.905
10112WAT      O30577   6.557   4.586   0.636
10112WAT     H130578   6.550   4.492   0.672
10112WAT     H230579   6.611   4.642   0.699
10113WAT      O30580   4.403   5.026   4.199
10113WAT     H130581   4.387   5.123   4.216
10113WAT     H230582   4.376   4.973   4.279
10114WAT      O30583   1.881   6.552   8.321
10114WAT     H130584   1.973   6.523   8.299
10114WAT     H230585   1.878   6.584   8.416
10115WAT      O30586   7.200   1.245   1.332
10115WAT     H130587   7.163   1.210   1.246
10115WAT     H230588   7.262   1.321   1.313
10116WAT      O30589   9.344   5.579   8.666
10116WAT     H130590   9.261   5.588   8.611
10116WAT     H230591   9.388   5.491   8.645
10117WAT      O30592   2.676   4.713   1.787
10117WAT     H130593   2.593   4.750   1.828
10117WAT     H230594   2.746   4.785   1.786
10118WAT      O30595   5.502   4.039   1.810
10118WAT     H130596   5.463   4.112   1.755
10118WAT     H230597   5.460   3.951   1.785
10119WAT      O30598   5.935   3.958   6.760
10119WAT     H130599   5.909   3.913   6.845
10119WAT     H230600   5.911   4.055   6.766
10120WAT      O30601   5.576   4.348   5.109
10120WAT     H130602   5.621   4.274   5.058
10120WAT     H230603   5.482   4.358   5.077
10121WAT      O30604   1.436   8.897   4.596
10121WAT     H130605   1.434   8.910   4.497
10121WAT     H230606   1.530   8.903   4.629
10122WAT      O30607   6.817   0.151   1.532
10122WAT     H130608   6.856   0.116   1.617
10122WAT     H230609   6.830   0.250   1.527
10123WAT      O30610   6.091   8.115   9.722
10123WAT     H130611   6.174   8.164   9.746
10123WAT     H230612   6.062   8.058   9.799
10124WAT      O30613   2.178   5.544   4.866
10124WAT     H130614   2.229   5.628   4.885
10124WAT     H230615   2.229   5.489   4.799
10125WAT      O30616   9.659   8.534   9.564
10125WAT     H130617   9.661   8.632   9.543
10125WAT     H230618   9.643   8.522   9.662
10126WAT      O30619   5.688   0.614   0.536
10126WAT     H130620   5.594   0.635   0.563
10126WAT     H230621   5.689   0.537   0.472
10127WAT      O30622   6.376   6.899   2.215
10127WAT     H130623   6.345   6.887   2.309
10127WAT     H230624   6.465   6.946   2.214
10128WAT      O30625   4.375   8.163   1.103
10128WAT     H130626   4.385   8.188   1.199
10128WAT     H230627   4.459   8.119   1.071
10129WAT      O30628   7.728   1.711   2.194
10129WAT     H130629   7.694   1.736   2.103
10129WAT     H230630   7.774   1.790   2.236
10130WAT      O30631   5.119   8.858   8.328
10130WAT     H130632   5.189   8.789   8.312
10130WAT     H230633   5.162   8.946   8.344
10131WAT      O30634   8.064   8.269   8.626
10131WAT     H130635   8.006   8.199   8.667
10131WAT     H230636   8.111   8.232   8.546
10132WAT      O30637   0.563   5.821   8.205
10132WAT     H130638   0.627   5.746   8.225
10132WAT     H230639   0.599   5.906   8.243
10133WAT      O30640   7.890   0.510   6.231
10133WAT     H130641   7.903   0.602   6.195
10133WAT     H230642   7.835   0.457   6.166
10134WAT      O30643   8.738   4.247   1.693
10134WAT     H130644   8.712   4.330   1.644
10134WAT     H230645   8.837   4.246   1.707
10135WAT      O30646   9.827   8.426   5.889
10135WAT     H130647   9.755   8.360   5.910
10135WAT     H230648   9.914   8.377   5.875
10136WAT      O30649   5.461   4.781   0.870
10136WAT     H130650   5.481   4.879   0.864
10136WAT     H230651   5.443   4.757   0.966
10137WAT      O30652   5.752   7.296   4.018
10137WAT     H130653   5.786   7.359   4.088
10137WAT     H230654   5.813   7.299   3.939
10138WAT      O30655   0.649   7.549   9.209
10138WAT     H130656   0.590   7.626   9.231
10138WAT     H230657   0.593   7.471   9.181
10139WAT      O30658   1.166   4.351   0.872
10139WAT     H130659   1.139   4.288   0.800
10139WAT     H230660   1.205   4.300   0.949
10140WAT      O30661   5.191   2.495   9.701
10140WAT     H130662   5.129   2.472   9.627
10140WAT     H230663   5.166   2.584   9.740
10141WAT      O30664   5.506   3.399   5.856
10141WAT     H130665   5.452   3.341   5.794
10141WAT     H230666   5.444   3.461   5.905
10142WAT      O30667   6.847   3.791   8.401
10142WAT     H130668   6.942   3.774   8.377
10142WAT     H230669   6.836   3.788   8.500
10143WAT      O30670   1.592   1.503   9.578
10143WAT     H130671   1.586   1.464   9.485
10143WAT     H230672   1.668   1.459   9.626
10144WAT      O30673   3.481   4.577   2.643
10144WAT     H130674   3.504   4.668   2.608
10144WAT     H230675   3.565   4.524   2.654
10145WAT      O30676   3.241   6.515   7.004
10145WAT     H130677   3.157   6.568   7.015
10145WAT     H230678   3.313   6.553   7.062
10146WAT      O30679   4.277   3.734   2.113
10146WAT     H130680   4.324   3.741   2.201
10146WAT     H230681   4.340   3.758   2.040
10147WAT      O30682   0.033   4.334   3.991
10147WAT     H130683  -0.011   4.299   3.909
10147WAT     H230684   0.078   4.259   4.040
10148WAT      O30685   3.044   3.747   0.882
10148WAT     H130686   2.979   3.822   0.865
10148WAT     H230687   3.137   3.779   0.863
10149WAT      O30688   0.261   1.882   6.307
10149WAT     H130689   0.349   1.862   6.350
10149WAT     H230690   0.228   1.971   6.338
10150WAT      O30691   3.734   9.517   8.517
10150WAT     H130692   3.803   9.539   8.448
10150WAT     H230693   3.692   9.601   8.551
10151WAT      O30694   3.525   6.214   2.786
10151WAT     H130695   3.576   6.202   2.701
10151WAT     H230696   3.446   6.153   2.786
10152WAT      O30697   5.568   3.610   6.381
10152WAT     H130698   5.623   3.688   6.353
10152WAT     H230699   5.541   3.558   6.300
10153WAT      O30700   0.105   8.643   2.681
10153WAT     H130701   0.152   8.555   2.679
10153WAT     H230702   0.010   8.628   2.709
10154WAT      O30703   6.496   8.760   8.440
10154WAT     H130704   6.451   8.674   8.417
10154WAT     H230705   6.515   8.811   8.356
10155WAT      O30706   5.707   5.747   8.244
10155WAT     H130707   5.723   5.649   8.231
10155WAT     H230708   5.611   5.762   8.264
10156WAT      O30709   8.586   6.531   7.325
10156WAT     H130710   8.578   6.591   7.404
10156WAT     H230711   8.504   6.540   7.268
10157WAT      O30712   0.221   7.269   8.415
10157WAT     H130713   0.283   7.263   8.337
10157WAT     H230714   0.131   7.298   8.383
10158WAT      O30715   8.516   4.625   7.345
10158WAT     H130716   8.571   4.553   7.302
10158WAT     H230717   8.448   4.659   7.281
10159WAT      O30718   8.448   8.756   5.615
10159WAT     H130719   8.390   8.675   5.605
10159WAT     H230720   8.530   8.732   5.667
10160WAT      O30721   6.645   1.221   2.738
10160WAT     H130722   6.560   1.184   2.702
10160WAT     H230723   6.699   1.147   2.778
10161WAT      O30724   9.528   4.162   4.561
10161WAT     H130725   9.521   4.228   4.486
10161WAT     H230726   9.595   4.195   4.628
10162WAT      O30727   8.963   3.227   7.358
10162WAT     H130728   8.999   3.150   7.305
10162WAT     H230729   9.017   3.238   7.442
10163WAT      O30730   4.250   3.751   2.508
10163WAT     H130731   4.155   3.741   2.536
10163WAT     H230732   4.308   3.695   2.568
10164WAT      O30733   0.179   8.136   4.036
10164WAT     H130734   0.124   8.189   3.971
10164WAT     H230735   0.207   8.195   4.112
10165WAT      O30736   6.159   9.392   5.639
10165WAT     H130737   6.206   9.436   5.562
10165WAT     H230738   6.062   9.382   5.617
10166WAT      O30739   0.801   2.700   8.099
10166WAT     H130740   0.811   2.660   8.008
10166WAT     H230741   0.728   2.652   8.148
10167WAT      O30742   7.292   8.112   0.119
10167WAT     H130743   7.252   8.203   0.124
10167WAT     H230744   7.363   8.102   0.189
10168WAT      O30745   3.378   6.593   2.079
10168WAT     H130746   3.309   6.652   2.037
10168WAT     H230747   3.439   6.559   2.008
10169WAT      O30748   5.360   4.642   8.051
10169WAT     H130749   5.280   4.649   7.991
10169WAT     H230750   5.430   4.587   8.007
10170WAT      O30751   4.082   7.126   4.346
10170WAT     H130752   4.099   7.047   4.404
10170WAT     H230753   4.020   7.102   4.272
10171WAT      O30754   6.155   6.718   0.531
10171WAT     H130755   6.080   6.702   0.466
10171WAT     H230756   6.134   6.674   0.618
10172WAT      O30757   2.371   3.560   6.013
10172WAT     H130758   2.466   3.590   6.024
10172WAT     H230759   2.366   3.461   6.021
10173WAT      O30760   1.461   3.620   2.616
10173WAT     H130761   1.429   3.556   2.685
10173WAT     H230762   1.452   3.714   2.650
10174WAT      O30763   5.282   0.300   2.204
10174WAT     H130764   5.228   0.220   2.176
10174WAT     H230765   5.377   0.287   2.175
10175WAT      O30766   1.117   9.405   8.405
10175WAT     H130767   1.118   9.353   8.319
10175WAT     H230768   1.038   9.376   8.459
10176WAT      O30769   4.017   5.025   2.409
10176WAT     H130770   4.018   4.928   2.434
10176WAT     H230771   4.061   5.037   2.320
10177WAT      O30772   0.479   9.113   6.259
10177WAT     H130773   0.542   9.072   6.193
10177WAT     H230774   0.398   9.054   6.268
10178WAT      O30775   6.575   6.709   1.008
10178WAT     H130776   6.667   6.671   1.008
10178WAT     H230777   6.563   6.768   1.088
10179WAT      O30778   0.483   2.323   5.422
10179WAT     H130779   0.443   2.411   5.445
10179WAT     H230780   0.513   2.323   5.327
10180WAT      O30781   6.791   0.061   0.384
10180WAT     H130782   6.777  -0.028   0.341
10180WAT     H230783   6.863   0.111   0.336
10181WAT      O30784   5.041   9.715   3.487
10181WAT     H130785   5.120   9.764   3.523
10181WAT     H230786   5.031   9.628   3.535
10182WAT      O30787   8.065   3.040   8.707
10182WAT     H130788   8.039   2.953   8.749
10182WAT     H230789   8.038   3.040   8.611
10183WAT      O30790   0.191   1.034   9.068
10183WAT     H130791   0.137   1.115   9.045
10183WAT     H230792   0.133   0.953   9.065
10184WAT      O30793   4.519   1.986   6.284
10184WAT     H130794   4.497   1.925   6.360
10184WAT     H230795   4.453   1.973   6.211
10185WAT      O30796   4.725   6.751   0.979
10185WAT     H130797   4.658   6.703   0.922
10185WAT     H230798   4.747   6.839   0.939
10186WAT      O30799   8.311   3.911   8.570
10186WAT     H130800   8.288   3.835   8.509
10186WAT     H230801   8.239   3.921   8.639
10187WAT      O30802   2.001   0.649   8.142
10187WAT     H130803   1.978   0.614   8.233
10187WAT     H230804   2.097   0.629   8.122
10188WAT      O30805   0.988   7.809   3.121
10188WAT     H130806   1.080   7.771   3.129
10188WAT     H230807   0.925   7.757   3.180
10189WAT      O30808   7.737   4.297   2.525
10189WAT     H130809   7.822   4.347   2.540
10189WAT     H230810   7.733   4.220   2.588
10190WAT      O30811   6.459   0.465   6.459
10190WAT     H130812   6.426   0.411   6.381
10190WAT     H230813   6.439   0.562   6.442
10191WAT      O30814   9.189   4.109   5.446
10191WAT     H130815   9.127   4.187   5.437
10191WAT     H230816   9.135   4.024   5.443
10192WAT      O30817   8.831   5.534   1.517
10192WAT     H130818   8.733   5.550   1.528
10192WAT     H230819   8.870   5.605   1.459
10193WAT      O30820   1.778   1.173   9.356
10193WAT     H130821   1.718   1.250   9.334
10193WAT     H230822   1.778   1.157   9.455
10194WAT      O30823   9.787   3.892   7.965
10194WAT     H130824   9.753   3.986   7.974
10194WAT     H230825   9.884   3.889   7.987
10195WAT      O30826   0.828   1.966   2.884
10195WAT     H130827   0.777   1.881   2.897
10195WAT     H230828   0.804   2.030   2.957
10196WAT      O30829   1.956   1.665   0.638
10196WAT     H130830   2.015   1.634   0.563
10196WAT     H230831   1.943   1.764   0.632
10197WAT      O30832   4.052   4.223   6.173
10197WAT     H130833   3.956   4.238   6.199
10197WAT     H230834   4.106   4.301   6.203
10198WAT      O30835   5.450   5.497   5.086
10198WAT     H130836   5.374   5.440   5.118
10198WAT     H230837   5.452   5.582   5.139
10199WAT      O30838   1.140   6.377   3.035
10199WAT     H130839   1.076   6.436   3.084
10199WAT     H230840   1.120   6.282   3.056
10200WAT      O30841   6.238   3.714   5.047
10200WAT     H130842   6.152   3.678   5.011
10200WAT     H230843   6.261   3.668   5.133
10201WAT      O30844   0.572   6.146   0.030
10201WAT     H130845   0.541   6.144   0.126
10201WAT     H230846   0.510   6.203  -0.023
10202WAT      O30847   4.433   1.884   4.092
10202WAT     H130848   4.513   1.895   4.033
10202WAT     H230849   4.390   1.973   4.108
10203WAT      O30850   0.659   3.774   1.949
10203WAT     H130851   0.569   3.783   1.907
10203WAT     H230852   0.714   3.708   1.898
10204WAT      O30853   2.830   4.285   2.921
10204WAT     H130854   2.872   4.286   2.831
10204WAT     H230855   2.738   4.324   2.914
10205WAT      O30856   4.343   4.599   3.832
10205WAT     H130857   4.371   4.620   3.926
10205WAT     H230858   4.318   4.683   3.784
10206WAT      O30859   8.761   8.956   6.747
10206WAT     H130860   8.786   8.946   6.844
10206WAT     H230861   8.745   8.867   6.707
10207WAT      O30862   4.236   1.221   1.285
10207WAT     H130863   4.173   1.197   1.212
10207WAT     H230864   4.226   1.155   1.360
10208WAT      O30865   6.736   0.332   9.613
10208WAT     H130866   6.725   0.318   9.711
10208WAT     H230867   6.819   0.287   9.582
10209WAT      O30868   6.674   9.136   5.775
10209WAT     H130869   6.580   9.137   5.810
10209WAT     H230870   6.687   9.215   5.714
10210WAT      O30871   5.110   1.355   3.967
10210WAT     H130872   5.109   1.455   3.967
10210WAT     H230873   5.179   1.323   3.902
10211WAT      O30874   8.821   6.542   8.753
10211WAT     H130875   8.856   6.636   8.746
10211WAT     H230876   8.826   6.498   8.663
10212WAT      O30877   0.207   8.720   9.129
10212WAT     H130878   0.220   8.684   9.222
10212WAT     H230879   0.251   8.658   9.063
10213WAT      O30880   2.097   2.614   6.643
10213WAT     H130881   2.100   2.707   6.679
10213WAT     H230882   2.003   2.591   6.618
10214WAT      O30883   9.514   8.397   3.718
10214WAT     H130884   9.591   8.431   3.664
10214WAT     H230885   9.448   8.471   3.733
10215WAT      O30886   8.394   8.108   7.096
10215WAT     H130887   8.407   8.089   6.998
10215WAT     H230888   8.396   8.022   7.146
10216WAT      O30889   8.525   1.481   8.275
10216WAT     H130890   8.601   1.416   8.262
10216WAT     H230891   8.532   1.554   8.207
10217WAT      O30892   4.952   0.505   3.876
10217WAT     H130893   4.892   0.451   3.817
10217WAT     H230894   4.931   0.486   3.972
10218WAT      O30895   4.832   2.401   5.438
10218WAT     H130896   4.798   2.363   5.352
10218WAT     H230897   4.829   2.500   5.434
10219WAT      O30898   3.757   6.761   9.559
10219WAT     H130899   3.817   6.841   9.568
10219WAT     H230900   3.666   6.791   9.530
10220WAT      O30901   5.857   0.892   4.052
10220WAT     H130902   5.888   0.963   4.115
10220WAT     H230903   5.813   0.818   4.103
10221WAT      O30904   1.411   3.676   3.175
10221WAT     H130905   1.457   3.632   3.252
10221WAT     H230906   1.344   3.743   3.210
10222WAT      O30907   1.503   2.440   1.119
10222WAT     H130908   1.527   2.443   1.216
10222WAT     H230909   1.416   2.392   1.107
10223WAT      O30910   9.613   6.638   6.746
10223WAT     H130911   9.612   6.644   6.846
10223WAT     H230912   9.590   6.545   6.718
10224WAT      O30913   4.363   4.326   8.491
10224WAT     H130914   4.313   4.412   8.494
10224WAT     H230915   4.309   4.255   8.537
10225WAT      O30916   8.717   0.873   0.272
10225WAT     H130917   8.720   0.972   0.255
10225WAT     H230918   8.669   0.828   0.197
10226WAT      O30919   8.664   0.060   5.979
10226WAT     H130920   8.638  -0.017   5.920
10226WAT     H230921   8.616   0.053   6.066
10227WAT      O30922   2.421   1.753   5.826
10227WAT     H130923   2.329   1.786   5.804
10227WAT     H230924   2.486   1.830   5.820
10228WAT      O30925   7.884   2.735   1.997
10228WAT     H130926   7.883   2.647   2.044
10228WAT     H230927   7.806   2.789   2.026
10229WAT      O30928   4.883   0.722   7.274
10229WAT     H130929   4.833   0.758   7.352
10229WAT     H230930   4.821   0.670   7.215
10230WAT      O30931   2.720   1.928   5.826
10230WAT     H130932   2.787   1.874   5.875
10230WAT     H230933   2.737   2.025   5.841
10231WAT      O30934   4.866   3.662   2.496
10231WAT     H130935   4.805   3.715   2.555
10231WAT     H230936   4.838   3.673   2.401
10232WAT      O30937   6.483   4.469   2.288
10232WAT     H130938   6.457   4.405   2.360
10232WAT     H230939   6.434   4.556   2.300
10233WAT      O30940   6.227   2.738   5.215
10233WAT     H130941   6.227   2.817   5.276
10233WAT     H230942   6.224   2.769   5.120
10234WAT      O30943   1.402   8.641   3.511
10234WAT     H130944   1.406   8.739   3.490
10234WAT     H230945   1.464   8.592   3.450
10235WAT      O30946   1.565   2.743   9.705
10235WAT     H130947   1.491   2.677   9.718
10235WAT     H230948   1.559   2.782   9.614
10236WAT      O30949   4.662   8.635   8.407
10236WAT     H130950   4.630   8.551   8.362
10236WAT     H230951   4.696   8.613   8.498
10237WAT      O30952   7.572   4.282   2.936
10237WAT     H130953   7.503   4.350   2.964
10237WAT     H230954   7.649   4.329   2.893
10238WAT      O30955   7.154   9.513   7.791
10238WAT     H130956   7.218   9.445   7.827
10238WAT     H230957   7.070   9.467   7.760
10239WAT      O30958   9.136   4.044   5.877
10239WAT     H130959   9.140   3.951   5.841
10239WAT     H230960   9.121   4.108   5.802
10240WAT      O30961   9.766   7.340   1.091
10240WAT     H130962   9.670   7.310   1.084
10240WAT     H230963   9.776   7.430   1.049
10241WAT      O30964   4.588   6.728   9.445
10241WAT     H130965   4.652   6.660   9.481
10241WAT     H230966   4.498   6.686   9.436
10242WAT      O30967   7.340   5.317   7.562
10242WAT     H130968   7.372   5.411   7.559
10242WAT     H230969   7.316   5.287   7.469
10243WAT      O30970   0.401   6.651   7.489
10243WAT     H130971   0.385   6.655   7.390
10243WAT     H230972   0.495   6.679   7.508
10244WAT      O30973   5.739   7.448   9.813
10244WAT     H130974   5.732   7.547   9.827
10244WAT     H230975   5.827   7.416   9.849
10245WAT      O30976   8.301   0.933   0.792
10245WAT     H130977   8.394   0.899   0.807
10245WAT     H230978   8.257   0.877   0.722
10246WAT      O30979   3.091   6.268   2.896
10246WAT     H130980   3.133   6.325   2.825
10246WAT     H230981   2.993   6.287   2.900
10247WAT      O30982   4.812   4.082   5.926
10247WAT     H130983   4.895   4.088   5.871
10247WAT     H230984   4.760   4.001   5.901
10248WAT      O30985   2.733   8.648   0.741
10248WAT     H130986   2.732   8.602   0.830
10248WAT     H230987   2.819   8.630   0.694
10249WAT      O30988   9.652   2.231   2.426
10249WAT     H130989   9.658   2.145   2.377
10249WAT     H230990   9.705   2.301   2.377
10250WAT      O30991   0.419   0.755   3.320
10250WAT     H130992   0.383   0.662   3.314
10250WAT     H230993   0.495   0.766   3.256
10251WAT      O30994   2.976   5.682   1.954
10251WAT     H130995   2.947   5.600   1.904
10251WAT     H230996   2.928   5.687   2.041
10252WAT      O30997   1.509   4.838   2.488
10252WAT     H130998   1.445   4.772   2.527
10252WAT     H230999   1.557   4.797   2.411
10253WAT      O31000   1.261   9.819   0.011
10253WAT     H131001   1.203   9.900   0.016
10253WAT     H231002   1.344   9.834   0.065
10254WAT      O31003   1.660   0.430   7.705
10254WAT     H131004   1.633   0.520   7.671
10254WAT     H231005   1.644   0.361   7.634
10255WAT      O31006   2.204   8.350   3.535
10255WAT     H131007   2.151   8.324   3.616
10255WAT     H231008   2.152   8.416   3.481
10256WAT      O31009   1.946   6.025   3.389
10256WAT     H131010   2.044   6.041   3.402
10256WAT     H231011   1.929   5.926   3.387
10257WAT      O31012   9.325   0.867   2.421
10257WAT     H131013   9.338   0.877   2.520
10257WAT     H231014   9.413   0.877   2.375
10258WAT      O31015   3.120   2.316   4.926
10258WAT     H131016   3.024   2.330   4.900
10258WAT     H231017   3.133   2.220   4.952
10259WAT      O31018   5.636   8.790   2.557
10259WAT     H131019   5.572   8.771   2.631
10259WAT     H231020   5.692   8.869   2.580
10260WAT      O31021   2.638   2.056   8.741
10260WAT     H131022   2.668   2.107   8.661
10260WAT     H231023   2.567   2.108   8.789
10261WAT      O31024   5.473   5.835   1.642
10261WAT     H131025   5.461   5.740   1.669
10261WAT     H231026   5.545   5.877   1.698
10262WAT      O31027   6.826   5.468   6.099
10262WAT     H131028   6.882   5.439   6.022
10262WAT     H231029   6.768   5.392   6.129
10263WAT      O31030   6.405   0.077   8.435
10263WAT     H131031   6.498   0.112   8.452
10263WAT     H231032   6.391   0.068   8.337
10264WAT      O31033   1.667   0.658   4.274
10264WAT     H131034   1.626   0.567   4.267
10264WAT     H231035   1.691   0.676   4.370
10265WAT      O31036   8.101   8.624   5.477
10265WAT     H131037   8.130   8.686   5.404
10265WAT     H231038   8.064   8.678   5.553
10266WAT      O31039   8.727   2.109   0.521
10266WAT     H131040   8.640   2.152   0.546
10266WAT     H231041   8.781   2.092   0.604
10267WAT      O31042   7.827   6.976   3.655
10267WAT     H131043   7.815   6.888   3.701
10267WAT     H231044   7.751   6.992   3.593
10268WAT      O31045   4.886   6.972   0.626
10268WAT     H131046   4.955   6.922   0.679
10268WAT     H231047   4.928   7.053   0.584
10269WAT      O31048   1.633   6.198   7.498
10269WAT     H131049   1.588   6.227   7.583
10269WAT     H231050   1.731   6.189   7.513
10270WAT      O31051   0.998   7.932   4.547
10270WAT     H131052   0.932   8.006   4.535
10270WAT     H231053   1.019   7.892   4.457
10271WAT      O31054   8.825   9.485   0.042
10271WAT     H131055   8.868   9.553   0.102
10271WAT     H231056   8.783   9.414   0.097
10272WAT      O31057   2.739   5.213   8.800
10272WAT     H131058   2.833   5.244   8.793
10272WAT     H231059   2.718   5.150   8.725
10273WAT      O31060   9.669   3.692   7.631
10273WAT     H131061   9.764   3.684   7.602
10273WAT     H231062   9.664   3.681   7.731
10274WAT      O31063   7.082   5.430   9.352
10274WAT     H131064   7.000   5.390   9.312
10274WAT     H231065   7.063   5.523   9.384
10275WAT      O31066   3.307   8.182   3.985
10275WAT     H131067   3.270   8.188   3.892
10275WAT     H231068   3.233   8.166   4.050
10276WAT      O31069   7.331   9.835   0.017
10276WAT     H131070   7.334   9.935   0.019
10276WAT     H231071   7.252   9.805  -0.036
10277WAT      O31072   9.851   1.109   8.897
10277WAT     H131073   9.859   1.197   8.850
10277WAT     H231074   9.797   1.121   8.980
10278WAT      O31075   7.479   8.664   2.593
10278WAT     H131076   7.526   8.579   2.572
10278WAT     H231077   7.538   8.723   2.648
10279WAT      O31078   1.505   5.378   4.487
10279WAT     H131079   1.575   5.307   4.484
10279WAT     H231080   1.511   5.428   4.574
10280WAT      O31081   2.755   4.639   3.891
10280WAT     H131082   2.675   4.602   3.843
10280WAT     H231083   2.837   4.588   3.864
10281WAT      O31084   1.247   8.000   1.142
10281WAT     H131085   1.336   7.956   1.146
10281WAT     H231086   1.196   7.967   1.062
10282WAT      O31087   0.751   6.255   1.379
10282WAT     H131088   0.838   6.288   1.416
10282WAT     H231089   0.758   6.157   1.361
10283WAT      O31090   5.540   0.920   8.957
10283WAT     H131091   5.440   0.929   8.962
10283WAT     H231092   5.565   0.823   8.957
10284WAT      O31093   5.186   7.473   8.967
10284WAT     H131094   5.206   7.377   8.986
10284WAT     H231095   5.244   7.532   9.024
10285WAT      O31096   1.771   1.179   0.490
10285WAT     H131097   1.719   1.159   0.407
10285WAT     H231098   1.749   1.271   0.522
10286WAT      O31099   0.325   5.822   9.667
10286WAT     H131100   0.301   5.745   9.725
10286WAT     H231101   0.295   5.907   9.711
10287WAT      O31102   5.582   8.739   5.441
10287WAT     H131103   5.570   8.683   5.359
10287WAT     H231104   5.505   8.724   5.503
10288WAT      O31105   1.380   7.430   3.689
10288WAT     H131106   1.396   7.487   3.608
10288WAT     H231107   1.461   7.434   3.748
10289WAT      O31108   6.950   6.088   9.692
10289WAT     H131109   6.971   6.161   9.627
10289WAT     H231110   6.913   6.127   9.776
10290WAT      O31111   1.966   2.106   8.184
10290WAT     H131112   1.893   2.163   8.147
10290WAT     H231113   1.982   2.130   8.280
10291WAT      O31114   2.305   2.394   2.510
10291WAT     H131115   2.289   2.331   2.434
10291WAT     H231116   2.395   2.435   2.501
10292WAT      O31117   0.391   9.278   5.163
10292WAT     H131118   0.291   9.282   5.159
10292WAT     H231119   0.419   9.256   5.257
10293WAT      O31120   3.416   1.858   9.223
10293WAT     H131121   3.344   1.828   9.161
10293WAT     H231122   3.501   1.809   9.202
10294WAT      O31123   7.356   8.863   1.111
10294WAT     H131124   7.287   8.835   1.044
10294WAT     H231125   7.315   8.863   1.203
10295WAT      O31126   1.463   5.156   1.245
10295WAT     H131127   1.532   5.207   1.297
10295WAT     H231128   1.502   5.124   1.159
10296WAT      O31129   9.532   4.046   7.452
10296WAT     H131130   9.472   4.061   7.531
10296WAT     H231131   9.625   4.028   7.484
10297WAT      O31132   9.484   4.803   8.232
10297WAT     H131133   9.437   4.720   8.263
10297WAT     H231134   9.427   4.883   8.251
10298WAT      O31135   4.623   6.022   2.282
10298WAT     H131136   4.665   6.036   2.191
10298WAT     H231137   4.548   6.087   2.293
10299WAT      O31138   4.650   6.195   0.094
10299WAT     H131139   4.597   6.268   0.137
10299WAT     H231140   4.659   6.119   0.158
10300WAT      O31141   7.690   5.193   3.476
10300WAT     H131142   7.633   5.228   3.550
10300WAT     H231143   7.747   5.267   3.440
10301WAT      O31144   5.663   8.401   1.979
10301WAT     H131145   5.665   8.422   2.076
10301WAT     H231146   5.597   8.461   1.933
10302WAT      O31147   9.451   6.745   5.414
10302WAT     H131148   9.429   6.654   5.449
10302WAT     H231149   9.550   6.758   5.413
10303WAT      O31150   7.951   5.551   7.415
10303WAT     H131151   8.001   5.581   7.496
10303WAT     H231152   7.868   5.503   7.443
10304WAT      O31153   3.151   8.493   7.668
10304WAT     H131154   3.099   8.415   7.634
10304WAT     H231155   3.095   8.544   7.734
10305WAT      O31156   4.228   2.232   8.043
10305WAT     H131157   4.189   2.286   7.968
10305WAT     H231158   4.253   2.293   8.118
10306WAT      O31159   3.128   5.397   6.520
10306WAT     H131160   3.072   5.429   6.596
10306WAT     H231161   3.120   5.298   6.512
10307WAT      O31162   8.439   0.791   2.724
10307WAT     H131163   8.489   0.779   2.809
10307WAT     H231164   8.415   0.887   2.712
10308WAT      O31165   8.478   6.806   9.205
10308WAT     H131166   8.414   6.861   9.260
10308WAT     H231167   8.427   6.736   9.155
10309WAT      O31168   7.655   0.308   1.800
10309WAT     H131169   7.670   0.392   1.748
10309WAT     H231170   7.564   0.271   1.779
10310WAT      O31171   1.687   2.814   6.098
10310WAT     H131172   1.783   2.829   6.074
10310WAT     H231173   1.648   2.744   6.038
10311WAT      O31174   2.056   7.722   7.388
10311WAT     H131175   2.034   7.679   7.300
10311WAT     H231176   2.062   7.652   7.459
10312WAT      O31177   6.056   8.014   5.044
10312WAT     H131178   5.959   8.009   5.023
10312WAT     H231179   6.093   8.101   5.013
10313WAT      O31180   1.951   6.770   1.950
10313WAT     H131181   2.031   6.755   1.893
10313WAT     H231182   1.973   6.836   2.022
10314WAT      O31183   8.178   7.197   7.066
10314WAT     H131184   8.081   7.183   7.049
10314WAT     H231185   8.196   7.191   7.164
10315WAT      O31186   0.207   5.183   2.200
10315WAT     H131187   0.196   5.194   2.101
10315WAT     H231188   0.184   5.269   2.246
10316WAT      O31189   4.919   7.239   8.928
10316WAT     H131190   4.982   7.248   8.850
10316WAT     H231191   4.955   7.291   9.005
10317WAT      O31192   3.722   2.022   1.699
10317WAT     H131193   3.745   1.937   1.747
10317WAT     H231194   3.624   2.041   1.710
10318WAT      O31195   5.844   1.539   0.461
10318WAT     H131196   5.818   1.442   0.456
10318WAT     H231197   5.942   1.548   0.445
10319WAT      O31198   8.299   6.053   1.098
10319WAT     H131199   8.367   6.055   1.025
10319WAT     H231200   8.241   6.135   1.091
10320WAT      O31201   5.242   2.888   2.404
10320WAT     H131202   5.199   2.941   2.477
10320WAT     H231203   5.334   2.862   2.431
10321WAT      O31204   0.311   2.185   4.351
10321WAT     H131205   0.227   2.132   4.354
10321WAT     H231206   0.379   2.137   4.296
10322WAT      O31207   0.312   6.152   7.543
10322WAT     H131208   0.364   6.093   7.481
10322WAT     H231209   0.357   6.241   7.549
10323WAT      O31210   2.620   1.461   5.630
10323WAT     H131211   2.539   1.513   5.605
10323WAT     H231212   2.676   1.445   5.549
10324WAT      O31213   0.102   6.152   0.710
10324WAT     H131214   0.120   6.062   0.668
10324WAT     H231215   0.166   6.167   0.785
10325WAT      O31216   7.059   6.477   8.562
10325WAT     H131217   6.965   6.478   8.595
10325WAT     H231218   7.071   6.546   8.491
10326WAT      O31219   9.811   5.600   0.595
10326WAT     H131220   9.786   5.617   0.691
10326WAT     H231221   9.910   5.596   0.586
10327WAT      O31222   3.008   6.305   6.866
10327WAT     H131223   3.046   6.213   6.875
10327WAT     H231224   3.050   6.366   6.934
10328WAT      O31225   8.909   6.801   3.783
10328WAT     H131226   8.895   6.702   3.778
10328WAT     H231227   9.001   6.821   3.815
10329WAT      O31228   1.966   2.862   0.029
10329WAT     H131229   1.956   2.763   0.032
10329WAT     H231230   1.901   2.904   0.092
10330WAT      O31231   5.519   3.081   5.862
10330WAT     H131232   5.433   3.121   5.831
10330WAT     H231233   5.519   2.983   5.842
10331WAT      O31234   3.140   7.565   8.847
10331WAT     H131235   3.162   7.479   8.894
10331WAT     H231236   3.096   7.544   8.760
10332WAT      O31237   9.612   2.276   6.241
10332WAT     H131238   9.644   2.295   6.334
10332WAT     H231239   9.660   2.336   6.177
10333WAT      O31240   1.408   6.457   0.703
10333WAT     H131241   1.348   6.390   0.660
10333WAT     H231242   1.369   6.548   0.693
10334WAT      O31243   5.398   8.189   8.626
10334WAT     H131244   5.437   8.104   8.589
10334WAT     H231245   5.446   8.214   8.710
10335WAT      O31246   1.199   9.246   2.074
10335WAT     H131247   1.171   9.196   1.992
10335WAT     H231248   1.251   9.186   2.134
10336WAT      O31249   8.601   5.489   4.529
10336WAT     H131250   8.694   5.466   4.502
10336WAT     H231251   8.558   5.411   4.574
10337WAT      O31252   9.794   8.318   2.346
10337WAT     H131253   9.845   8.234   2.364
10337WAT     H231254   9.768   8.321   2.249
10338WAT      O31255   6.049   9.581   7.475
10338WAT     H131256   5.980   9.624   7.416
10338WAT     H231257   6.140   9.605   7.442
10339WAT      O31258   4.690   1.450   6.881
10339WAT     H131259   4.721   1.382   6.815
10339WAT     H231260   4.761   1.520   6.893
10340WAT      O31261   1.748   0.655   9.890
10340WAT     H131262   1.776   0.565   9.923
10340WAT     H231263   1.661   0.648   9.841
10341WAT      O31264   5.270   1.228   6.853
10341WAT     H131265   5.319   1.250   6.937
10341WAT     H231266   5.314   1.150   6.808
10342WAT      O31267   6.446   5.800   4.443
10342WAT     H131268   6.447   5.849   4.356
10342WAT     H231269   6.429   5.703   4.427
10343WAT      O31270   0.535   2.197   3.546
10343WAT     H131271   0.629   2.163   3.543
10343WAT     H231272   0.507   2.207   3.641
10344WAT      O31273   3.890   4.605   3.707
10344WAT     H131274   3.964   4.672   3.716
10344WAT     H231275   3.869   4.591   3.611
10345WAT      O31276   4.473   7.641   2.384
10345WAT     H131277   4.397   7.686   2.337
10345WAT     H231278   4.437   7.574   2.449
10346WAT      O31279   7.105   6.801   3.723
10346WAT     H131280   7.060   6.734   3.664
10346WAT     H231281   7.188   6.834   3.680
10347WAT      O31282   9.361   3.029   9.019
10347WAT     H131283   9.456   3.013   8.992
10347WAT     H231284   9.312   2.942   9.022
10348WAT      O31285   7.451   2.756   8.907
10348WAT     H131286   7.366   2.809   8.910
10348WAT     H231287   7.525   2.809   8.948
10349WAT      O31288   3.335   9.615   6.046
10349WAT     H131289   3.308   9.680   6.116
10349WAT     H231290   3.253   9.569   6.010
10350WAT      O31291   0.179   5.320   8.260
10350WAT     H131292   0.084   5.296   8.240
10350WAT     H231293   0.190   5.419   8.249
10351WAT      O31294   8.140   7.766   6.112
10351WAT     H131295   8.199   7.692   6.080
10351WAT     H231296   8.064   7.779   6.048
10352WAT      O31297   5.370   0.727   2.305
10352WAT     H131298   5.366   0.676   2.390
10352WAT     H231299   5.343   0.668   2.229
10353WAT      O31300   6.729   6.284   0.453
10353WAT     H131301   6.795   6.209   0.440
10353WAT     H231302   6.775   6.371   0.435
10354WAT      O31303   9.418   2.218   3.407
10354WAT     H131304   9.514   2.237   3.426
10354WAT     H231305   9.365   2.302   3.416
10355WAT      O31306   2.949   2.353   0.903
10355WAT     H131307   3.009   2.274   0.891
10355WAT     H231308   2.956   2.386   0.997
10356WAT      O31309   9.600   8.558   8.209
10356WAT     H131310   9.613   8.653   8.235
10356WAT     H231311   9.503   8.534   8.219
10357WAT      O31312   2.292   8.933   8.382
10357WAT     H131313   2.384   8.969   8.369
10357WAT     H231314   2.279   8.906   8.477
10358WAT      O31315   4.670   4.425   7.829
10358WAT     H131316   4.654   4.373   7.913
10358WAT     H231317   4.583   4.435   7.779
10359WAT      O31318   4.070   7.958   3.958
10359WAT     H131319   4.017   7.920   3.882
10359WAT     H231320   4.166   7.934   3.948
10360WAT      O31321   4.225   5.924   2.745
10360WAT     H131322   4.244   5.930   2.843
10360WAT     H231323   4.158   5.852   2.728
10361WAT      O31324   7.853   4.567   4.148
10361WAT     H131325   7.899   4.519   4.073
10361WAT     H231326   7.892   4.537   4.236
10362WAT      O31327   7.498   4.606   1.136
10362WAT     H131328   7.493   4.539   1.210
10362WAT     H231329   7.462   4.566   1.052
10363WAT      O31330   2.656   7.892   7.194
10363WAT     H131331   2.696   7.863   7.281
10363WAT     H231332   2.726   7.887   7.123
10364WAT      O31333   4.062   4.416   3.168
10364WAT     H131334   4.148   4.405   3.217
10364WAT     H231335   4.079   4.460   3.080
10365WAT      O31336   1.643   7.120   0.522
10365WAT     H131337   1.607   7.173   0.598
10365WAT     H231338   1.583   7.130   0.442
10366WAT      O31339   6.561   8.898   4.898
10366WAT     H131340   6.638   8.955   4.924
10366WAT     H231341   6.571   8.807   4.938
10367WAT      O31342   2.294   2.772   7.902
10367WAT     H131343   2.364   2.703   7.885
10367WAT     H231344   2.326   2.861   7.869
10368WAT      O31345   9.368   2.263   0.449
10368WAT     H131346   9.401   2.170   0.470
10368WAT     H231347   9.406   2.327   0.515
10369WAT      O31348   4.781   2.422   0.407
10369WAT     H131349   4.705   2.407   0.470
10369WAT     H231350   4.855   2.359   0.429
10370WAT      O31351   9.200   8.424   7.400
10370WAT     H131352   9.295   8.430   7.429
10370WAT     H231353   9.195   8.435   7.301
10371WAT      O31354   5.663   8.044   5.400
10371WAT     H131355   5.756   8.074   5.381
10371WAT     H231356   5.658   7.944   5.392
10372WAT      O31357   7.142   2.633   4.090
10372WAT     H131358   7.223   2.659   4.144
10372WAT     H231359   7.170   2.575   4.014
10373WAT      O31360   0.007   7.286   9.873
10373WAT     H131361  -0.005   7.190   9.849
10373WAT     H231362   0.101   7.301   9.905
10374WAT      O31363   0.221   2.567   7.964
10374WAT     H131364   0.169   2.513   7.897
10374WAT     H231365   0.173   2.565   8.052
10375WAT      O31366   0.991   3.326   3.754
10375WAT     H131367   0.956   3.398   3.814
10375WAT     H231368   1.036   3.367   3.674
10376WAT      O31369   5.351   6.481   4.688
10376WAT     H131370   5.321   6.536   4.766
10376WAT     H231371   5.272   6.433   4.649
10377WAT      O31372   0.485   1.214   6.790
10377WAT     H131373   0.475   1.190   6.887
10377WAT     H231374   0.521   1.307   6.782
10378WAT      O31375   7.889   0.810   6.219
10378WAT     H131376   7.863   0.799   6.123
10378WAT     H231377   7.968   0.870   6.226
10379WAT      O31378   5.272   3.667   9.550
10379WAT     H131379   5.369   3.671   9.526
10379WAT     H231380   5.219   3.714   9.480
10380WAT      O31381   6.556   4.180   3.415
10380WAT     H131382   6.626   4.109   3.423
10380WAT     H231383   6.601   4.270   3.414
10381WAT      O31384   6.284   5.614   5.811
10381WAT     H131385   6.361   5.586   5.869
10381WAT     H231386   6.279   5.714   5.807
10382WAT      O31387   2.855   1.552   0.741
10382WAT     H131388   2.756   1.566   0.747
10382WAT     H231389   2.902   1.640   0.741
10383WAT      O31390   8.683   3.963   8.912
10383WAT     H131391   8.773   4.005   8.908
10383WAT     H231392   8.636   3.976   8.825
10384WAT      O31393   5.484   3.114   2.831
10384WAT     H131394   5.404   3.142   2.777
10384WAT     H231395   5.480   3.156   2.921
10385WAT      O31396   7.402   9.529   4.457
10385WAT     H131397   7.314   9.490   4.431
10385WAT     H231398   7.400   9.628   4.442
10386WAT      O31399   8.935   8.106   3.919
10386WAT     H131400   8.866   8.178   3.919
10386WAT     H231401   8.912   8.037   3.988
10387WAT      O31402   7.783   9.822   7.712
10387WAT     H131403   7.861   9.795   7.656
10387WAT     H231404   7.811   9.892   7.777
10388WAT      O31405   4.452   5.872   9.410
10388WAT     H131406   4.514   5.934   9.361
10388WAT     H231407   4.414   5.920   9.490
10389WAT      O31408   4.788   9.809   8.754
10389WAT     H131409   4.872   9.836   8.801
10389WAT     H231410   4.804   9.808   8.655
10390WAT      O31411   9.478   0.688   6.668
10390WAT     H131412   9.428   0.602   6.664
10390WAT     H231413   9.417   0.764   6.644
10391WAT      O31414   7.588   7.177   4.201
10391WAT     H131415   7.509   7.232   4.173
10391WAT     H231416   7.669   7.234   4.206
10392WAT      O31417   4.467   7.746   3.485
10392WAT     H131418   4.379   7.743   3.437
10392WAT     H231419   4.527   7.813   3.441
10393WAT      O31420   9.376   7.366   3.305
10393WAT     H131421   9.285   7.393   3.334
10393WAT     H231422   9.430   7.338   3.385
10394WAT      O31423   2.885   5.409   4.355
10394WAT     H131424   2.981   5.420   4.383
10394WAT     H231425   2.861   5.312   4.360
10395WAT      O31426   5.934   1.224   2.638
10395WAT     H131427   5.857   1.248   2.579
10395WAT     H231428   6.010   1.287   2.620
10396WAT      O31429   6.334   5.255   0.813
10396WAT     H131430   6.316   5.330   0.750
10396WAT     H231431   6.283   5.174   0.785
10397WAT      O31432   3.857   5.537   2.126
10397WAT     H131433   3.954   5.540   2.102
10397WAT     H231434   3.802   5.559   2.046
10398WAT      O31435   0.555   2.393   0.051
10398WAT     H131436   0.484   2.373  -0.016
10398WAT     H231437   0.533   2.477   0.100
10399WAT      O31438   9.480   7.209   0.371
10399WAT     H131439   9.409   7.139   0.386
10399WAT     H231440   9.493   7.223   0.273
10400WAT      O31441   3.225   7.804   2.907
10400WAT     H131442   3.188   7.721   2.866
10400WAT     H231443   3.319   7.818   2.874
10401WAT      O31444   6.828   6.334   4.275
10401WAT     H131445   6.867   6.270   4.341
10401WAT     H231446   6.901   6.391   4.237
10402WAT      O31447   1.815   4.475   0.031
10402WAT     H131448   1.854   4.474   0.123
10402WAT     H231449   1.803   4.570   0.001
10403WAT      O31450   0.152   3.404   2.313
10403WAT     H131451   0.134   3.466   2.237
10403WAT     H231452   0.156   3.310   2.280
10404WAT      O31453   8.359   6.039   3.062
10404WAT     H131454   8.316   5.957   3.101
10404WAT     H231455   8.297   6.117   3.071
10405WAT      O31456   5.063   2.844   4.989
10405WAT     H131457   5.083   2.862   4.893
10405WAT     H231458   5.129   2.892   5.047
10406WAT      O31459   0.604   8.290   5.229
10406WAT     H131460   0.667   8.362   5.199
10406WAT     H231461   0.612   8.279   5.328
10407WAT      O31462   4.079   6.469   1.052
10407WAT     H131463   4.091   6.378   1.091
10407WAT     H231464   3.982   6.495   1.057
10408WAT      O31465   4.138   2.539   5.694
10408WAT     H131466   4.207   2.554   5.764
10408WAT     H231467   4.166   2.462   5.636
10409WAT      O31468   8.218   8.498   6.273
10409WAT     H131469   8.218   8.446   6.358
10409WAT     H231470   8.287   8.461   6.211
10410WAT      O31471   6.875   3.621   5.845
10410WAT     H131472   6.818   3.598   5.766
10410WAT     H231473   6.841   3.705   5.887
10411WAT      O31474   5.350   3.225   7.599
10411WAT     H131475   5.356   3.203   7.696
10411WAT     H231476   5.259   3.199   7.565
10412WAT      O31477   2.242   3.270   4.622
10412WAT     H131478   2.313   3.201   4.638
10412WAT     H231479   2.161   3.227   4.583
10413WAT      O31480   3.860   9.506   7.034
10413WAT     H131481   3.914   9.424   7.015
10413WAT     H231482   3.910   9.565   7.098
10414WAT      O31483   1.581   1.149   1.328
10414WAT     H131484   1.676   1.163   1.354
10414WAT     H231485   1.567   1.053   1.303
10415WAT      O31486   3.540   0.474   7.997
10415WAT     H131487   3.499   0.554   8.041
10415WAT     H231488   3.624   0.448   8.045
10416WAT      O31489   8.744   2.328   5.245
10416WAT     H131490   8.787   2.376   5.169
10416WAT     H231491   8.806   2.257   5.279
10417WAT      O31492   0.958   7.516   0.105
10417WAT     H131493   0.952   7.566   0.191
10417WAT     H231494   0.884   7.545   0.044
10418WAT      O31495   2.042   4.865   2.507
10418WAT     H131496   2.009   4.862   2.413
10418WAT     H231497   2.139   4.839   2.509
10419WAT      O31498   0.514   2.949   5.124
10419WAT     H131499   0.574   3.025   5.147
10419WAT     H231500   0.428   2.958   5.173
10420WAT      O31501   1.129   9.089   6.924
10420WAT     H131502   1.110   9.026   6.999
10420WAT     H231503   1.142   9.181   6.961
10421WAT      O31504   6.071   2.169   3.817
10421WAT     H131505   6.157   2.217   3.835
10421WAT     H231506   6.075   2.128   3.726
10422WAT      O31507   3.626   0.350   7.047
10422WAT     H131508   3.642   0.386   7.139
10422WAT     H231509   3.650   0.419   6.979
10423WAT      O31510   3.743   6.187   0.955
10423WAT     H131511   3.696   6.119   0.899
10423WAT     H231512   3.734   6.163   1.051
10424WAT      O31513   3.857   9.378   8.702
10424WAT     H131514   3.956   9.390   8.688
10424WAT     H231515   3.807   9.428   8.631
10425WAT      O31516   7.756   3.285   1.349
10425WAT     H131517   7.723   3.292   1.443
10425WAT     H231518   7.699   3.342   1.289
10426WAT      O31519   9.802   0.906   4.967
10426WAT     H131520   9.768   0.826   5.018
10426WAT     H231521   9.806   0.883   4.870
10427WAT      O31522   8.216   7.403   6.444
10427WAT     H131523   8.190   7.371   6.353
10427WAT     H231524   8.135   7.442   6.489
10428WAT      O31525   0.600   7.840   1.322
10428WAT     H131526   0.675   7.782   1.355
10428WAT     H231527   0.635   7.932   1.304
10429WAT      O31528   5.414   3.195   8.586
10429WAT     H131529   5.437   3.145   8.503
10429WAT     H231530   5.495   3.241   8.621
10430WAT      O31531   1.394   0.634   8.084
10430WAT     H131532   1.376   0.560   8.020
10430WAT     H231533   1.459   0.699   8.042
10431WAT      O31534   0.905   1.215   6.203
10431WAT     H131535   0.891   1.245   6.297
10431WAT     H231536   0.862   1.125   6.189
10432WAT      O31537   6.656   1.699   9.144
10432WAT     H131538   6.687   1.719   9.051
10432WAT     H231539   6.606   1.612   9.144
10433WAT      O31540   2.197   9.407   1.941
10433WAT     H131541   2.164   9.498   1.916
10433WAT     H231542   2.289   9.414   1.979
10434WAT      O31543   7.304   0.729   7.695
10434WAT     H131544   7.214   0.763   7.668
10434WAT     H231545   7.298   0.686   7.784
10435WAT      O31546   2.959   6.445   1.995
10435WAT     H131547   2.957   6.497   2.081
10435WAT     H231548   2.929   6.503   1.920
10436WAT      O31549   6.843   5.665   5.099
10436WAT     H131550   6.791   5.633   5.179
10436WAT     H231551   6.799   5.747   5.061
10437WAT      O31552   9.415   7.430   8.076
10437WAT     H131553   9.477   7.476   8.014
10437WAT     H231554   9.368   7.356   8.027
10438WAT      O31555   5.194   0.538   5.271
10438WAT     H131556   5.187   0.525   5.370
10438WAT     H231557   5.107   0.574   5.236
10439WAT      O31558   0.486   7.720   7.410
10439WAT     H131559   0.503   7.621   7.409
10439WAT     H231560   0.564   7.767   7.368
10440WAT      O31561   0.945   3.415   4.282
10440WAT     H131562   0.925   3.323   4.248
10440WAT     H231563   0.868   3.448   4.337
10441WAT      O31564   7.774   0.639   5.305
10441WAT     H131565   7.756   0.734   5.328
10441WAT     H231566   7.834   0.635   5.225
10442WAT      O31567   3.132   2.550   9.311
10442WAT     H131568   3.178   2.461   9.318
10442WAT     H231569   3.193   2.621   9.346
10443WAT      O31570   6.527   6.576   7.894
10443WAT     H131571   6.585   6.621   7.826
10443WAT     H231572   6.479   6.645   7.948
10444WAT      O31573   2.186   6.117   3.668
10444WAT     H131574   2.170   6.215   3.679
10444WAT     H231575   2.243   6.083   3.743
10445WAT      O31576   8.663   2.836   4.706
10445WAT     H131577   8.583   2.854   4.764
10445WAT     H231578   8.672   2.738   4.691
10446WAT      O31579   9.429   0.572   1.824
10446WAT     H131580   9.429   0.672   1.823
10446WAT     H231581   9.371   0.539   1.899
10447WAT      O31582   7.161   4.605   3.961
10447WAT     H131583   7.194   4.642   4.048
10447WAT     H231584   7.084   4.660   3.928
10448WAT      O31585   6.102   4.934   4.350
10448WAT     H131586   6.178   4.994   4.328
10448WAT     H231587   6.094   4.863   4.280
10449WAT      O31588   0.314   1.933   8.842
10449WAT     H131589   0.237   1.916   8.780
10449WAT     H231590   0.397   1.946   8.788
10450WAT      O31591   2.546   4.699   0.970
10450WAT     H131592   2.449   4.691   0.945
10450WAT     H231593   2.603   4.679   0.891
10451WAT      O31594   0.483   4.418   9.028
10451WAT     H131595   0.402   4.390   8.978
10451WAT     H231596   0.460   4.494   9.090
10452WAT      O31597   9.285   2.311   8.359
10452WAT     H131598   9.258   2.222   8.395
10452WAT     H231599   9.328   2.298   8.269
10453WAT      O31600   3.839   7.515   7.356
10453WAT     H131601   3.934   7.486   7.364
10453WAT     H231602   3.818   7.581   7.428
10454WAT      O31603   0.187   5.567   0.623
10454WAT     H131604   0.262   5.633   0.618
10454WAT     H231605   0.182   5.529   0.715
10455WAT      O31606   0.635   2.108   2.677
10455WAT     H131607   0.563   2.039   2.683
10455WAT     H231608   0.713   2.079   2.732
10456WAT      O31609   4.459   8.403   8.025
10456WAT     H131610   4.436   8.500   8.027
10456WAT     H231611   4.394   8.354   7.967
10457WAT      O31612   5.894   4.008   8.550
10457WAT     H131613   5.923   4.035   8.459
10457WAT     H231614   5.812   3.951   8.544
10458WAT      O31615   6.419   8.832   4.662
10458WAT     H131616   6.457   8.886   4.737
10458WAT     H231617   6.466   8.744   4.657
10459WAT      O31618   1.383   2.813   7.992
10459WAT     H131619   1.424   2.767   8.070
10459WAT     H231620   1.308   2.872   8.023
10460WAT      O31621   2.853   8.190   9.412
10460WAT     H131622   2.865   8.169   9.509
10460WAT     H231623   2.756   8.190   9.390
10461WAT      O31624   0.229   8.526   7.995
10461WAT     H131625   0.216   8.437   8.040
10461WAT     H231626   0.310   8.521   7.936
10462WAT      O31627   6.710   3.111   0.736
10462WAT     H131628   6.610   3.105   0.724
10462WAT     H231629   6.752   3.027   0.702
10463WAT      O31630   9.851   2.679   0.821
10463WAT     H131631   9.756   2.709   0.811
10463WAT     H231632   9.855   2.601   0.883
10464WAT      O31633   8.682   7.149   8.477
10464WAT     H131634   8.743   7.076   8.446
10464WAT     H231635   8.650   7.129   8.569
10465WAT      O31636   5.082   8.551   6.669
10465WAT     H131637   5.081   8.506   6.758
10465WAT     H231638   5.106   8.485   6.598
10466WAT      O31639   4.866   7.817   5.782
10466WAT     H131640   4.879   7.802   5.880
10466WAT     H231641   4.908   7.742   5.731
10467WAT      O31642   0.817   6.706   3.719
10467WAT     H131643   0.844   6.802   3.726
10467WAT     H231644   0.786   6.686   3.626
10468WAT      O31645   7.313   3.862   7.796
10468WAT     H131646   7.238   3.926   7.778
10468WAT     H231647   7.315   3.792   7.725
10469WAT      O31648   6.606   9.003   6.905
10469WAT     H131649   6.625   9.102   6.909
10469WAT     H231650   6.664   8.961   6.835
10470WAT      O31651   4.400   0.618   2.850
10470WAT     H131652   4.392   0.714   2.876
10470WAT     H231653   4.316   0.570   2.875
10471WAT      O31654   6.510   5.321   1.266
10471WAT     H131655   6.562   5.342   1.349
10471WAT     H231656   6.521   5.224   1.243
10472WAT      O31657   8.117   8.684   6.566
10472WAT     H131658   8.190   8.680   6.634
10472WAT     H231659   8.050   8.612   6.585
10473WAT      O31660   1.746   2.591   2.265
10473WAT     H131661   1.721   2.495   2.255
10473WAT     H231662   1.843   2.598   2.288
10474WAT      O31663   0.093   2.861   7.255
10474WAT     H131664   0.057   2.954   7.251
10474WAT     H231665   0.177   2.861   7.310
10475WAT      O31666   7.955   3.943   0.432
10475WAT     H131667   8.030   3.880   0.452
10475WAT     H231668   7.872   3.912   0.478
10476WAT      O31669   5.702   2.735   2.772
10476WAT     H131670   5.766   2.662   2.750
10476WAT     H231671   5.623   2.730   2.710
10477WAT      O31672   8.664   8.738   9.092
10477WAT     H131673   8.642   8.822   9.141
10477WAT     H231674   8.585   8.709   9.038
10478WAT      O31675   8.653   7.618   1.368
10478WAT     H131676   8.739   7.654   1.405
10478WAT     H231677   8.581   7.627   1.437
10479WAT      O31678   7.855   8.640   4.065
10479WAT     H131679   7.806   8.715   4.021
10479WAT     H231680   7.865   8.565   3.999
10480WAT      O31681   0.204   0.257   1.426
10480WAT     H131682   0.267   0.196   1.475
10480WAT     H231683   0.154   0.313   1.492
10481WAT      O31684   6.781   8.256   9.136
10481WAT     H131685   6.795   8.267   9.038
10481WAT     H231686   6.798   8.343   9.182
10482WAT      O31687   0.705   2.143   3.041
10482WAT     H131688   0.610   2.114   3.053
10482WAT     H231689   0.755   2.127   3.126
10483WAT      O31690   2.676   5.116   8.540
10483WAT     H131691   2.592   5.089   8.493
10483WAT     H231692   2.749   5.051   8.518
10484WAT      O31693   5.021   8.659   9.167
10484WAT     H131694   5.017   8.757   9.151
10484WAT     H231695   5.039   8.612   9.080
10485WAT      O31696   1.628   7.527   0.806
10485WAT     H131697   1.625   7.444   0.751
10485WAT     H231698   1.606   7.506   0.900
10486WAT      O31699   7.344   3.358   6.603
10486WAT     H131700   7.325   3.454   6.584
10486WAT     H231701   7.259   3.312   6.630
10487WAT      O31702   8.105   6.895   2.835
10487WAT     H131703   8.150   6.962   2.894
10487WAT     H231704   8.159   6.884   2.752
10488WAT      O31705   1.848   5.715   9.609
10488WAT     H131706   1.895   5.632   9.639
10488WAT     H231707   1.915   5.788   9.595
10489WAT      O31708   3.205   3.293   5.784
10489WAT     H131709   3.226   3.350   5.705
10489WAT     H231710   3.115   3.252   5.772
10490WAT      O31711   3.144   2.437   6.725
10490WAT     H131712   3.146   2.391   6.636
10490WAT     H231713   3.089   2.520   6.718
10491WAT      O31714   2.794   6.847   3.048
10491WAT     H131715   2.806   6.808   3.139
10491WAT     H231716   2.822   6.943   3.049
10492WAT      O31717   0.107   8.124   2.385
10492WAT     H131718   0.127   8.112   2.288
10492WAT     H231719   0.193   8.138   2.435
10493WAT      O31720   6.932   4.692   5.470
10493WAT     H131721   6.992   4.768   5.495
10493WAT     H231722   6.926   4.628   5.546
10494WAT      O31723   6.044   2.732   6.457
10494WAT     H131724   5.963   2.756   6.511
10494WAT     H231725   6.030   2.758   6.362
10495WAT      O31726   6.741   8.242   5.181
10495WAT     H131727   6.746   8.197   5.091
10495WAT     H231728   6.676   8.193   5.239
10496WAT      O31729   2.517   7.513   1.946
10496WAT     H131730   2.494   7.504   1.850
10496WAT     H231731   2.550   7.605   1.964
10497WAT      O31732   2.898   8.248   4.732
10497WAT     H131733   2.979   8.204   4.773
10497WAT     H231734   2.822   8.244   4.797
10498WAT      O31735   4.287   3.408   4.429
10498WAT     H131736   4.309   3.376   4.521
10498WAT     H231737   4.328   3.346   4.362
10499WAT      O31738   2.550   0.502   4.416
10499WAT     H131739   2.456   0.471   4.430
10499WAT     H231740   2.563   0.522   4.319
10500WAT      O31741   0.817   7.633   6.681
10500WAT     H131742   0.740   7.687   6.649
10500WAT     H231743   0.793   7.591   6.769
10501WAT      O31744   7.500   7.175   2.920
10501WAT     H131745   7.551   7.231   2.986
10501WAT     H231746   7.415   7.143   2.961
10502WAT      O31747   7.372   4.914   5.694
10502WAT     H131748   7.456   4.960   5.668
10502WAT     H231749   7.295   4.977   5.683
10503WAT      O31750   9.728   3.924   6.033
10503WAT     H131751   9.720   3.952   5.938
10503WAT     H231752   9.637   3.898   6.068
10504WAT      O31753   8.329   3.207   6.535
10504WAT     H131754   8.363   3.195   6.441
10504WAT     H231755   8.249   3.267   6.533
10505WAT      O31756   4.206   6.899   8.147
10505WAT     H131757   4.106   6.897   8.150
10505WAT     H231758   4.238   6.819   8.096
10506WAT      O31759   5.122   6.347   2.055
10506WAT     H131760   5.176   6.372   2.135
10506WAT     H231761   5.062   6.270   2.078
10507WAT      O31762   2.200   6.046   7.587
10507WAT     H131763   2.144   6.124   7.556
10507WAT     H231764   2.295   6.075   7.595
10508WAT      O31765   9.644   7.315   5.069
10508WAT     H131766   9.637   7.236   5.131
10508WAT     H231767   9.578   7.384   5.097
10509WAT      O31768   7.094   3.511   7.276
10509WAT     H131769   7.111   3.583   7.208
10509WAT     H231770   7.181   3.465   7.296
10510WAT      O31771   3.821   8.492   4.256
10510WAT     H131772   3.823   8.452   4.348
10510WAT     H231773   3.849   8.587   4.260
10511WAT      O31774   6.617   7.742   4.748
10511WAT     H131775   6.614   7.664   4.812
10511WAT     H231776   6.701   7.738   4.695
10512WAT      O31777   0.727   5.731   8.501
10512WAT     H131778   0.774   5.819   8.506
10512WAT     H231779   0.628   5.745   8.505
10513WAT      O31780   9.623   1.002   2.115
10513WAT     H131781   9.708   0.976   2.162
10513WAT     H231782   9.554   1.028   2.183
10514WAT      O31783   6.744   1.789   2.868
10514WAT     H131784   6.645   1.786   2.858
10514WAT     H231785   6.774   1.716   2.930
10515WAT      O31786   0.769   8.894   9.507
10515WAT     H131787   0.759   8.844   9.592
10515WAT     H231788   0.838   8.966   9.518
10516WAT      O31789   4.828   0.582   9.650
10516WAT     H131790   4.827   0.682   9.649
10516WAT     H231791   4.760   0.548   9.584
10517WAT      O31792   2.326   3.511   9.234
10517WAT     H131793   2.288   3.598   9.200
10517WAT     H231794   2.365   3.460   9.158
10518WAT      O31795   2.712   1.684   0.444
10518WAT     H131796   2.622   1.684   0.489
10518WAT     H231797   2.747   1.590   0.441
10519WAT      O31798   5.591   1.298   9.139
10519WAT     H131799   5.660   1.309   9.068
10519WAT     H231800   5.588   1.202   9.169
10520WAT      O31801   4.329   6.552   8.508
10520WAT     H131802   4.428   6.538   8.502
10520WAT     H231803   4.282   6.492   8.443
10521WAT      O31804   6.812   7.874   0.956
10521WAT     H131805   6.869   7.794   0.977
10521WAT     H231806   6.721   7.843   0.927
10522WAT      O31807   9.075   9.832   4.313
10522WAT     H131808   9.009   9.856   4.385
10522WAT     H231809   9.026   9.791   4.236
10523WAT      O31810   8.861   6.133   5.147
10523WAT     H131811   8.914   6.049   5.150
10523WAT     H231812   8.840   6.162   5.240
10524WAT      O31813   3.725   1.245   1.789
10524WAT     H131814   3.702   1.197   1.873
10524WAT     H231815   3.642   1.265   1.737
10525WAT      O31816   7.468   4.640   0.507
10525WAT     H131817   7.397   4.628   0.438
10525WAT     H231818   7.543   4.694   0.468
10526WAT      O31819   5.102   1.870   2.269
10526WAT     H131820   5.102   1.970   2.276
10526WAT     H231821   5.145   1.830   2.350
10527WAT      O31822   8.498   9.828   6.953
10527WAT     H131823   8.404   9.863   6.959
10527WAT     H231824   8.563   9.903   6.966
10528WAT      O31825   0.314   5.343   4.741
10528WAT     H131826   0.402   5.361   4.698
10528WAT     H231827   0.245   5.328   4.671
10529WAT      O31828   5.962   6.224   3.947
10529WAT     H131829   5.868   6.230   3.982
10529WAT     H231830   5.984   6.128   3.926
10530WAT      O31831   1.283   7.146   6.037
10530WAT     H131832   1.326   7.136   5.947
10530WAT     H231833   1.341   7.104   6.107
10531WAT      O31834   4.448   5.309   1.463
10531WAT     H131835   4.498   5.361   1.531
10531WAT     H231836   4.498   5.225   1.441
10532WAT      O31837   2.402   5.882   7.149
10532WAT     H131838   2.493   5.918   7.132
10532WAT     H231839   2.409   5.800   7.206
10533WAT      O31840   7.344   5.034   9.496
10533WAT     H131841   7.305   5.053   9.586
10533WAT     H231842   7.326   5.112   9.435
10534WAT      O31843   1.655   6.868   8.049
10534WAT     H131844   1.738   6.888   8.101
10534WAT     H231845   1.588   6.940   8.064
10535WAT      O31846   1.310   7.724   7.940
10535WAT     H131847   1.265   7.782   8.008
10535WAT     H231848   1.408   7.741   7.941
10536WAT      O31849   1.876   3.354   9.452
10536WAT     H131850   1.935   3.400   9.385
10536WAT     H231851   1.790   3.328   9.409
10537WAT      O31852   3.289   8.884   1.695
10537WAT     H131853   3.309   8.982   1.684
10537WAT     H231854   3.196   8.866   1.662
10538WAT      O31855   2.260   1.311   0.671
10538WAT     H131856   2.297   1.382   0.730
10538WAT     H231857   2.178   1.272   0.712
10539WAT      O31858   2.553   9.421   3.447
10539WAT     H131859   2.591   9.361   3.517
10539WAT     H231860   2.571   9.516   3.471
10540WAT      O31861   4.043   5.739   9.121
10540WAT     H131862   4.013   5.664   9.063
10540WAT     H231863   4.142   5.735   9.133
10541WAT      O31864   6.551   9.516   1.947
10541WAT     H131865   6.578   9.598   1.997
10541WAT     H231866   6.522   9.445   2.012
10542WAT      O31867   0.892   7.505   5.751
10542WAT     H131868   0.888   7.495   5.652
10542WAT     H231869   0.800   7.523   5.786
10543WAT      O31870   6.214   5.668   2.441
10543WAT     H131871   6.209   5.570   2.456
10543WAT     H231872   6.302   5.691   2.398
10544WAT      O31873   8.979   5.691   8.853
10544WAT     H131874   9.020   5.652   8.771
10544WAT     H231875   9.051   5.730   8.911
10545WAT      O31876   5.702   7.253   1.405
10545WAT     H131877   5.800   7.268   1.397
10545WAT     H231878   5.653   7.338   1.386
10546WAT      O31879   0.099   5.925   8.044
10546WAT     H131880   0.024   5.956   8.103
10546WAT     H231881   0.151   6.004   8.013
10547WAT      O31882   9.652   4.639   2.848
10547WAT     H131883   9.735   4.695   2.842
10547WAT     H231884   9.642   4.586   2.763
10548WAT      O31885   7.557   3.634   9.171
10548WAT     H131886   7.609   3.608   9.090
10548WAT     H231887   7.521   3.551   9.215
10549WAT      O31888   1.270   7.679   5.029
10549WAT     H131889   1.234   7.772   5.023
10549WAT     H231890   1.263   7.646   5.123
10550WAT      O31891   5.285   0.527   1.775
10550WAT     H131892   5.269   0.443   1.825
10550WAT     H231893   5.235   0.602   1.818
10551WAT      O31894   5.851   9.833   8.368
10551WAT     H131895   5.753   9.816   8.359
10551WAT     H231896   5.896   9.752   8.405
10552WAT      O31897   2.504   3.694   4.697
10552WAT     H131898   2.439   3.746   4.642
10552WAT     H231899   2.455   3.648   4.772
10553WAT      O31900   0.277   0.326   6.876
10553WAT     H131901   0.372   0.305   6.854
10553WAT     H231902   0.220   0.309   6.795
10554WAT      O31903   7.020   8.950   4.266
10554WAT     H131904   6.989   8.993   4.351
10554WAT     H231905   6.975   8.994   4.188
10555WAT      O31906   2.734   4.924   0.944
10555WAT     H131907   2.660   4.858   0.961
10555WAT     H231908   2.814   4.899   0.999
10556WAT      O31909   9.153   6.960   3.229
10556WAT     H131910   9.122   7.049   3.264
10556WAT     H231911   9.252   6.952   3.242
10557WAT      O31912   3.755   8.482   7.326
10557WAT     H131913   3.832   8.497   7.389
10557WAT     H231914   3.769   8.535   7.242
10558WAT      O31915   0.053   2.177   9.354
10558WAT     H131916   0.144   2.214   9.335
10558WAT     H231917   0.024   2.118   9.278
10559WAT      O31918   3.379   4.446   2.880
10559WAT     H131919   3.321   4.374   2.842
10559WAT     H231920   3.398   4.514   2.809
10560WAT      O31921   5.472   8.973   1.614
10560WAT     H131922   5.525   9.054   1.638
10560WAT     H231923   5.534   8.902   1.580
10561WAT      O31924   4.179   4.615   2.497
10561WAT     H131925   4.222   4.635   2.409
10561WAT     H231926   4.144   4.522   2.497
10562WAT      O31927   3.114   6.472   2.688
10562WAT     H131928   3.150   6.508   2.601
10562WAT     H231929   3.068   6.546   2.738
10563WAT      O31930   8.857   2.800   6.656
10563WAT     H131931   8.762   2.830   6.660
10563WAT     H231932   8.862   2.701   6.665
10564WAT      O31933   3.898   4.350   1.424
10564WAT     H131934   3.992   4.324   1.444
10564WAT     H231935   3.835   4.287   1.470
10565WAT      O31936   8.306   1.758   2.888
10565WAT     H131937   8.220   1.788   2.846
10565WAT     H231938   8.339   1.675   2.842
10566WAT      O31939   2.083   5.712   4.490
10566WAT     H131940   2.165   5.769   4.495
10566WAT     H231941   2.047   5.697   4.583
10567WAT      O31942   4.576   2.579   1.493
10567WAT     H131943   4.636   2.585   1.572
10567WAT     H231944   4.616   2.519   1.424
10568WAT      O31945   4.186   1.963   0.764
10568WAT     H131946   4.263   1.992   0.707
10568WAT     H231947   4.103   2.010   0.735
10569WAT      O31948   3.023   4.419   8.281
10569WAT     H131949   2.938   4.401   8.331
10569WAT     H231950   3.060   4.334   8.245
10570WAT      O31951   2.119   3.826   3.738
10570WAT     H131952   2.161   3.840   3.648
10570WAT     H231953   2.076   3.911   3.767
10571WAT      O31954   6.434   1.202   6.729
10571WAT     H131955   6.483   1.239   6.649
10571WAT     H231956   6.344   1.245   6.734
10572WAT      O31957   4.378   9.158   2.473
10572WAT     H131958   4.328   9.072   2.480
10572WAT     H231959   4.459   9.155   2.531
10573WAT      O31960   5.714   5.972   4.937
10573WAT     H131961   5.771   6.006   4.861
10573WAT     H231962   5.767   5.974   5.021
10574WAT      O31963   5.901   0.590   3.188
10574WAT     H131964   5.944   0.504   3.214
10574WAT     H231965   5.845   0.623   3.264
10575WAT      O31966   1.263   0.831   1.208
10575WAT     H131967   1.165   0.847   1.223
10575WAT     H231968   1.299   0.773   1.281
10576WAT      O31969   7.578   4.153   3.734
10576WAT     H131970   7.674   4.165   3.710
10576WAT     H231971   7.552   4.219   3.804
10577WAT      O31972   6.753   6.690   1.497
10577WAT     H131973   6.696   6.631   1.554
10577WAT     H231974   6.847   6.690   1.533
10578WAT      O31975   9.806   3.917   1.495
10578WAT     H131976   9.755   3.914   1.409
10578WAT     H231977   9.850   4.007   1.504
10579WAT      O31978   4.089   8.974   5.867
10579WAT     H131979   4.009   8.925   5.831
10579WAT     H231980   4.148   8.910   5.916
10580WAT      O31981   0.412   3.003   3.767
10580WAT     H131982   0.391   3.091   3.808
10580WAT     H231983   0.400   2.931   3.836
10581WAT      O31984   7.389   2.062   7.222
10581WAT     H131985   7.373   2.020   7.133
10581WAT     H231986   7.302   2.072   7.270
10582WAT      O31987   6.196   0.409   5.008
10582WAT     H131988   6.209   0.421   4.910
10582WAT     H231989   6.122   0.468   5.040
10583WAT      O31990   6.205   2.441   2.313
10583WAT     H131991   6.159   2.417   2.399
10583WAT     H231992   6.205   2.541   2.303
10584WAT      O31993   2.012   2.136   8.775
10584WAT     H131994   1.928   2.119   8.723
10584WAT     H231995   2.090   2.096   8.728
10585WAT      O31996   8.165   3.732   4.545
10585WAT     H131997   8.145   3.682   4.461
10585WAT     H231998   8.159   3.670   4.623
10586WAT      O31999   5.923   3.233   6.801
10586WAT     H132000   5.940   3.298   6.875
10586WAT     H232001   5.827   3.204   6.803
10587WAT      O32002   5.160   0.947   9.891
10587WAT     H132003   5.168   1.002   9.808
10587WAT     H232004   5.178   1.004   9.971
10588WAT      O32005   6.356   4.766   1.488
10588WAT     H132006   6.375   4.708   1.567
10588WAT     H232007   6.401   4.855   1.500
10589WAT      O32008   7.596   2.496   8.979
10589WAT     H132009   7.572   2.593   8.978
10589WAT     H232010   7.562   2.454   9.063
10590WAT      O32011   6.454   5.452   8.819
10590WAT     H132012   6.456   5.377   8.885
10590WAT     H232013   6.542   5.499   8.819
10591WAT      O32014   5.722   2.078   1.665
10591WAT     H132015   5.657   2.101   1.593
10591WAT     H232016   5.682   2.010   1.726
10592WAT      O32017   1.660   6.210   0.042
10592WAT     H132018   1.580   6.180   0.094
10592WAT     H232019   1.647   6.304   0.012
10593WAT      O32020   7.025   5.745   4.322
10593WAT     H132021   7.077   5.664   4.295
10593WAT     H232022   6.933   5.718   4.349
10594WAT      O32023   1.494   3.654   6.872
10594WAT     H132024   1.570   3.590   6.867
10594WAT     H232025   1.509   3.729   6.807
10595WAT      O32026   8.376   8.990   1.495
10595WAT     H132027   8.337   9.032   1.414
10595WAT     H232028   8.371   8.890   1.486
10596WAT      O32029   6.503   5.767   5.506
10596WAT     H132030   6.429   5.794   5.444
10596WAT     H232031   6.500   5.668   5.520
10597WAT      O32032   6.246   4.354   0.890
10597WAT     H132033   6.208   4.385   0.977
10597WAT     H232034   6.255   4.431   0.828
10598WAT      O32035   2.293   3.900   9.852
10598WAT     H132036   2.366   3.968   9.856
10598WAT     H232037   2.227   3.918   9.924
10599WAT      O32038   8.479   2.039   1.739
10599WAT     H132039   8.399   2.086   1.701
10599WAT     H232040   8.450   1.956   1.785
10600WAT      O32041   4.527   9.530   6.543
10600WAT     H132042   4.451   9.495   6.489
10600WAT     H232043   4.519   9.629   6.551
10601WAT      O32044   2.364   0.774   1.298
10601WAT     H132045   2.367   0.719   1.382
10601WAT     H232046   2.398   0.866   1.317
10602WAT      O32047   8.399   6.962   4.119
10602WAT     H132048   8.454   7.015   4.183
10602WAT     H232049   8.303   6.989   4.127
10603WAT      O32050   4.026   1.441   8.352
10603WAT     H132051   3.941   1.419   8.400
10603WAT     H232052   4.027   1.395   8.263
10604WAT      O32053   6.559   0.701   8.968
10604WAT     H132054   6.459   0.707   8.976
10604WAT     H232055   6.602   0.735   9.052
10605WAT      O32056   8.877   0.027   8.726
10605WAT     H132057   8.888  -0.040   8.652
10605WAT     H232058   8.937   0.105   8.710
10606WAT      O32059   3.658   1.881   6.007
10606WAT     H132060   3.585   1.938   6.044
10606WAT     H232061   3.719   1.853   6.081
10607WAT      O32062   6.270   1.974   5.438
10607WAT     H132063   6.256   2.073   5.442
10607WAT     H232064   6.191   1.931   5.394
10608WAT      O32065   2.245   5.500   1.161
10608WAT     H132066   2.198   5.493   1.250
10608WAT     H232067   2.235   5.593   1.126
10609WAT      O32068   1.518   2.981   5.328
10609WAT     H132069   1.462   3.063   5.322
10609WAT     H232070   1.601   3.001   5.380
10610WAT      O32071   1.403   6.423   1.361
10610WAT     H132072   1.456   6.501   1.395
10610WAT     H232073   1.312   6.455   1.332
10611WAT      O32074   4.977   3.921   8.501
10611WAT     H132075   4.884   3.914   8.463
10611WAT     H232076   4.981   3.872   8.588
10612WAT      O32077   7.374   8.522   1.675
10612WAT     H132078   7.354   8.516   1.577
10612WAT     H232079   7.466   8.557   1.688
10613WAT      O32080   3.504   3.652   5.511
10613WAT     H132081   3.430   3.675   5.574
10613WAT     H232082   3.473   3.663   5.417
10614WAT      O32083   0.577   2.240   0.441
10614WAT     H132084   0.626   2.167   0.394
10614WAT     H232085   0.479   2.232   0.420
10615WAT      O32086   9.615   3.689   4.996
10615WAT     H132087   9.633   3.624   5.070
10615WAT     H232088   9.523   3.726   5.005
10616WAT      O32089   6.913   5.050   1.121
10616WAT     H132090   6.884   5.033   1.215
10616WAT     H232091   6.868   5.132   1.086
10617WAT      O32092   1.393   6.988   2.251
10617WAT     H132093   1.375   7.022   2.159
10617WAT     H232094   1.342   7.042   2.317
10618WAT      O32095   2.116   7.743   6.938
10618WAT     H132096   2.197   7.795   6.913
10618WAT     H232097   2.038   7.774   6.883
10619WAT      O32098   3.798   2.896   9.578
10619WAT     H132099   3.739   2.952   9.635
10619WAT     H232100   3.748   2.865   9.497
10620WAT      O32101   6.791   2.294   5.687
10620WAT     H132102   6.732   2.372   5.709
10620WAT     H232103   6.844   2.313   5.605
10621WAT      O32104   7.074   1.979   5.587
10621WAT     H132105   6.989   2.012   5.628
10621WAT     H232106   7.151   2.036   5.616
10622WAT      O32107   7.964   1.837   3.972
10622WAT     H132108   7.939   1.931   3.992
10622WAT     H232109   7.883   1.778   3.981
10623WAT      O32110   2.667   2.423   1.890
10623WAT     H132111   2.589   2.362   1.898
10623WAT     H232112   2.646   2.511   1.933
10624WAT      O32113   9.411   0.921   6.374
10624WAT     H132114   9.503   0.958   6.390
10624WAT     H232115   9.399   0.902   6.277
10625WAT      O32116   4.633   7.194   3.551
10625WAT     H132117   4.568   7.226   3.483
10625WAT     H232118   4.643   7.095   3.544
10626WAT      O32119   6.373   0.429   0.085
10626WAT     H132120   6.296   0.463   0.138
10626WAT     H232121   6.354   0.336   0.053
10627WAT      O32122   7.092   7.142   4.580
10627WAT     H132123   7.045   7.103   4.501
10627WAT     H232124   7.056   7.102   4.664
10628WAT      O32125   2.660   1.159   9.851
10628WAT     H132126   2.595   1.154   9.927
10628WAT     H232127   2.656   1.250   9.809
10629WAT      O32128   6.302   0.386   0.889
10629WAT     H132129   6.300   0.459   0.957
10629WAT     H232130   6.355   0.416   0.810
10630WAT      O32131   0.166   6.679   4.941
10630WAT     H132132   0.076   6.721   4.953
10630WAT     H232133   0.155   6.581   4.925
10631WAT      O32134   7.905   1.190   8.456
10631WAT     H132135   7.966   1.166   8.381
10631WAT     H232136   7.838   1.118   8.469
10632WAT      O32137   5.917   1.788   7.040
10632WAT     H132138   5.866   1.834   7.113
10632WAT     H232139   5.871   1.702   7.017
10633WAT      O32140   7.701   1.778   6.177
10633WAT     H132141   7.715   1.691   6.130
10633WAT     H232142   7.714   1.854   6.113
10634WAT      O32143   1.062   4.775   8.022
10634WAT     H132144   1.026   4.867   8.007
10634WAT     H232145   1.051   4.721   7.939
10635WAT      O32146   7.425   7.004   4.341
10635WAT     H132147   7.451   7.001   4.437
10635WAT     H232148   7.491   7.059   4.290
10636WAT      O32149   8.274   5.290   9.318
10636WAT     H132150   8.242   5.223   9.251
10636WAT     H232151   8.295   5.376   9.271
10637WAT      O32152   6.491   3.624   6.141
10637WAT     H132153   6.496   3.602   6.238
10637WAT     H232154   6.573   3.675   6.114
10638WAT      O32155   5.346   8.205   1.479
10638WAT     H132156   5.347   8.202   1.579
10638WAT     H232157   5.253   8.226   1.448
10639WAT      O32158   9.214   8.161   0.730
10639WAT     H132159   9.297   8.109   0.750
10639WAT     H232160   9.214   8.185   0.632
10640WAT      O32161   2.604   4.618   2.831
10640WAT     H132162   2.564   4.705   2.861
10640WAT     H232163   2.655   4.632   2.746
10641WAT      O32164   7.321   1.937   7.832
10641WAT     H132165   7.255   1.954   7.758
10641WAT     H232166   7.275   1.891   7.908
10642WAT      O32167   9.601   6.385   2.945
10642WAT     H132168   9.506   6.354   2.933
10642WAT     H232169   9.663   6.322   2.898
10643WAT      O32170   1.624   0.973   9.087
10643WAT     H132171   1.570   0.908   9.140
10643WAT     H232172   1.684   0.923   9.023
10644WAT      O32173   2.326   5.286   7.248
10644WAT     H132174   2.412   5.307   7.293
10644WAT     H232175   2.323   5.188   7.227
10645WAT      O32176   8.469   0.587   3.743
10645WAT     H132177   8.525   0.514   3.703
10645WAT     H232178   8.373   0.569   3.725
10646WAT      O32179   2.490   6.037   6.817
10646WAT     H132180   2.521   6.113   6.760
10646WAT     H232181   2.393   6.050   6.840
10647WAT      O32182   4.135   3.372   0.278
10647WAT     H132183   4.110   3.279   0.251
10647WAT     H232184   4.058   3.433   0.260
10648WAT      O32185   5.154   9.348   7.348
10648WAT     H132186   5.107   9.260   7.337
10648WAT     H232187   5.090   9.423   7.331
10649WAT      O32188   5.128   8.099   6.592
10649WAT     H132189   5.099   8.070   6.684
10649WAT     H232190   5.228   8.091   6.585
10650WAT      O32191   6.004   6.182   6.002
10650WAT     H132192   5.995   6.083   5.995
10650WAT     H232193   6.068   6.204   6.075
10651WAT      O32194   1.430   0.787   9.213
10651WAT     H132195   1.471   0.697   9.218
10651WAT     H232196   1.349   0.783   9.154
10652WAT      O32197   0.219   2.656   2.185
10652WAT     H132198   0.211   2.561   2.216
10652WAT     H232199   0.309   2.672   2.146
10653WAT      O32200   3.668   1.672   8.860
10653WAT     H132201   3.573   1.646   8.879
10653WAT     H232202   3.728   1.594   8.878
10654WAT      O32203   1.753   0.220   3.233
10654WAT     H132204   1.672   0.278   3.227
10654WAT     H232205   1.784   0.196   3.141
10655WAT      O32206   5.344   8.345   7.953
10655WAT     H132207   5.296   8.259   7.965
10655WAT     H232208   5.317   8.387   7.866
10656WAT      O32209   5.367   7.162   0.162
10656WAT     H132210   5.349   7.209   0.075
10656WAT     H232211   5.445   7.100   0.150
10657WAT      O32212   1.576   0.394   4.261
10657WAT     H132213   1.552   0.390   4.164
10657WAT     H232214   1.636   0.317   4.284
10658WAT      O32215   3.215   6.144   5.808
10658WAT     H132216   3.131   6.099   5.778
10658WAT     H232217   3.286   6.076   5.821
10659WAT      O32218   1.213   2.850   1.641
10659WAT     H132219   1.183   2.889   1.728
10659WAT     H232220   1.133   2.827   1.586
10660WAT      O32221   2.421   8.143   3.040
10660WAT     H132222   2.388   8.152   3.134
10660WAT     H232223   2.465   8.054   3.028
10661WAT      O32224   5.376   8.410   8.205
10661WAT     H132225   5.350   8.326   8.253
10661WAT     H232226   5.362   8.398   8.107
10662WAT      O32227   3.619   6.753   4.563
10662WAT     H132228   3.614   6.654   4.554
10662WAT     H232229   3.564   6.782   4.641
10663WAT      O32230   6.814   7.544   6.702
10663WAT     H132231   6.751   7.614   6.738
10663WAT     H232232   6.763   7.476   6.650
10664WAT      O32233   1.031   5.237   5.906
10664WAT     H132234   1.006   5.333   5.918
10664WAT     H232235   1.126   5.231   5.876
10665WAT      O32236   3.655   1.801   7.334
10665WAT     H132237   3.567   1.813   7.379
10665WAT     H232238   3.726   1.785   7.403
10666WAT      O32239   8.232   3.877   0.386
10666WAT     H132240   8.227   3.975   0.366
10666WAT     H232241   8.304   3.860   0.453
10667WAT      O32242   4.150   9.770   3.406
10667WAT     H132243   4.121   9.693   3.348
10667WAT     H232244   4.183   9.735   3.493
10668WAT      O32245   1.276   9.433   5.625
10668WAT     H132246   1.267   9.529   5.648
10668WAT     H232247   1.189   9.386   5.641
10669WAT      O32248   7.479   8.893   7.053
10669WAT     H132249   7.531   8.818   7.094
10669WAT     H232250   7.389   8.900   7.097
10670WAT      O32251   3.107   7.445   6.315
10670WAT     H132252   3.065   7.354   6.311
10670WAT     H232253   3.182   7.445   6.381
10671WAT      O32254   4.950   5.296   1.584
10671WAT     H132255   5.026   5.351   1.620
10671WAT     H232256   4.956   5.203   1.621
10672WAT      O32257   3.350   0.147   1.678
10672WAT     H132258   3.279   0.173   1.744
10672WAT     H232259   3.308   0.104   1.598
10673WAT      O32260   7.806   7.410   1.564
10673WAT     H132261   7.892   7.457   1.545
10673WAT     H232262   7.751   7.406   1.481
10674WAT      O32263   5.399   2.467   1.020
10674WAT     H132264   5.498   2.460   1.027
10674WAT     H232265   5.360   2.478   1.111
10675WAT      O32266   5.405   8.040   6.651
10675WAT     H132267   5.444   7.949   6.660
10675WAT     H232268   5.459   8.105   6.705
10676WAT      O32269   7.043   5.351   8.960
10676WAT     H132270   7.012   5.286   9.030
10676WAT     H232271   7.136   5.326   8.930
10677WAT      O32272   5.568   6.180   6.769
10677WAT     H132273   5.606   6.262   6.726
10677WAT     H232274   5.633   6.143   6.835
10678WAT      O32275   0.385   7.049   3.042
10678WAT     H132276   0.364   7.144   3.064
10678WAT     H232277   0.483   7.033   3.054
10679WAT      O32278   3.172   2.247   1.808
10679WAT     H132279   3.202   2.166   1.857
10679WAT     H232280   3.226   2.326   1.839
10680WAT      O32281   4.308   2.630   1.851
10680WAT     H132282   4.269   2.576   1.777
10680WAT     H232283   4.234   2.660   1.912
10681WAT      O32284   2.798   1.203   3.788
10681WAT     H132285   2.711   1.189   3.741
10681WAT     H232286   2.870   1.149   3.743
10682WAT      O32287   2.414   3.967   7.041
10682WAT     H132288   2.319   3.981   7.069
10682WAT     H232289   2.418   3.949   6.943
10683WAT      O32290   7.262   5.525   7.039
10683WAT     H132291   7.281   5.446   6.980
10683WAT     H232292   7.324   5.600   7.017
10684WAT      O32293   8.152   0.532   8.711
10684WAT     H132294   8.145   0.449   8.765
10684WAT     H232295   8.210   0.598   8.759
10685WAT      O32296   0.571   2.984   4.793
10685WAT     H132297   0.593   2.920   4.866
10685WAT     H232298   0.625   2.961   4.712
10686WAT      O32299   2.519   2.657   1.292
10686WAT     H132300   2.577   2.659   1.211
10686WAT     H232301   2.430   2.697   1.271
10687WAT      O32302   9.495   1.193   7.965
10687WAT     H132303   9.541   1.235   8.043
10687WAT     H232304   9.540   1.106   7.943
10688WAT      O32305   9.664   0.250   8.119
10688WAT     H132306   9.567   0.256   8.140
10688WAT     H232307   9.690   0.324   8.057
10689WAT      O32308   4.885   2.356   3.982
10689WAT     H132309   4.793   2.330   3.952
10689WAT     H232310   4.894   2.455   3.980
10690WAT      O32311   9.785   5.158   7.992
10690WAT     H132312   9.773   5.204   8.080
10690WAT     H232313   9.875   5.180   7.955
10691WAT      O32314   0.649   7.905   4.381
10691WAT     H132315   0.562   7.884   4.337
10691WAT     H232316   0.721   7.908   4.312
10692WAT      O32317   8.334   5.256   6.782
10692WAT     H132318   8.246   5.303   6.788
10692WAT     H232319   8.321   5.166   6.740
10693WAT      O32320   0.847   3.581   9.715
10693WAT     H132321   0.775   3.608   9.779
10693WAT     H232322   0.936   3.601   9.755
10694WAT      O32323   8.183   8.538   7.490
10694WAT     H132324   8.096   8.557   7.444
10694WAT     H232325   8.232   8.624   7.505
10695WAT      O32326   5.473   4.758   7.191
10695WAT     H132327   5.489   4.730   7.286
10695WAT     H232328   5.539   4.712   7.131
10696WAT      O32329   9.830   7.118   7.920
10696WAT     H132330   9.902   7.055   7.946
10696WAT     H232331   9.741   7.078   7.942
10697WAT      O32332   0.819   4.030   7.679
10697WAT     H132333   0.841   4.018   7.582
10697WAT     H232334   0.889   3.986   7.734
10698WAT      O32335   2.127   3.305   6.732
10698WAT     H132336   2.050   3.298   6.795
10698WAT     H232337   2.129   3.397   6.691
10699WAT      O32338   3.109   1.626   9.295
10699WAT     H132339   3.036   1.694   9.293
10699WAT     H232340   3.165   1.640   9.377
10700WAT      O32341   0.150   5.495   5.334
10700WAT     H132342   0.163   5.550   5.251
10700WAT     H232343   0.186   5.546   5.413
10701WAT      O32344   1.776   2.347   9.075
10701WAT     H132345   1.749   2.372   8.982
10701WAT     H232346   1.848   2.278   9.071
10702WAT      O32347   0.532   8.997   7.598
10702WAT     H132348   0.503   8.908   7.634
10702WAT     H232349   0.514   9.068   7.666
10703WAT      O32350   8.094   3.438   8.714
10703WAT     H132351   8.054   3.412   8.802
10703WAT     H232352   8.106   3.356   8.658
10704WAT      O32353   5.923   5.335   3.789
10704WAT     H132354   5.921   5.270   3.713
10704WAT     H232355   5.848   5.316   3.852
10705WAT      O32356   2.052   1.990   1.671
10705WAT     H132357   2.103   2.072   1.643
10705WAT     H232358   2.096   1.909   1.632
10706WAT      O32359   8.704   7.789   8.783
10706WAT     H132360   8.720   7.759   8.877
10706WAT     H232361   8.628   7.853   8.781
10707WAT      O32362   9.759   2.975   9.350
10707WAT     H132363   9.759   3.055   9.411
10707WAT     H232364   9.795   2.896   9.400
10708WAT      O32365   2.473   8.971   4.400
10708WAT     H132366   2.446   8.890   4.451
10708WAT     H232367   2.572   8.984   4.407
10709WAT      O32368   4.132   7.865   0.818
10709WAT     H132369   4.063   7.808   0.774
10709WAT     H232370   4.199   7.895   0.751
10710WAT      O32371   8.446   8.967   7.441
10710WAT     H132372   8.546   8.970   7.437
10710WAT     H232373   8.417   8.903   7.512
10711WAT      O32374   0.217   1.702   7.775
10711WAT     H132375   0.152   1.745   7.837
10711WAT     H232376   0.167   1.653   7.703
10712WAT      O32377   4.705   0.345   3.103
10712WAT     H132378   4.673   0.252   3.091
10712WAT     H232379   4.795   0.344   3.147
10713WAT      O32380   1.874   6.852   8.722
10713WAT     H132381   1.962   6.894   8.704
10713WAT     H232382   1.817   6.914   8.775
10714WAT      O32383   8.731   0.587   5.226
10714WAT     H132384   8.785   0.667   5.200
10714WAT     H232385   8.634   0.613   5.231
10715WAT      O32386   5.593   3.065   0.386
10715WAT     H132387   5.651   3.042   0.308
10715WAT     H232388   5.639   3.039   0.471
10716WAT      O32389   7.821   8.072   8.815
10716WAT     H132390   7.842   7.975   8.802
10716WAT     H232391   7.808   8.115   8.726
10717WAT      O32392   6.547   4.451   9.744
10717WAT     H132393   6.483   4.499   9.804
10717WAT     H232394   6.636   4.445   9.788
10718WAT      O32395   0.363   2.396   6.975
10718WAT     H132396   0.362   2.329   6.901
10718WAT     H232397   0.439   2.377   7.037
10719WAT      O32398   9.556   6.642   3.992
10719WAT     H132399   9.639   6.589   3.974
10719WAT     H232400   9.510   6.605   4.072
10720WAT      O32401   6.595   6.465   7.342
10720WAT     H132402   6.635   6.551   7.374
10720WAT     H232403   6.559   6.414   7.420
10721WAT      O32404   7.364   8.500   1.291
10721WAT     H132405   7.291   8.566   1.306
10721WAT     H232406   7.325   8.410   1.273
10722WAT      O32407   8.584   7.014   0.974
10722WAT     H132408   8.676   7.048   0.992
10722WAT     H232409   8.574   6.993   0.876
10723WAT      O32410   2.151   5.627   7.273
10723WAT     H132411   2.130   5.564   7.348
10723WAT     H232412   2.169   5.575   7.189
10724WAT      O32413   7.739   2.239   5.377
10724WAT     H132414   7.649   2.271   5.408
10724WAT     H232415   7.810   2.282   5.433
10725WAT      O32416   7.078   0.369   4.001
10725WAT     H132417   7.139   0.296   3.970
10725WAT     H232418   7.004   0.330   4.055
10726WAT      O32419   9.386   0.928   5.502
10726WAT     H132420   9.412   1.003   5.563
10726WAT     H232421   9.464   0.903   5.445
10727WAT      O32422   4.209   1.142   4.572
10727WAT     H132423   4.286   1.084   4.544
10727WAT     H232424   4.151   1.162   4.493
10728WAT      O32425   0.015   9.267   2.958
10728WAT     H132426   0.072   9.262   3.041
10728WAT     H232427   0.074   9.272   2.878
10729WAT      O32428   2.813   7.234   6.016
10729WAT     H132429   2.781   7.328   6.018
10729WAT     H232430   2.833   7.206   5.922
10730WAT      O32431   3.428   7.543   2.299
10730WAT     H132432   3.349   7.599   2.322
10730WAT     H232433   3.440   7.541   2.200
10731WAT      O32434   1.784   8.316   3.042
10731WAT     H132435   1.737   8.384   3.099
10731WAT     H232436   1.825   8.246   3.102
10732WAT      O32437   2.022   6.971   7.032
10732WAT     H132438   2.029   7.031   6.952
10732WAT     H232439   1.934   6.924   7.031
10733WAT      O32440   8.725   9.334   9.219
10733WAT     H132441   8.763   9.245   9.244
10733WAT     H232442   8.669   9.369   9.294
10734WAT      O32443   8.596   0.745   9.373
10734WAT     H132444   8.659   0.823   9.377
10734WAT     H232445   8.525   0.762   9.305
10735WAT      O32446   1.690   2.376   6.095
10735WAT     H132447   1.730   2.381   6.187
10735WAT     H232448   1.596   2.410   6.098
10736WAT      O32449   5.680   3.109   1.776
10736WAT     H132450   5.626   3.114   1.860
10736WAT     H232451   5.771   3.148   1.793
10737WAT      O32452   8.410   1.264   6.718
10737WAT     H132453   8.491   1.207   6.732
10737WAT     H232454   8.431   1.358   6.744
10738WAT      O32455   4.115   6.699   0.133
10738WAT     H132456   4.116   6.614   0.081
10738WAT     H232457   4.037   6.755   0.104
10739WAT      O32458   3.438   2.554   3.321
10739WAT     H132459   3.370   2.619   3.354
10739WAT     H232460   3.519   2.557   3.380
10740WAT      O32461   4.446   6.883   5.607
10740WAT     H132462   4.481   6.974   5.630
10740WAT     H232463   4.383   6.890   5.530
10741WAT      O32464   9.779   3.593   5.650
10741WAT     H132465   9.783   3.676   5.594
10741WAT     H232466   9.696   3.543   5.628
10742WAT      O32467   6.288   5.242   6.185
10742WAT     H132468   6.370   5.184   6.185
10742WAT     H232469   6.218   5.201   6.127
10743WAT      O32470   3.156   1.360   1.094
10743WAT     H132471   3.208   1.440   1.124
10743WAT     H232472   3.109   1.320   1.172
10744WAT      O32473   4.141   3.806   3.126
10744WAT     H132474   4.207   3.828   3.055
10744WAT     H232475   4.076   3.738   3.092
10745WAT      O32476   9.699   6.754   9.438
10745WAT     H132477   9.658   6.696   9.509
10745WAT     H232478   9.798   6.758   9.451
10746WAT      O32479   1.077   3.427   6.779
10746WAT     H132480   1.041   3.483   6.853
10746WAT     H232481   1.130   3.484   6.716
10747WAT      O32482   1.817   2.986   6.925
10747WAT     H132483   1.798   2.974   7.022
10747WAT     H232484   1.752   2.934   6.871
10748WAT      O32485   9.663   7.769   4.862
10748WAT     H132486   9.630   7.853   4.905
10748WAT     H232487   9.590   7.700   4.865
10749WAT      O32488   8.544   9.471   4.111
10749WAT     H132489   8.499   9.390   4.148
10749WAT     H232490   8.509   9.553   4.156
10750WAT      O32491   4.267   1.701   1.369
10750WAT     H132492   4.308   1.717   1.280
10750WAT     H232493   4.285   1.606   1.398
10751WAT      O32494   9.841   0.130   3.279
10751WAT     H132495   9.756   0.091   3.244
10751WAT     H232496   9.907   0.139   3.204
10752WAT      O32497   7.659   3.817   4.200
10752WAT     H132498   7.639   3.807   4.297
10752WAT     H232499   7.642   3.730   4.153
10753WAT      O32500   2.565   7.358   9.411
10753WAT     H132501   2.514   7.393   9.331
10753WAT     H232502   2.605   7.269   9.388
10754WAT      O32503   2.266   3.968   8.014
10754WAT     H132504   2.363   3.987   8.002
10754WAT     H232505   2.239   3.892   7.955
10755WAT      O32506   4.158   0.422   8.613
10755WAT     H132507   4.203   0.339   8.647
10755WAT     H232508   4.085   0.449   8.676
10756WAT      O32509   3.183   3.689   2.273
10756WAT     H132510   3.216   3.596   2.292
10756WAT     H232511   3.224   3.753   2.338
10757WAT      O32512   9.842   3.835   4.503
10757WAT     H132513   9.878   3.775   4.574
10757WAT     H232514   9.863   3.930   4.525
10758WAT      O32515   2.864   4.820   2.041
10758WAT     H132516   2.922   4.742   2.022
10758WAT     H232517   2.906   4.877   2.111
10759WAT      O32518   7.940   7.129   7.187
10759WAT     H132519   7.855   7.156   7.142
10759WAT     H232520   7.936   7.032   7.212
10760WAT      O32521   7.438   1.262   3.894
10760WAT     H132522   7.454   1.330   3.823
10760WAT     H232523   7.353   1.212   3.875
10761WAT      O32524   1.896   7.271   0.672
10761WAT     H132525   1.839   7.191   0.689
10761WAT     H232526   1.925   7.272   0.576
10762WAT      O32527   6.328   3.266   5.593
10762WAT     H132528   6.281   3.177   5.590
10762WAT     H232529   6.260   3.338   5.610
10763WAT      O32530   9.647   8.426   0.384
10763WAT     H132531   9.569   8.438   0.445
10763WAT     H232532   9.616   8.397   0.294
10764WAT      O32533   6.201   0.092   8.779
10764WAT     H132534   6.269   0.057   8.843
10764WAT     H232535   6.117   0.038   8.787
10765WAT      O32536   5.576   9.229   1.666
10765WAT     H132537   5.495   9.281   1.637
10765WAT     H232538   5.620   9.276   1.742
10766WAT      O32539   4.991   2.266   2.328
10766WAT     H132540   5.084   2.238   2.349
10766WAT     H232541   4.935   2.186   2.306
10767WAT      O32542   0.520   7.302   9.135
10767WAT     H132543   0.422   7.301   9.113
10767WAT     H232544   0.571   7.338   9.057
10768WAT      O32545   0.919   4.627   9.685
10768WAT     H132546   0.839   4.573   9.712
10768WAT     H232547   0.967   4.581   9.610
10769WAT      O32548   6.879   8.775   9.279
10769WAT     H132549   6.922   8.780   9.369
10769WAT     H232550   6.866   8.867   9.243
10770WAT      O32551   8.612   5.702   4.704
10770WAT     H132552   8.586   5.622   4.649
10770WAT     H232553   8.529   5.744   4.741
10771WAT      O32554   4.553   7.682   4.933
10771WAT     H132555   4.640   7.662   4.889
10771WAT     H232556   4.492   7.728   4.868
10772WAT      O32557   9.243   8.106   1.452
10772WAT     H132558   9.214   8.093   1.547
10772WAT     H232559   9.339   8.134   1.450
10773WAT      O32560   9.341   8.190   7.178
10773WAT     H132561   9.324   8.176   7.080
10773WAT     H232562   9.424   8.141   7.205
10774WAT      O32563   6.021   5.653   9.842
10774WAT     H132564   6.030   5.727   9.909
10774WAT     H232565   5.997   5.690   9.753
10775WAT      O32566   8.037   7.526   7.152
10775WAT     H132567   8.077   7.485   7.235
10775WAT     H232568   8.008   7.453   7.090
10776WAT      O32569   1.920   0.193   6.903
10776WAT     H132570   1.866   0.276   6.912
10776WAT     H232571   1.933   0.152   6.994
10777WAT      O32572   9.237   9.593   9.618
10777WAT     H132573   9.277   9.525   9.556
10777WAT     H232574   9.174   9.548   9.681
10778WAT      O32575   9.254   3.289   2.136
10778WAT     H132576   9.253   3.197   2.095
10778WAT     H232577   9.258   3.357   2.063
10779WAT      O32578   6.700   9.790   3.604
10779WAT     H132579   6.778   9.729   3.592
10779WAT     H232580   6.683   9.803   3.702
10780WAT      O32581   3.196   9.242   5.018
10780WAT     H132582   3.151   9.191   5.091
10780WAT     H232583   3.173   9.202   4.930
10781WAT      O32584   0.654   1.092   4.807
10781WAT     H132585   0.715   1.017   4.831
10781WAT     H232586   0.698   1.179   4.830
10782WAT      O32587   3.911   0.849   1.883
10782WAT     H132588   3.830   0.844   1.824
10782WAT     H232589   3.989   0.881   1.830
10783WAT      O32590   9.378   8.411   4.878
10783WAT     H132591   9.388   8.370   4.968
10783WAT     H232592   9.385   8.340   4.808
10784WAT      O32593   9.082   4.078   8.250
10784WAT     H132594   9.072   4.016   8.328
10784WAT     H232595   8.992   4.112   8.222
10785WAT      O32596   7.386   4.202   9.013
10785WAT     H132597   7.365   4.205   9.111
10785WAT     H232598   7.314   4.249   8.962
10786WAT      O32599   4.599   4.250   4.996
10786WAT     H132600   4.624   4.153   4.996
10786WAT     H232601   4.591   4.282   5.090
10787WAT      O32602   0.688   3.361   1.869
10787WAT     H132603   0.611   3.327   1.923
10787WAT     H232604   0.680   3.329   1.775
10788WAT      O32605   1.192   6.606   1.347
10788WAT     H132606   1.162   6.593   1.442
10788WAT     H232607   1.205   6.703   1.329
10789WAT      O32608   3.887   4.141   4.801
10789WAT     H132609   3.858   4.076   4.872
10789WAT     H232610   3.808   4.188   4.764
10790WAT      O32611   6.364   8.662   7.030
10790WAT     H132612   6.412   8.712   7.102
10790WAT     H232613   6.398   8.568   7.027
10791WAT      O32614   9.401   5.401   6.300
10791WAT     H132615   9.368   5.452   6.220
10791WAT     H232616   9.363   5.309   6.299
10792WAT      O32617   7.707   3.805   7.886
10792WAT     H132618   7.661   3.887   7.920
10792WAT     H232619   7.791   3.789   7.939
10793WAT      O32620   0.540   6.802   8.389
10793WAT     H132621   0.634   6.830   8.406
10793WAT     H232622   0.537   6.736   8.314
10794WAT      O32623   6.890   2.060   5.767
10794WAT     H132624   6.849   2.142   5.729
10794WAT     H232625   6.915   2.077   5.863
10795WAT      O32626   4.406   9.792   8.843
10795WAT     H132627   4.495   9.834   8.828
10795WAT     H232628   4.405   9.746   8.931
10796WAT      O32629   7.316   9.041   8.481
10796WAT     H132630   7.390   9.106   8.469
10796WAT     H232631   7.353   8.949   8.495
10797WAT      O32632   0.594   3.557   4.996
10797WAT     H132633   0.534   3.637   4.991
10797WAT     H232634   0.560   3.494   5.066
10798WAT      O32635   8.793   7.596   0.070
10798WAT     H132636   8.775   7.505   0.107
10798WAT     H232637   8.884   7.598   0.028
10799WAT      O32638   0.346   8.118   7.134
10799WAT     H132639   0.307   8.176   7.205
10799WAT     H232640   0.439   8.149   7.113
10800WAT      O32641   8.883   9.424   9.537
10800WAT     H132642   8.927   9.418   9.626
10800WAT     H232643   8.818   9.349   9.526
10801WAT      O32644   4.403   1.666   9.756
10801WAT     H132645   4.317   1.652   9.707
10801WAT     H232646   4.467   1.716   9.698
10802WAT      O32647   1.459   2.065   7.447
10802WAT     H132648   1.376   2.022   7.412
10802WAT     H232649   1.455   2.068   7.547
10803WAT      O32650   7.001   2.486   3.201
10803WAT     H132651   7.040   2.431   3.275
10803WAT     H232652   7.036   2.579   3.206
10804WAT      O32653   6.672   1.408   3.913
10804WAT     H132654   6.603   1.431   3.844
10804WAT     H232655   6.626   1.374   3.995
10805WAT      O32656   3.626   4.523   6.035
10805WAT     H132657   3.540   4.505   5.988
10805WAT     H232658   3.608   4.571   6.121
10806WAT      O32659   8.931   4.084   3.162
10806WAT     H132660   8.850   4.113   3.110
10806WAT     H232661   8.908   4.081   3.260
10807WAT      O32662   3.029   6.731   7.332
10807WAT     H132663   2.956   6.759   7.395
10807WAT     H232664   3.096   6.805   7.325
10808WAT      O32665   4.557   9.651   1.964
10808WAT     H132666   4.538   9.559   1.929
10808WAT     H232667   4.645   9.650   2.012
10809WAT      O32668   8.237   5.365   6.384
10809WAT     H132669   8.192   5.346   6.297
10809WAT     H232670   8.177   5.420   6.441
10810WAT      O32671   0.471   4.084   3.653
10810WAT     H132672   0.418   4.153   3.703
10810WAT     H232673   0.435   3.993   3.673
10811WAT      O32674   3.843   3.996   5.274
10811WAT     H132675   3.889   3.970   5.189
10811WAT     H232676   3.805   3.915   5.319
10812WAT      O32677   7.933   1.049   7.797
10812WAT     H132678   8.011   1.082   7.851
10812WAT     H232679   7.848   1.075   7.842
10813WAT      O32680   9.556   2.690   0.125
10813WAT     H132681   9.618   2.611   0.136
10813WAT     H232682   9.513   2.686   0.035
10814WAT      O32683   6.967   2.937   4.884
10814WAT     H132684   6.872   2.945   4.914
10814WAT     H232685   7.012   3.027   4.890
10815WAT      O32686   6.808   2.369   8.159
10815WAT     H132687   6.890   2.314   8.144
10815WAT     H232688   6.801   2.439   8.088
10816WAT      O32689   2.012   4.881   7.547
10816WAT     H132690   1.979   4.823   7.622
10816WAT     H232691   1.935   4.906   7.488
10817WAT      O32692   2.046   9.758   8.760
10817WAT     H132693   2.127   9.709   8.791
10817WAT     H232694   2.034   9.744   8.661
10818WAT      O32695   6.024   7.109   3.165
10818WAT     H132696   6.055   7.098   3.260
10818WAT     H232697   5.979   7.198   3.155
10819WAT      O32698   8.342   3.585   7.248
10819WAT     H132699   8.360   3.488   7.228
10819WAT     H232700   8.402   3.642   7.192
10820WAT      O32701   8.966   0.220   8.981
10820WAT     H132702   8.884   0.206   8.924
10820WAT     H232703   9.047   0.218   8.922
10821WAT      O32704   4.067   4.125   9.124
10821WAT     H132705   3.979   4.117   9.172
10821WAT     H232706   4.083   4.220   9.099
10822WAT      O32707   5.606   3.485   1.539
10822WAT     H132708   5.645   3.511   1.451
10822WAT     H232709   5.513   3.522   1.546
10823WAT      O32710   4.692   6.822   6.567
10823WAT     H132711   4.616   6.887   6.572
10823WAT     H232712   4.763   6.858   6.507
10824WAT      O32713   5.654   2.701   6.244
10824WAT     H132714   5.636   2.682   6.341
10824WAT     H232715   5.644   2.617   6.191
10825WAT      O32716   7.292   0.497   4.150
10825WAT     H132717   7.229   0.446   4.091
10825WAT     H232718   7.239   0.554   4.213
10826WAT      O32719   0.721   0.349   4.242
10826WAT     H132720   0.696   0.301   4.326
10826WAT     H232721   0.821   0.360   4.239
10827WAT      O32722   3.970   5.082   0.610
10827WAT     H132723   3.896   5.103   0.546
10827WAT     H232724   4.052   5.057   0.559
10828WAT      O32725   7.990   7.498   6.552
10828WAT     H132726   7.922   7.543   6.495
10828WAT     H232727   7.954   7.410   6.584
10829WAT      O32728   5.398   6.612   9.066
10829WAT     H132729   5.314   6.572   9.103
10829WAT     H232730   5.383   6.636   8.970
10830WAT      O32731   5.305   4.115   3.570
10830WAT     H132732   5.355   4.029   3.573
10830WAT     H232733   5.303   4.156   3.661
10831WAT      O32734   1.148   9.760   7.130
10831WAT     H132735   1.148   9.788   7.226
10831WAT     H232736   1.127   9.663   7.123
10832WAT      O32737   8.936   2.091   7.767
10832WAT     H132738   9.028   2.090   7.807
10832WAT     H232739   8.913   2.185   7.739
10833WAT      O32740   0.424   5.713   4.727
10833WAT     H132741   0.428   5.616   4.705
10833WAT     H232742   0.513   5.743   4.762
10834WAT      O32743   6.766   2.987   9.421
10834WAT     H132744   6.734   3.080   9.439
10834WAT     H232745   6.723   2.952   9.338
10835WAT      O32746   5.446   1.515   2.038
10835WAT     H132747   5.454   1.602   2.088
10835WAT     H232748   5.379   1.526   1.965
10836WAT      O32749   0.952   6.787   6.639
10836WAT     H132750   0.972   6.864   6.699
10836WAT     H232751   0.907   6.714   6.691
10837WAT      O32752   4.519   4.474   2.757
10837WAT     H132753   4.565   4.464   2.845
10837WAT     H232754   4.559   4.411   2.691
10838WAT      O32755   9.295   0.883   6.606
10838WAT     H132756   9.309   0.882   6.507
10838WAT     H232757   9.305   0.977   6.639
10839WAT      O32758   0.651   1.382   0.639
10839WAT     H132759   0.712   1.306   0.618
10839WAT     H232760   0.584   1.393   0.565
10840WAT      O32761   2.812   7.620   4.887
10840WAT     H132762   2.781   7.660   4.800
10840WAT     H232763   2.873   7.543   4.868
10841WAT      O32764   0.162   6.924   2.977
10841WAT     H132765   0.253   6.952   3.008
10841WAT     H232766   0.093   6.984   3.017
10842WAT      O32767   0.744   4.824   9.796
10842WAT     H132768   0.700   4.764   9.863
10842WAT     H232769   0.818   4.775   9.751
10843WAT      O32770   6.075   5.727   0.749
10843WAT     H132771   6.087   5.740   0.847
10843WAT     H232772   5.979   5.705   0.730
10844WAT      O32773   0.092   9.499   4.878
10844WAT     H132774   0.036   9.471   4.800
10844WAT     H232775   0.161   9.429   4.897
10845WAT      O32776   8.187   8.772   0.526
10845WAT     H132777   8.222   8.678   0.537
10845WAT     H232778   8.157   8.785   0.431
10846WAT      O32779   6.089   7.876   6.240
10846WAT     H132780   6.051   7.816   6.310
10846WAT     H232781   6.120   7.961   6.282
10847WAT      O32782   4.209   9.183   6.564
10847WAT     H132783   4.148   9.122   6.513
10847WAT     H232784   4.292   9.134   6.589
10848WAT      O32785   9.120   5.100   1.890
10848WAT     H132786   9.184   5.177   1.884
10848WAT     H232787   9.142   5.032   1.821
10849WAT      O32788   2.673   6.465   7.136
10849WAT     H132789   2.578   6.471   7.168
10849WAT     H232790   2.708   6.373   7.152
10850WAT      O32791   5.658   3.536   1.271
10850WAT     H132792   5.699   3.576   1.189
10850WAT     H232793   5.563   3.564   1.279
10851WAT      O32794   7.767   9.686   6.853
10851WAT     H132795   7.722   9.672   6.765
10851WAT     H232796   7.709   9.650   6.926
10852WAT      O32797   9.122   6.282   7.385
10852WAT     H132798   9.081   6.217   7.321
10852WAT     H232799   9.222   6.277   7.379
10853WAT      O32800   6.345   8.011   6.128
10853WAT     H132801   6.329   8.107   6.151
10853WAT     H232802   6.270   7.956   6.164
10854WAT      O32803   6.040   6.836   3.203
10854WAT     H132804   6.028   6.934   3.184
10854WAT     H232805   5.950   6.792   3.202
10855WAT      O32806   5.053   4.353   6.794
10855WAT     H132807   5.063   4.393   6.703
10855WAT     H232808   5.109   4.271   6.801
10856WAT      O32809   1.692   3.526   6.598
10856WAT     H132810   1.734   3.616   6.609
10856WAT     H232811   1.671   3.488   6.687
10857WAT      O32812   6.304   4.707   0.229
10857WAT     H132813   6.205   4.725   0.229
10857WAT     H232814   6.334   4.690   0.322
10858WAT      O32815   3.126   4.020   2.662
10858WAT     H132816   3.154   3.985   2.752
10858WAT     H232817   3.027   4.012   2.653
10859WAT      O32818   1.043   3.046   9.641
10859WAT     H132819   1.074   2.952   9.626
10859WAT     H232820   1.092   3.108   9.580
10860WAT      O32821   4.986   8.375   8.583
10860WAT     H132822   5.005   8.302   8.518
10860WAT     H232823   4.888   8.380   8.600
10861WAT      O32824   4.558   4.711   7.250
10861WAT     H132825   4.598   4.742   7.163
10861WAT     H232826   4.517   4.621   7.237
10862WAT      O32827   6.530   2.531   2.898
10862WAT     H132828   6.435   2.523   2.927
10862WAT     H232829   6.551   2.460   2.831
10863WAT      O32830   4.801   7.842   3.794
10863WAT     H132831   4.815   7.751   3.832
10863WAT     H232832   4.814   7.911   3.866
10864WAT      O32833   0.729   8.309   7.372
10864WAT     H132834   0.687   8.226   7.408
10864WAT     H232835   0.661   8.382   7.370
10865WAT      O32836   5.586   7.085   9.538
10865WAT     H132837   5.607   7.179   9.566
10865WAT     H232838   5.654   7.054   9.471
10866WAT      O32839   1.339   1.222   8.808
10866WAT     H132840   1.405   1.295   8.823
10866WAT     H232841   1.384   1.133   8.817
10867WAT      O32842   1.749   0.083   1.804
10867WAT     H132843   1.788   0.012   1.864
10867WAT     H232844   1.810   0.162   1.803
10868WAT      O32845   6.599   5.709   0.187
10868WAT     H132846   6.638   5.729   0.097
10868WAT     H232847   6.543   5.787   0.217
10869WAT      O32848   7.539   1.803   7.717
10869WAT     H132849   7.601   1.773   7.790
10869WAT     H232850   7.460   1.848   7.757
10870WAT      O32851   7.170   9.116   1.504
10870WAT     H132852   7.104   9.119   1.429
10870WAT     H232853   7.235   9.041   1.488
10871WAT      O32854   0.941   6.241   8.467
10871WAT     H132855   0.859   6.287   8.432
10871WAT     H232856   1.007   6.228   8.392
10872WAT      O32857   7.020   3.414   2.629
10872WAT     H132858   6.974   3.446   2.712
10872WAT     H232859   6.978   3.456   2.549
10873WAT      O32860   6.073   7.204   2.239
10873WAT     H132861   6.001   7.273   2.241
10873WAT     H232862   6.102   7.190   2.144
10874WAT      O32863   9.351   5.232   7.010
10874WAT     H132864   9.296   5.301   7.057
10874WAT     H232865   9.368   5.262   6.916
10875WAT      O32866   8.859   8.524   8.883
10875WAT     H132867   8.862   8.513   8.982
10875WAT     H232868   8.924   8.460   8.840
10876WAT      O32869   2.224   2.752   1.007
10876WAT     H132870   2.215   2.832   0.949
10876WAT     H232871   2.229   2.780   1.103
10877WAT      O32872   0.386   2.883   6.897
10877WAT     H132873   0.385   2.858   6.994
10877WAT     H232874   0.397   2.801   6.842
10878WAT      O32875   0.358   0.337   0.015
10878WAT     H132876   0.430   0.355   0.081
10878WAT     H232877   0.344   0.238   0.006
10879WAT      O32878   7.075   9.570   3.251
10879WAT     H132879   7.164   9.543   3.287
10879WAT     H232880   7.058   9.666   3.273
10880WAT      O32881   7.366   9.815   1.601
10880WAT     H132882   7.443   9.821   1.537
10880WAT     H232883   7.400   9.782   1.690
10881WAT      O32884   0.915   2.805   0.112
10881WAT     H132885   0.844   2.862   0.154
10881WAT     H232886   1.004   2.827   0.153
10882WAT      O32887   5.939   4.671   5.537
10882WAT     H132888   5.954   4.751   5.596
10882WAT     H232889   5.906   4.700   5.448
10883WAT      O32890   5.956   1.323   1.704
10883WAT     H132891   5.880   1.379   1.737
10883WAT     H232892   6.005   1.284   1.782
10884WAT      O32893   0.271   0.200   9.229
10884WAT     H132894   0.301   0.115   9.274
10884WAT     H232895   0.320   0.278   9.268
10885WAT      O32896   8.302   5.997   0.095
10885WAT     H132897   8.325   5.902   0.115
10885WAT     H232898   8.374   6.037   0.038
10886WAT      O32899   2.352   4.692   7.601
10886WAT     H132900   2.318   4.779   7.563
10886WAT     H232901   2.452   4.697   7.609
10887WAT      O32902   6.069   5.344   5.467
10887WAT     H132903   6.069   5.245   5.485
10887WAT     H232904   6.163   5.378   5.466
10888WAT      O32905   2.736   8.396   1.477
10888WAT     H132906   2.738   8.353   1.387
10888WAT     H232907   2.648   8.378   1.521
10889WAT      O32908   8.225   1.539   3.725
10889WAT     H132909   8.133   1.572   3.705
10889WAT     H232910   8.290   1.577   3.659
10890WAT      O32911   6.269   9.531   0.829
10890WAT     H132912   6.183   9.487   0.805
10890WAT     H232913   6.327   9.465   0.878
10891WAT      O32914   6.299   7.468   1.247
10891WAT     H132915   6.202   7.482   1.269
10891WAT     H232916   6.310   7.382   1.197
10892WAT      O32917   7.727   8.542   6.830
10892WAT     H132918   7.699   8.539   6.926
10892WAT     H232919   7.816   8.496   6.820
10893WAT      O32920   9.561   9.194   2.445
10893WAT     H132921   9.506   9.172   2.364
10893WAT     H232922   9.614   9.113   2.471
10894WAT      O32923   1.408   3.629   4.143
10894WAT     H132924   1.459   3.563   4.198
10894WAT     H232925   1.422   3.721   4.180
10895WAT      O32926   6.346   4.203   1.616
10895WAT     H132927   6.441   4.235   1.622
10895WAT     H232928   6.311   4.220   1.524
10896WAT      O32929   3.006   3.979   7.798
10896WAT     H132930   2.911   3.948   7.795
10896WAT     H232931   3.013   4.071   7.760
10897WAT      O32932   5.349   1.686   3.217
10897WAT     H132933   5.411   1.760   3.194
10897WAT     H232934   5.374   1.604   3.164
10898WAT      O32935   8.209   9.107   2.145
10898WAT     H132936   8.202   9.017   2.102
10898WAT     H232937   8.118   9.147   2.156
10899WAT      O32938   6.173   0.169   3.117
10899WAT     H132939   6.246   0.148   3.183
10899WAT     H232940   6.213   0.213   3.037
10900WAT      O32941   0.561   9.179   2.525
10900WAT     H132942   0.621   9.214   2.597
10900WAT     H232943   0.592   9.089   2.497
10901WAT      O32944   0.843   6.957   2.529
10901WAT     H132945   0.751   6.971   2.491
10901WAT     H232946   0.836   6.900   2.611
10902WAT      O32947   1.958   2.822   6.065
10902WAT     H132948   1.942   2.744   6.005
10902WAT     H232949   2.055   2.829   6.087
10903WAT      O32950   2.675   8.235   3.015
10903WAT     H132951   2.592   8.179   3.015
10903WAT     H232952   2.732   8.210   3.092
10904WAT      O32953   8.564   5.775   8.713
10904WAT     H132954   8.516   5.854   8.674
10904WAT     H232955   8.627   5.806   8.784
10905WAT      O32956   2.511   2.741   4.038
10905WAT     H132957   2.597   2.714   4.082
10905WAT     H232958   2.435   2.692   4.079
10906WAT      O32959   5.031   7.958   6.052
10906WAT     H132960   4.945   8.003   6.076
10906WAT     H232961   5.020   7.859   6.064
10907WAT      O32962   8.463   7.658   4.623
10907WAT     H132963   8.497   7.635   4.714
10907WAT     H232964   8.468   7.578   4.564
10908WAT      O32965   8.864   7.112   2.645
10908WAT     H132966   8.883   7.207   2.671
10908WAT     H232967   8.771   7.106   2.606
10909WAT      O32968   8.781   4.420   8.788
10909WAT     H132969   8.698   4.475   8.797
10909WAT     H232970   8.860   4.480   8.783
10910WAT      O32971   1.839   0.543   4.050
10910WAT     H132972   1.888   0.492   4.121
10910WAT     H232973   1.848   0.641   4.067
10911WAT      O32974   3.791   4.327   9.603
10911WAT     H132975   3.854   4.335   9.681
10911WAT     H232976   3.829   4.263   9.536
10912WAT      O32977   9.362   4.813   7.263
10912WAT     H132978   9.408   4.848   7.344
10912WAT     H232979   9.386   4.869   7.184
10913WAT      O32980   0.609   6.667   4.044
10913WAT     H132981   0.664   6.706   3.971
10913WAT     H232982   0.639   6.573   4.063
10914WAT      O32983   6.920   2.283   5.460
10914WAT     H132984   6.910   2.242   5.369
10914WAT     H232985   7.012   2.263   5.495
10915WAT      O32986   0.692   2.977   0.205
10915WAT     H132987   0.685   3.056   0.143
10915WAT     H232988   0.703   3.010   0.299
10916WAT      O32989   9.726   6.352   7.022
10916WAT     H132990   9.632   6.349   6.987
10916WAT     H232991   9.787   6.388   6.951
10917WAT      O32992   7.344   1.024   5.660
10917WAT     H132993   7.335   1.010   5.561
10917WAT     H232994   7.370   1.119   5.678
10918WAT      O32995   7.737   5.253   2.044
10918WAT     H132996   7.720   5.260   2.142
10918WAT     H232997   7.831   5.278   2.024
10919WAT      O32998   6.008   9.401   2.936
10919WAT     H132999   6.006   9.463   2.857
10919WAT     H233000   5.927   9.343   2.935
10920WAT      O33001   2.238   5.435   5.770
10920WAT     H133002   2.185   5.518   5.783
10920WAT     H233003   2.309   5.429   5.840
10921WAT      O33004   3.296   5.908   9.466
10921WAT     H133005   3.199   5.901   9.489
10921WAT     H233006   3.340   5.819   9.481
10922WAT      O33007   1.850   4.996   3.203
10922WAT     H133008   1.930   4.980   3.146
10922WAT     H233009   1.870   4.966   3.297
10923WAT      O33010   4.313   4.886   6.083
10923WAT     H133011   4.388   4.899   6.148
10923WAT     H233012   4.301   4.788   6.065
10924WAT      O33013   7.686   6.795   7.752
10924WAT     H133014   7.636   6.732   7.812
10924WAT     H233015   7.626   6.822   7.676
10925WAT      O33016   3.995   5.625   7.427
10925WAT     H133017   3.934   5.640   7.350
10925WAT     H233018   3.962   5.548   7.482
10926WAT      O33019   5.738   1.252   9.756
10926WAT     H133020   5.648   1.209   9.748
10926WAT     H233021   5.768   1.249   9.851
10927WAT      O33022   0.446   2.042   2.306
10927WAT     H133023   0.503   1.968   2.344
10927WAT     H233024   0.381   2.073   2.376
10928WAT      O33025   9.198   3.001   2.422
10928WAT     H133026   9.145   3.082   2.398
10928WAT     H233027   9.242   3.015   2.511
10929WAT      O33028   0.401   6.110   0.568
10929WAT     H133029   0.475   6.112   0.501
10929WAT     H233030   0.342   6.189   0.554
10930WAT      O33031   4.648   4.148   4.722
10930WAT     H133032   4.637   4.210   4.799
10930WAT     H233033   4.736   4.166   4.677
10931WAT      O33034   7.477   8.783   0.709
10931WAT     H133035   7.492   8.879   0.734
10931WAT     H233036   7.429   8.736   0.783
10932WAT      O33037   5.138   8.773   4.984
10932WAT     H133038   5.042   8.770   4.956
10932WAT     H233039   5.174   8.680   4.988
10933WAT      O33040   9.601   2.399   7.330
10933WAT     H133041   9.699   2.385   7.345
10933WAT     H233042   9.588   2.483   7.277
10934WAT      O33043   4.053   2.480   4.237
10934WAT     H133044   4.002   2.419   4.298
10934WAT     H233045   4.069   2.567   4.283
10935WAT      O33046   9.276   2.780   0.483
10935WAT     H133047   9.220   2.862   0.497
10935WAT     H233048   9.241   2.706   0.540
10936WAT      O33049   8.602   6.461   8.100
10936WAT     H133050   8.517   6.514   8.091
10936WAT     H233051   8.585   6.366   8.076
10937WAT      O33052   0.147   2.219   6.598
10937WAT     H133053   0.166   2.189   6.505
10937WAT     H233054   0.212   2.291   6.623
10938WAT      O33055   5.188   9.698   4.064
10938WAT     H133056   5.182   9.797   4.054
10938WAT     H233057   5.150   9.671   4.153
10939WAT      O33058   7.084   0.416   2.246
10939WAT     H133059   7.164   0.414   2.307
10939WAT     H233060   7.115   0.424   2.151
10940WAT      O33061   6.676   5.648   8.899
10940WAT     H133062   6.748   5.608   8.843
10940WAT     H233063   6.679   5.748   8.890
10941WAT      O33064   6.207   9.031   1.371
10941WAT     H133065   6.257   9.085   1.440
10941WAT     H233066   6.136   9.087   1.330
10942WAT      O33067   3.452   1.049   3.953
10942WAT     H133068   3.540   1.053   4.000
10942WAT     H233069   3.405   1.137   3.962
10943WAT      O33070   3.882   2.387   1.032
10943WAT     H133071   3.937   2.468   1.049
10943WAT     H233072   3.895   2.357   0.937
10944WAT      O33073   3.552   1.772   8.169
10944WAT     H133074   3.533   1.809   8.078
10944WAT     H233075   3.509   1.830   8.238
10945WAT      O33076   8.293   9.044   7.742
10945WAT     H133077   8.288   9.012   7.648
10945WAT     H233078   8.363   9.114   7.750
10946WAT      O33079   1.316   9.493   3.432
10946WAT     H133080   1.388   9.425   3.450
10946WAT     H233081   1.357   9.576   3.395
10947WAT      O33082   7.252   3.385   5.560
10947WAT     H133083   7.171   3.359   5.507
10947WAT     H233084   7.328   3.324   5.538
10948WAT      O33085   6.557   6.177   9.881
10948WAT     H133086   6.489   6.245   9.908
10948WAT     H233087   6.525   6.085   9.904
10949WAT      O33088   8.258   5.965   6.442
10949WAT     H133089   8.286   5.956   6.346
10949WAT     H233090   8.233   6.060   6.461
10950WAT      O33091   2.226   1.869   0.779
10950WAT     H133092   2.263   1.840   0.867
10950WAT     H233093   2.274   1.823   0.706
10951WAT      O33094   6.068   9.415   8.155
10951WAT     H133095   6.119   9.495   8.121
10951WAT     H233096   6.122   9.370   8.226
10952WAT      O33097   9.579   9.311   5.050
10952WAT     H133098   9.533   9.288   5.136
10952WAT     H233099   9.625   9.230   5.014
10953WAT      O33100   1.823   3.420   2.001
10953WAT     H133101   1.871   3.494   2.048
10953WAT     H233102   1.758   3.458   1.936
10954WAT      O33103   5.658   5.033   1.674
10954WAT     H133104   5.617   4.993   1.756
10954WAT     H233105   5.617   5.123   1.657
10955WAT      O33106   9.848   1.106   2.643
10955WAT     H133107   9.946   1.112   2.626
10955WAT     H233108   9.812   1.197   2.660
10956WAT      O33109   5.851   2.125   4.238
10956WAT     H133110   5.761   2.138   4.280
10956WAT     H233111   5.864   2.192   4.165
10957WAT      O33112   3.441   7.309   0.438
10957WAT     H133113   3.441   7.210   0.447
10957WAT     H233114   3.464   7.334   0.344
10958WAT      O33115   3.023   9.740   5.053
10958WAT     H133116   2.927   9.765   5.062
10958WAT     H233117   3.031   9.641   5.045
10959WAT      O33118   3.471   9.030   4.034
10959WAT     H133119   3.385   9.004   3.989
10959WAT     H233120   3.461   9.020   4.133
10960WAT      O33121   5.687   0.685   7.414
10960WAT     H133122   5.643   0.596   7.425
10960WAT     H233123   5.620   0.751   7.381
10961WAT      O33124   5.426   1.940   4.849
10961WAT     H133125   5.435   1.997   4.931
10961WAT     H233126   5.332   1.945   4.816
10962WAT      O33127   2.897   7.250   6.602
10962WAT     H133128   2.867   7.194   6.679
10962WAT     H233129   2.853   7.339   6.607
10963WAT      O33130   7.095   7.061   7.973
10963WAT     H133131   7.148   7.119   8.035
10963WAT     H233132   7.033   7.117   7.919
10964WAT      O33133   6.640   4.524   5.577
10964WAT     H133134   6.601   4.503   5.487
10964WAT     H233135   6.739   4.511   5.574
10965WAT      O33136   0.281   9.393   6.083
10965WAT     H133137   0.366   9.413   6.133
10965WAT     H233138   0.297   9.318   6.019
10966WAT      O33139   6.157   4.933   3.416
10966WAT     H133140   6.120   4.968   3.502
10966WAT     H233141   6.147   4.834   3.413
10967WAT      O33142   5.156   1.391   1.587
10967WAT     H133143   5.177   1.420   1.494
10967WAT     H233144   5.220   1.319   1.615
10968WAT      O33145   0.407   3.563   2.683
10968WAT     H133146   0.500   3.559   2.721
10968WAT     H233147   0.341   3.561   2.758
10969WAT      O33148   6.341   0.021   3.737
10969WAT     H133149   6.381  -0.066   3.766
10969WAT     H233150   6.396   0.060   3.664
10970WAT      O33151   5.905   2.338   0.009
10970WAT     H133152   5.878   2.405  -0.060
10970WAT     H233153   5.841   2.262   0.009
10971WAT      O33154   8.027   9.182   0.594
10971WAT     H133155   8.003   9.279   0.608
10971WAT     H233156   7.943   9.128   0.591
10972WAT      O33157   1.039   7.446   3.148
10972WAT     H133158   0.955   7.499   3.160
10972WAT     H233159   1.117   7.508   3.142
10973WAT      O33160   7.299   4.282   6.013
10973WAT     H133161   7.278   4.284   5.915
10973WAT     H233162   7.320   4.375   6.044
10974WAT      O33163   5.199   1.924   1.844
10974WAT     H133164   5.219   2.022   1.840
10974WAT     H233165   5.230   1.880   1.760
10975WAT      O33166   1.175   8.810   5.859
10975WAT     H133167   1.143   8.765   5.942
10975WAT     H233168   1.269   8.841   5.872
10976WAT      O33169   0.542   5.455   7.293
10976WAT     H133170   0.517   5.358   7.288
10976WAT     H233171   0.528   5.488   7.386
10977WAT      O33172   2.979   5.025   1.808
10977WAT     H133173   3.061   5.006   1.861
10977WAT     H233174   2.964   4.951   1.743
10978WAT      O33175   4.131   5.069   2.182
10978WAT     H133176   4.053   5.098   2.126
10978WAT     H233177   4.170   5.149   2.228
10979WAT      O33178   9.107   4.454   4.971
10979WAT     H133179   9.050   4.456   4.888
10979WAT     H233180   9.200   4.483   4.948
10980WAT      O33181   5.141   9.047   4.501
10980WAT     H133182   5.170   8.955   4.476
10980WAT     H233183   5.048   9.063   4.467
10981WAT      O33184   6.174   2.551   8.488
10981WAT     H133185   6.141   2.596   8.405
10981WAT     H233186   6.163   2.612   8.566
10982WAT      O33187   0.108   4.973   1.029
10982WAT     H133188   0.083   4.945   0.937
10982WAT     H233189   0.201   5.010   1.028
10983WAT      O33190   0.100   4.866   3.931
10983WAT     H133191   0.115   4.906   3.840
10983WAT     H233192   0.078   4.769   3.921
10984WAT      O33193   8.009   1.897   9.101
10984WAT     H133194   8.064   1.944   9.032
10984WAT     H233195   8.049   1.807   9.120
10985WAT      O33196   7.566   9.650   6.658
10985WAT     H133197   7.515   9.694   6.732
10985WAT     H233198   7.543   9.553   6.655
10986WAT      O33199   8.803   1.994   6.073
10986WAT     H133200   8.800   1.946   6.161
10986WAT     H233201   8.824   2.090   6.089
10987WAT      O33202   5.117   2.413   9.224
10987WAT     H133203   5.105   2.400   9.126
10987WAT     H233204   5.107   2.325   9.271
10988WAT      O33205   0.067   2.552   3.389
10988WAT     H133206   0.002   2.476   3.387
10988WAT     H233207   0.054   2.604   3.474
10989WAT      O33208   8.518   3.167   4.318
10989WAT     H133209   8.501   3.083   4.267
10989WAT     H233210   8.506   3.246   4.258
10990WAT      O33211   1.478   3.847   4.488
10990WAT     H133212   1.391   3.844   4.437
10990WAT     H233213   1.554   3.832   4.424
10991WAT      O33214   7.954   8.841   6.406
10991WAT     H133215   8.006   8.764   6.444
10991WAT     H233216   7.856   8.820   6.407
10992WAT      O33217   8.944   8.448   7.142
10992WAT     H133218   8.913   8.372   7.201
10992WAT     H233219   9.043   8.447   7.136
10993WAT      O33220   2.582   5.120   6.481
10993WAT     H133221   2.608   5.212   6.513
10993WAT     H233222   2.625   5.102   6.393
10994WAT      O33223   0.208   1.548   8.760
10994WAT     H133224   0.267   1.489   8.705
10994WAT     H233225   0.221   1.526   8.857
10995WAT      O33226   1.004   0.484   3.665
10995WAT     H133227   0.923   0.528   3.705
10995WAT     H233228   1.063   0.554   3.625
10996WAT      O33229   9.436   3.265   5.471
10996WAT     H133230   9.529   3.233   5.492
10996WAT     H233231   9.384   3.192   5.427
10997WAT      O33232   4.364   2.115   7.076
10997WAT     H133233   4.272   2.154   7.066
10997WAT     H233234   4.362   2.019   7.049
10998WAT      O33235   1.580   9.238   1.595
10998WAT     H133236   1.517   9.277   1.528
10998WAT     H233237   1.620   9.312   1.650
10999WAT      O33238   8.875   0.391   3.302
10999WAT     H133239   8.885   0.295   3.330
10999WAT     H233240   8.940   0.411   3.228
11000WAT      O33241   4.564   8.334   7.623
11000WAT     H133242   4.464   8.342   7.622
11000WAT     H233243   4.604   8.422   7.602
11001WAT      O33244   5.305   0.218   5.619
11001WAT     H133245   5.276   0.126   5.644
11001WAT     H233246   5.363   0.215   5.538
11002WAT      O33247   9.309   8.789   3.206
11002WAT     H133248   9.307   8.886   3.231
11002WAT     H233249   9.229   8.766   3.151
11003WAT      O33250   9.615   7.017   5.783
11003WAT     H133251   9.622   7.105   5.735
11003WAT     H233252   9.535   7.019   5.842
11004WAT      O33253   6.018   8.893   6.909
11004WAT     H133254   5.920   8.898   6.888
11004WAT     H233255   6.043   8.969   6.968
11005WAT      O33256   8.304   1.207   4.889
11005WAT     H133257   8.262   1.263   4.960
11005WAT     H233258   8.393   1.245   4.865
11006WAT      O33259   4.414   3.981   2.974
11006WAT     H133260   4.388   4.077   2.989
11006WAT     H233261   4.342   3.935   2.921
11007WAT      O33262   7.709   2.653   0.312
11007WAT     H133263   7.693   2.589   0.387
11007WAT     H233264   7.742   2.740   0.349
11008WAT      O33265   6.420   5.705   2.889
11008WAT     H133266   6.330   5.748   2.885
11008WAT     H233267   6.426   5.646   2.969
11009WAT      O33268   2.125   5.833   8.868
11009WAT     H133269   2.153   5.769   8.796
11009WAT     H233270   2.044   5.797   8.914
11010WAT      O33271   7.898   5.936   3.936
11010WAT     H133272   7.836   5.864   3.967
11010WAT     H233273   7.963   5.958   4.008
11011WAT      O33274   1.087   5.501   2.846
11011WAT     H133275   1.030   5.465   2.772
11011WAT     H233276   1.087   5.601   2.842
11012WAT      O33277   7.595   3.051   5.379
11012WAT     H133278   7.615   3.062   5.282
11012WAT     H233279   7.562   2.958   5.396
11013WAT      O33280   2.026   8.511   8.772
11013WAT     H133281   2.070   8.595   8.802
11013WAT     H233282   1.929   8.528   8.756
11014WAT      O33283   2.404   9.083   6.383
11014WAT     H133284   2.491   9.108   6.341
11014WAT     H233285   2.333   9.076   6.312
11015WAT      O33286   4.903   0.087   6.417
11015WAT     H133287   4.834   0.041   6.361
11015WAT     H233288   4.893   0.186   6.408
11016WAT      O33289   7.111   5.748   2.350
11016WAT     H133290   7.043   5.821   2.347
11016WAT     H233291   7.197   5.780   2.309
11017WAT      O33292   9.662   4.806   0.564
11017WAT     H133293   9.740   4.865   0.539
11017WAT     H233294   9.599   4.858   0.622
11018WAT      O33295   8.459   6.113   2.362
11018WAT     H133296   8.407   6.079   2.283
11018WAT     H233297   8.404   6.100   2.445
11019WAT      O33298   9.778   5.622   1.977
11019WAT     H133299   9.773   5.545   2.040
11019WAT     H233300   9.850   5.685   2.006
11020WAT      O33301   0.161   0.982   6.560
11020WAT     H133302   0.112   1.063   6.593
11020WAT     H233303   0.243   0.967   6.615
11021WAT      O33304   3.983   4.045   9.780
11021WAT     H133305   4.017   4.032   9.687
11021WAT     H233306   4.002   4.138   9.811
11022WAT      O33307   0.704   3.380   1.026
11022WAT     H133308   0.605   3.384   1.019
11022WAT     H233309   0.745   3.390   0.934
11023WAT      O33310   4.437   3.237   9.256
11023WAT     H133311   4.382   3.259   9.175
11023WAT     H233312   4.412   3.298   9.331
11024WAT      O33313   3.881   7.892   6.235
11024WAT     H133314   3.853   7.796   6.234
11024WAT     H233315   3.834   7.940   6.310
11025WAT      O33316   7.156   4.372   5.544
11025WAT     H133317   7.081   4.428   5.580
11025WAT     H233318   7.118   4.299   5.487
11026WAT      O33319   8.077   2.635   0.475
11026WAT     H133320   8.119   2.544   0.477
11026WAT     H233321   8.057   2.661   0.381
11027WAT      O33322   8.058   7.352   9.831
11027WAT     H133323   8.102   7.433   9.791
11027WAT     H233324   8.059   7.278   9.764
11028WAT      O33325   8.195   7.761   1.536
11028WAT     H133326   8.192   7.814   1.621
11028WAT     H233327   8.266   7.691   1.542
11029WAT      O33328   3.019   6.177   9.083
11029WAT     H133329   2.984   6.243   9.149
11029WAT     H233330   3.060   6.100   9.131
11030WAT      O33331   9.032   1.937   1.164
11030WAT     H133332   9.122   1.972   1.191
11030WAT     H233333   8.965   1.960   1.235
11031WAT      O33334   1.174   6.316   3.761
11031WAT     H133335   1.244   6.297   3.692
11031WAT     H233336   1.210   6.382   3.827
11032WAT      O33337   4.526   6.434   5.797
11032WAT     H133338   4.464   6.355   5.795
11032WAT     H233339   4.474   6.518   5.783
11033WAT      O33340   2.721   7.910   8.489
11033WAT     H133341   2.748   7.914   8.585
11033WAT     H233342   2.788   7.857   8.437
11034WAT      O33343   5.436   2.844   6.153
11034WAT     H133344   5.467   2.938   6.169
11034WAT     H233345   5.500   2.780   6.196
11035WAT      O33346   7.951   6.628   5.601
11035WAT     H133347   8.021   6.564   5.634
11035WAT     H233348   7.925   6.603   5.508
11036WAT      O33349   6.814   8.738   7.609
11036WAT     H133350   6.831   8.836   7.613
11036WAT     H233351   6.880   8.695   7.547
11037WAT      O33352   9.775   5.043   6.311
11037WAT     H133353   9.709   4.968   6.317
11037WAT     H233354   9.847   5.029   6.379
11038WAT      O33355   7.651   3.411   5.991
11038WAT     H133356   7.649   3.510   5.986
11038WAT     H233357   7.702   3.382   6.072
11039WAT      O33358   9.457   9.025   0.652
11039WAT     H133359   9.501   9.046   0.739
11039WAT     H233360   9.378   9.085   0.639
11040WAT      O33361   4.397   1.771   7.690
11040WAT     H133362   4.305   1.762   7.728
11040WAT     H233363   4.404   1.715   7.607
11041WAT      O33364   5.347   4.262   4.969
11041WAT     H133365   5.248   4.255   4.972
11041WAT     H233366   5.378   4.258   4.874
11042WAT      O33367   4.570   0.397   0.894
11042WAT     H133368   4.523   0.309   0.892
11042WAT     H233369   4.609   0.411   0.985
11043WAT      O33370   6.144   5.772   4.293
11043WAT     H133371   6.089   5.718   4.229
11043WAT     H233372   6.103   5.768   4.384
11044WAT      O33373   6.252   4.148   3.826
11044WAT     H133374   6.182   4.217   3.843
11044WAT     H233375   6.213   4.057   3.841
11045WAT      O33376   4.024   2.277   9.198
11045WAT     H133377   4.058   2.183   9.199
11045WAT     H233378   4.087   2.336   9.249
11046WAT      O33379   8.731   3.739   7.984
11046WAT     H133380   8.796   3.717   8.057
11046WAT     H233381   8.760   3.822   7.937
11047WAT      O33382   2.837   7.452   9.353
11047WAT     H133383   2.930   7.489   9.348
11047WAT     H233384   2.796   7.478   9.440
11048WAT      O33385   6.494   5.997   4.213
11048WAT     H133386   6.590   5.972   4.227
11048WAT     H233387   6.479   6.089   4.247
11049WAT      O33388   0.721   6.508   4.697
11049WAT     H133389   0.657   6.572   4.740
11049WAT     H233390   0.727   6.526   4.599
11050WAT      O33391   6.538   1.996   5.483
11050WAT     H133392   6.443   1.970   5.468
11050WAT     H233393   6.583   1.927   5.540
11051WAT      O33394   8.956   9.196   7.566
11051WAT     H133395   9.015   9.119   7.590
11051WAT     H233396   9.013   9.277   7.548
11052WAT      O33397   1.771   5.043   6.699
11052WAT     H133398   1.786   4.957   6.651
11052WAT     H233399   1.855   5.071   6.745
11053WAT      O33400   8.876   0.942   6.835
11053WAT     H133401   8.927   0.904   6.758
11053WAT     H233402   8.903   0.896   6.920
11054WAT      O33403   9.441   2.535   3.643
11054WAT     H133404   9.437   2.519   3.545
11054WAT     H233405   9.422   2.450   3.692
11055WAT      O33406   8.950   1.723   7.901
11055WAT     H133407   8.974   1.630   7.874
11055WAT     H233408   9.024   1.762   7.956
11056WAT      O33409   8.189   4.766   0.672
11056WAT     H133410   8.263   4.795   0.611
11056WAT     H233411   8.227   4.718   0.751
11057WAT      O33412   3.739   7.099   9.536
11057WAT     H133413   3.833   7.067   9.550
11057WAT     H233414   3.738   7.168   9.463
11058WAT      O33415   2.649   3.575   7.819
11058WAT     H133416   2.696   3.583   7.907
11058WAT     H233417   2.691   3.503   7.765
11059WAT      O33418   6.829   3.677   4.468
11059WAT     H133419   6.890   3.613   4.421
11059WAT     H233420   6.763   3.627   4.523
11060WAT      O33421   0.610   4.571   1.223
11060WAT     H133422   0.540   4.629   1.183
11060WAT     H233423   0.619   4.592   1.321
11061WAT      O33424   8.152   5.575   2.550
11061WAT     H133425   8.234   5.631   2.554
11061WAT     H233426   8.168   5.497   2.489
11062WAT      O33427   1.771   0.047   7.665
11062WAT     H133428   1.855   0.024   7.616
11062WAT     H233429   1.791   0.118   7.733
11063WAT      O33430   6.304   4.829   8.447
11063WAT     H133431   6.386   4.821   8.389
11063WAT     H233432   6.229   4.866   8.393
11064WAT      O33433   6.578   4.355   7.993
11064WAT     H133434   6.611   4.446   8.019
11064WAT     H233435   6.520   4.319   8.066
11065WAT      O33436   9.722   3.937   5.728
11065WAT     H133437   9.634   3.895   5.705
11065WAT     H233438   9.707   4.033   5.752
11066WAT      O33439   8.610   4.032   2.765
11066WAT     H133440   8.676   4.105   2.748
11066WAT     H233441   8.521   4.059   2.731
11067WAT      O33442   4.986   3.167   0.690
11067WAT     H133443   4.971   3.216   0.605
11067WAT     H233444   4.906   3.177   0.750
11068WAT      O33445   5.288   2.786   7.180
11068WAT     H133446   5.375   2.745   7.208
11068WAT     H233447   5.248   2.730   7.107
11069WAT      O33448   9.591   4.698   5.795
11069WAT     H133449   9.634   4.782   5.762
11069WAT     H233450   9.519   4.721   5.860
11070WAT      O33451   7.850   4.576   8.986
11070WAT     H133452   7.950   4.578   8.985
11070WAT     H233453   7.819   4.506   9.051
11071WAT      O33454   1.215   2.187   3.814
11071WAT     H133455   1.238   2.178   3.718
11071WAT     H233456   1.116   2.176   3.826
11072WAT      O33457   5.011   8.735   1.452
11072WAT     H133458   5.088   8.672   1.451
11072WAT     H233459   4.965   8.734   1.363
11073WAT      O33460   3.514   7.613   8.072
11073WAT     H133461   3.610   7.622   8.098
11073WAT     H233462   3.474   7.704   8.058
11074WAT      O33463   4.446   6.607   3.961
11074WAT     H133464   4.451   6.678   4.032
11074WAT     H233465   4.538   6.575   3.939
11075WAT      O33466   3.103   9.722   2.634
11075WAT     H133467   3.181   9.663   2.614
11075WAT     H233468   3.021   9.666   2.646
11076WAT      O33469   2.504   1.475   4.087
11076WAT     H133470   2.552   1.482   4.175
11076WAT     H233471   2.571   1.481   4.013
11077WAT      O33472   7.524   5.153   4.069
11077WAT     H133473   7.504   5.123   3.976
11077WAT     H233474   7.438   5.174   4.117
11078WAT      O33475   8.350   1.413   5.116
11078WAT     H133476   8.410   1.428   5.195
11078WAT     H233477   8.400   1.432   5.032
11079WAT      O33478   4.910   6.620   2.257
11079WAT     H133479   4.930   6.571   2.342
11079WAT     H233480   4.839   6.688   2.274
11080WAT      O33481   4.070   9.053   4.270
11080WAT     H133482   4.001   9.001   4.220
11080WAT     H233483   4.044   9.057   4.367
11081WAT      O33484   1.204   3.283   4.001
11081WAT     H133485   1.181   3.380   4.011
11081WAT     H233486   1.148   3.244   3.928
11082WAT      O33487   3.460   6.365   3.457
11082WAT     H133488   3.369   6.367   3.500
11082WAT     H233489   3.526   6.326   3.521
11083WAT      O33490   1.760   1.596   0.339
11083WAT     H133491   1.673   1.639   0.363
11083WAT     H233492   1.834   1.663   0.349
11084WAT      O33493   8.360   5.545   0.363
11084WAT     H133494   8.343   5.472   0.297
11084WAT     H233495   8.311   5.526   0.448
11085WAT      O33496   6.670   2.988   0.372
11085WAT     H133497   6.639   3.078   0.403
11085WAT     H233498   6.762   2.995   0.334
11086WAT      O33499   3.166   5.473   9.256
11086WAT     H133500   3.085   5.479   9.315
11086WAT     H233501   3.191   5.377   9.245
11087WAT      O33502   0.040   9.608   5.333
11087WAT     H133503  -0.044   9.578   5.287
11087WAT     H233504   0.055   9.552   5.415
11088WAT      O33505   0.645   2.350   5.666
11088WAT     H133506   0.573   2.303   5.616
11088WAT     H233507   0.675   2.430   5.615
11089WAT      O33508   3.933   9.644   7.421
11089WAT     H133509   3.863   9.713   7.438
11089WAT     H233510   3.978   9.663   7.334
11090WAT      O33511   9.733   2.258   9.121
11090WAT     H133512   9.718   2.347   9.164
11090WAT     H233513   9.784   2.270   9.035
11091WAT      O33514   7.890   4.452   1.769
11091WAT     H133515   7.919   4.380   1.832
11091WAT     H233516   7.891   4.540   1.816
11092WAT      O33517   6.777   1.746   8.896
11092WAT     H133518   6.782   1.819   8.828
11092WAT     H233519   6.869   1.728   8.932
11093WAT      O33520   5.832   4.047   1.026
11093WAT     H133521   5.927   4.028   1.001
11093WAT     H233522   5.815   4.146   1.019
11094WAT      O33523   2.190   9.257   4.215
11094WAT     H133524   2.206   9.158   4.219
11094WAT     H233525   2.134   9.284   4.293
11095WAT      O33526   1.403   2.312   3.299
11095WAT     H133527   1.390   2.355   3.388
11095WAT     H233528   1.399   2.382   3.227
11096WAT      O33529   6.759   3.783   5.477
11096WAT     H133530   6.828   3.714   5.456
11096WAT     H233531   6.728   3.826   5.392
11097WAT      O33532   4.207   1.044   9.511
11097WAT     H133533   4.215   1.034   9.412
11097WAT     H233534   4.163   0.964   9.550
11098WAT      O33535   5.327   2.101   0.687
11098WAT     H133536   5.354   2.147   0.772
11098WAT     H233537   5.389   2.024   0.670
11099WAT      O33538   5.274   4.180   8.706
11099WAT     H133539   5.198   4.226   8.753
11099WAT     H233540   5.271   4.202   8.609
11100WAT      O33541   3.000   1.778   2.248
11100WAT     H133542   2.958   1.836   2.318
11100WAT     H233543   3.089   1.747   2.281
11101WAT      O33544   6.962   2.424   2.476
11101WAT     H133545   6.924   2.440   2.568
11101WAT     H233546   6.979   2.326   2.464
11102WAT      O33547   3.489   0.379   1.624
11102WAT     H133548   3.425   0.303   1.637
11102WAT     H233549   3.438   0.464   1.610
11103WAT      O33550   3.489   5.433   2.411
11103WAT     H133551   3.520   5.528   2.404
11103WAT     H233552   3.547   5.375   2.355
11104WAT      O33553   5.719   6.085   5.268
11104WAT     H133554   5.755   5.993   5.248
11104WAT     H233555   5.620   6.083   5.264
11105WAT      O33556   5.878   5.071   1.044
11105WAT     H133557   5.962   5.118   1.016
11105WAT     H233558   5.896   5.018   1.127
11106WAT      O33559   1.995   3.218   5.367
11106WAT     H133560   1.959   3.144   5.424
11106WAT     H233561   1.921   3.260   5.316
11107WAT      O33562   2.560   4.491   4.137
11107WAT     H133563   2.611   4.514   4.220
11107WAT     H233564   2.589   4.401   4.103
11108WAT      O33565   4.874   7.393   6.407
11108WAT     H133566   4.788   7.387   6.357
11108WAT     H233567   4.856   7.399   6.505
11109WAT      O33568   7.698   7.936   7.991
11109WAT     H133569   7.728   7.908   7.900
11109WAT     H233570   7.720   7.864   8.057
11110WAT      O33571   0.303   8.684   3.914
11110WAT     H133572   0.225   8.729   3.957
11110WAT     H233573   0.296   8.693   3.815
11111WAT      O33574   7.803   8.931   6.096
11111WAT     H133575   7.895   8.933   6.134
11111WAT     H233576   7.738   8.905   6.168
11112WAT      O33577   9.564   8.067   2.389
11112WAT     H133578   9.595   8.089   2.481
11112WAT     H233579   9.600   7.978   2.362
11113WAT      O33580   0.304   2.725   4.584
11113WAT     H133581   0.294   2.747   4.681
11113WAT     H233582   0.391   2.678   4.569
11114WAT      O33583   6.753   8.461   5.759
11114WAT     H133584   6.665   8.414   5.767
11114WAT     H233585   6.778   8.469   5.663
11115WAT      O33586   0.524   7.795   2.858
11115WAT     H133587   0.600   7.780   2.921
11115WAT     H233588   0.471   7.711   2.849
11116WAT      O33589   2.546   9.394   4.791
11116WAT     H133590   2.624   9.427   4.844
11116WAT     H233591   2.569   9.393   4.694
11117WAT      O33592   0.072   0.289   7.027
11117WAT     H133593   0.089   0.193   7.052
11117WAT     H233594   0.150   0.325   6.977
11118WAT      O33595   0.089   3.829   1.718
11118WAT     H133596   0.052   3.843   1.626
11118WAT     H233597   0.175   3.881   1.727
11119WAT      O33598   0.904   2.724   9.121
11119WAT     H133599   0.961   2.777   9.184
11119WAT     H233600   0.953   2.642   9.092
11120WAT      O33601   3.457   7.991   1.409
11120WAT     H133602   3.548   7.953   1.425
11120WAT     H233603   3.460   8.052   1.329
11121WAT      O33604   1.718   7.049   8.832
11121WAT     H133605   1.628   7.005   8.838
11121WAT     H233606   1.706   7.148   8.827
11122WAT      O33607   1.205   4.224   6.324
11122WAT     H133608   1.300   4.229   6.292
11122WAT     H233609   1.151   4.296   6.279
11123WAT      O33610   0.986   6.573   1.158
11123WAT     H133611   1.050   6.597   1.231
11123WAT     H233612   0.995   6.639   1.083
11124WAT      O33613   6.830   4.124   8.214
11124WAT     H133614   6.791   4.197   8.271
11124WAT     H233615   6.773   4.042   8.221
11125WAT      O33616   0.358   3.836   2.133
11125WAT     H133617   0.374   3.933   2.114
11125WAT     H233618   0.372   3.819   2.231
11126WAT      O33619   5.125   0.149   5.957
11126WAT     H133620   5.220   0.121   5.946
11126WAT     H233621   5.121   0.236   6.006
11127WAT      O33622   4.572   8.340   4.043
11127WAT     H133623   4.546   8.436   4.056
11127WAT     H233624   4.645   8.334   3.975
11128WAT      O33625   8.437   0.294   1.183
11128WAT     H133626   8.427   0.194   1.189
11128WAT     H233627   8.352   0.334   1.150
11129WAT      O33628   5.905   9.178   6.269
11129WAT     H133629   5.963   9.249   6.309
11129WAT     H233630   5.960   9.121   6.208
11130WAT      O33631   0.275   8.362   1.222
11130WAT     H133632   0.258   8.413   1.306
11130WAT     H233633   0.367   8.322   1.224
11131WAT      O33634   4.647   2.551   0.176
11131WAT     H133635   4.570   2.527   0.117
11131WAT     H233636   4.686   2.469   0.216
11132WAT      O33637   8.376   7.641   6.545
11132WAT     H133638   8.322   7.572   6.497
11132WAT     H233639   8.458   7.598   6.584
11133WAT      O33640   4.088   4.390   9.057
11133WAT     H133641   4.166   4.437   9.016
11133WAT     H233642   4.068   4.431   9.146
11134WAT      O33643   5.771   7.197   5.163
11134WAT     H133644   5.730   7.110   5.134
11134WAT     H233645   5.835   7.228   5.092
11135WAT      O33646   6.808   2.565   1.378
11135WAT     H133647   6.735   2.509   1.416
11135WAT     H233648   6.839   2.525   1.292
11136WAT      O33649   3.090   2.393   3.119
11136WAT     H133650   3.176   2.369   3.164
11136WAT     H233651   3.104   2.472   3.059
11137WAT      O33652   2.362   6.324   8.452
11137WAT     H133653   2.438   6.322   8.518
11137WAT     H233654   2.378   6.397   8.386
11138WAT      O33655   2.459   1.502   5.854
11138WAT     H133656   2.519   1.463   5.785
11138WAT     H233657   2.454   1.601   5.841
11139WAT      O33658   9.862   5.327   3.274
11139WAT     H133659   9.855   5.358   3.179
11139WAT     H233660   9.854   5.227   3.277
11140WAT      O33661   8.349   6.715   0.990
11140WAT     H133662   8.316   6.679   0.902
11140WAT     H233663   8.416   6.651   1.028
11141WAT      O33664   7.459   7.238   9.245
11141WAT     H133665   7.491   7.305   9.178
11141WAT     H233666   7.447   7.149   9.200
11142WAT      O33667   2.585   6.221   9.566
11142WAT     H133668   2.619   6.127   9.570
11142WAT     H233669   2.488   6.220   9.543
11143WAT      O33670   3.224   5.426   7.299
11143WAT     H133671   3.178   5.512   7.321
11143WAT     H233672   3.289   5.403   7.372
11144WAT      O33673   8.593   7.769   0.107
11144WAT     H133674   8.635   7.855   0.138
11144WAT     H233675   8.662   7.698   0.098
11145WAT      O33676   5.315   3.564   3.454
11145WAT     H133677   5.389   3.571   3.387
11145WAT     H233678   5.230   3.539   3.407
11146WAT      O33679   5.150   5.937   0.787
11146WAT     H133680   5.098   6.006   0.736
11146WAT     H233681   5.221   5.982   0.841
11147WAT      O33682   0.528   3.015   3.350
11147WAT     H133683   0.464   2.941   3.334
11147WAT     H233684   0.617   2.978   3.375
11148WAT      O33685   7.961   4.779   5.004
11148WAT     H133686   7.927   4.687   5.021
11148WAT     H233687   7.900   4.846   5.048
11149WAT      O33688   6.915   0.700   9.280
11149WAT     H133689   6.962   0.737   9.200
11149WAT     H233690   6.933   0.759   9.359
11150WAT      O33691   6.073   2.046   7.983
11150WAT     H133692   6.016   1.965   7.972
11150WAT     H233693   6.046   2.114   7.915
11151WAT      O33694   7.728   1.597   4.652
11151WAT     H133695   7.762   1.691   4.649
11151WAT     H233696   7.751   1.557   4.741
11152WAT      O33697   6.635   7.573   2.154
11152WAT     H133698   6.615   7.666   2.122
11152WAT     H233699   6.640   7.512   2.075
11153WAT      O33700   2.329   9.033   4.134
11153WAT     H133701   2.427   9.022   4.152
11153WAT     H233702   2.316   9.062   4.039
11154WAT      O33703   4.307   6.895   5.389
11154WAT     H133704   4.316   6.986   5.347
11154WAT     H233705   4.215   6.859   5.372
11155WAT      O33706   4.044   2.209   5.403
11155WAT     H133707   4.045   2.117   5.364
11155WAT     H233708   3.981   2.266   5.351
11156WAT      O33709   2.386   4.369   6.257
11156WAT     H133710   2.376   4.459   6.300
11156WAT     H233711   2.452   4.376   6.182
11157WAT      O33712   3.804   7.201   5.646
11157WAT     H133713   3.770   7.207   5.739
11157WAT     H233714   3.735   7.236   5.583
11158WAT      O33715   7.999   4.817   6.460
11158WAT     H133716   8.080   4.868   6.430
11158WAT     H233717   8.015   4.779   6.551
11159WAT      O33718   8.278   1.836   6.491
11159WAT     H133719   8.220   1.872   6.564
11159WAT     H233720   8.374   1.847   6.516
11160WAT      O33721   0.862   5.073   5.408
11160WAT     H133722   0.816   5.147   5.358
11160WAT     H233723   0.896   5.005   5.343
11161WAT      O33724   5.996   8.335   8.969
11161WAT     H133725   5.971   8.282   9.050
11161WAT     H233726   6.065   8.403   8.993
11162WAT      O33727   6.505   2.065   4.670
11162WAT     H133728   6.590   2.055   4.723
11162WAT     H233729   6.524   2.120   4.589
11163WAT      O33730   6.038   7.587   6.470
11163WAT     H133731   6.074   7.585   6.563
11163WAT     H233732   5.990   7.674   6.455
11164WAT      O33733   1.152   8.834   7.813
11164WAT     H133734   1.157   8.879   7.902
11164WAT     H233735   1.162   8.735   7.824
11165WAT      O33736   2.495   1.454   6.466
11165WAT     H133737   2.480   1.357   6.485
11165WAT     H233738   2.474   1.507   6.548
11166WAT      O33739   8.277   2.008   8.990
11166WAT     H133740   8.228   2.095   8.992
11166WAT     H233741   8.280   1.973   8.897
11167WAT      O33742   3.588   1.221   7.669
11167WAT     H133743   3.616   1.229   7.764
11167WAT     H233744   3.492   1.247   7.660
11168WAT      O33745   4.148   1.336   3.566
11168WAT     H133746   4.191   1.274   3.633
11168WAT     H233747   4.220   1.388   3.519
11169WAT      O33748   8.926   0.459   1.352
11169WAT     H133749   8.831   0.436   1.370
11169WAT     H233750   8.986   0.393   1.397
11170WAT      O33751   9.425   7.494   7.277
11170WAT     H133752   9.444   7.521   7.372
11170WAT     H233753   9.383   7.570   7.228
11171WAT      O33754   1.638   0.421   3.645
11171WAT     H133755   1.723   0.472   3.636
11171WAT     H233756   1.565   0.468   3.595
11172WAT      O33757   5.961   8.727   6.260
11172WAT     H133758   6.015   8.758   6.338
11172WAT     H233759   5.864   8.723   6.286
11173WAT      O33760   5.767   8.158   7.214
11173WAT     H133761   5.721   8.131   7.129
11173WAT     H233762   5.866   8.153   7.201
11174WAT      O33763   8.259   3.341   4.140
11174WAT     H133764   8.224   3.267   4.198
11174WAT     H233765   8.229   3.328   4.046
11175WAT      O33766   2.054   6.478   4.761
11175WAT     H133767   2.136   6.422   4.777
11175WAT     H233768   2.001   6.485   4.845
11176WAT      O33769   2.942   7.217   6.342
11176WAT     H133770   2.931   7.257   6.433
11176WAT     H233771   2.963   7.120   6.350
11177WAT      O33772   7.263   7.983   6.228
11177WAT     H133773   7.177   7.986   6.279
11177WAT     H233774   7.305   7.893   6.240
11178WAT      O33775   9.824   3.429   3.451
11178WAT     H133776   9.809   3.431   3.550
11178WAT     H233777   9.895   3.496   3.427
11179WAT      O33778   1.650   5.466   3.886
11179WAT     H133779   1.593   5.395   3.845
11179WAT     H233780   1.731   5.423   3.928
11180WAT      O33781   4.422   0.852   5.910
11180WAT     H133782   4.331   0.871   5.946
11180WAT     H233783   4.489   0.852   5.984
11181WAT      O33784   7.613   8.867   1.497
11181WAT     H133785   7.652   8.956   1.472
11181WAT     H233786   7.673   8.795   1.462
11182WAT      O33787   4.632   7.201   4.152
11182WAT     H133788   4.725   7.167   4.137
11182WAT     H233789   4.588   7.214   4.063
11183WAT      O33790   7.404   3.786   5.903
11183WAT     H133791   7.319   3.772   5.955
11183WAT     H233792   7.477   3.731   5.943
11184WAT      O33793   4.437   6.062   7.109
11184WAT     H133794   4.521   6.035   7.063
11184WAT     H233795   4.437   6.160   7.125
11185WAT      O33796   9.137   8.649   6.832
11185WAT     H133797   9.208   8.587   6.866
11185WAT     H233798   9.103   8.616   6.744
11186WAT      O33799   0.392   2.836   0.800
11186WAT     H133800   0.385   2.885   0.713
11186WAT     H233801   0.302   2.836   0.845
11187WAT      O33802   8.868   2.018   7.298
11187WAT     H133803   8.920   1.997   7.381
11187WAT     H233804   8.846   1.933   7.251
11188WAT      O33805   3.100   0.572   9.376
11188WAT     H133806   3.119   0.498   9.441
11188WAT     H233807   3.078   0.533   9.287
11189WAT      O33808   5.274   2.244   4.791
11189WAT     H133809   5.234   2.154   4.808
11189WAT     H233810   5.206   2.304   4.750
11190WAT      O33811   5.538   2.016   1.386
11190WAT     H133812   5.529   2.041   1.290
11190WAT     H233813   5.508   2.093   1.444
11191WAT      O33814   3.051   7.886   5.006
11191WAT     H133815   3.094   7.819   5.066
11191WAT     H233816   3.007   7.957   5.061
11192WAT      O33817   4.672   4.194   3.188
11192WAT     H133818   4.726   4.233   3.263
11192WAT     H233819   4.729   4.130   3.137
11193WAT      O33820   4.580   9.174   3.601
11193WAT     H133821   4.643   9.124   3.541
11193WAT     H233822   4.521   9.233   3.547
11194WAT      O33823   5.239   4.215   9.216
11194WAT     H133824   5.273   4.171   9.133
11194WAT     H233825   5.316   4.248   9.270
11195WAT      O33826   8.839   1.875   2.370
11195WAT     H133827   8.810   1.890   2.465
11195WAT     H233828   8.934   1.904   2.359
11196WAT      O33829   2.117   4.251   0.395
11196WAT     H133830   2.213   4.249   0.367
11196WAT     H233831   2.073   4.165   0.368
11197WAT      O33832   1.338   5.795   1.748
11197WAT     H133833   1.267   5.729   1.770
11197WAT     H233834   1.344   5.807   1.649
11198WAT      O33835   3.820   8.573   9.471
11198WAT     H133836   3.818   8.487   9.420
11198WAT     H233837   3.915   8.605   9.477
11199WAT      O33838   1.949   1.593   3.478
11199WAT     H133839   2.000   1.516   3.516
11199WAT     H233840   1.862   1.604   3.527
11200WAT      O33841   5.344   8.958   4.031
11200WAT     H133842   5.250   8.935   4.055
11200WAT     H233843   5.396   8.981   4.113
11201WAT      O33844   8.153   8.534   0.874
11201WAT     H133845   8.071   8.495   0.832
11201WAT     H233846   8.128   8.615   0.927
11202WAT      O33847   0.622   3.253   6.945
11202WAT     H133848   0.680   3.202   6.881
11202WAT     H233849   0.625   3.350   6.922
11203WAT      O33850   2.517   8.682   3.175
11203WAT     H133851   2.450   8.751   3.200
11203WAT     H233852   2.471   8.604   3.133
11204WAT      O33853   1.880   3.506   2.691
11204WAT     H133854   1.819   3.541   2.620
11204WAT     H233855   1.926   3.423   2.659
11205WAT      O33856   7.459   4.593   7.136
11205WAT     H133857   7.529   4.606   7.206
11205WAT     H233858   7.461   4.671   7.073
11206WAT      O33859   7.353   6.636   9.632
11206WAT     H133860   7.403   6.640   9.718
11206WAT     H233861   7.406   6.585   9.564
11207WAT      O33862   7.976   5.704   0.317
11207WAT     H133863   8.036   5.624   0.320
11207WAT     H233864   7.915   5.697   0.238
11208WAT      O33865   6.668   4.762   3.532
11208WAT     H133866   6.663   4.782   3.630
11208WAT     H233867   6.590   4.805   3.485
11209WAT      O33868   4.674   4.058   6.686
11209WAT     H133869   4.761   4.057   6.638
11209WAT     H233870   4.676   4.129   6.757
11210WAT      O33871   2.481   7.681   6.005
11210WAT     H133872   2.396   7.733   6.008
11210WAT     H233873   2.528   7.689   6.092
11211WAT      O33874   8.607   7.057   1.504
11211WAT     H133875   8.704   7.033   1.510
11211WAT     H233876   8.569   7.025   1.417
11212WAT      O33877   8.333   0.703   0.582
11212WAT     H133878   8.331   0.668   0.675
11212WAT     H233879   8.397   0.648   0.527
11213WAT      O33880   4.656   1.196   0.703
11213WAT     H133881   4.567   1.232   0.731
11213WAT     H233882   4.656   1.096   0.713
11214WAT      O33883   4.497   4.784   2.277
11214WAT     H133884   4.499   4.853   2.350
11214WAT     H233885   4.542   4.821   2.195
11215WAT      O33886   3.844   1.802   4.354
11215WAT     H133887   3.809   1.765   4.440
11215WAT     H233888   3.889   1.730   4.302
11216WAT      O33889   4.715   7.000   1.746
11216WAT     H133890   4.803   7.046   1.761
11216WAT     H233891   4.728   6.919   1.690
11217WAT      O33892   7.099   4.752   8.125
11217WAT     H133893   7.072   4.841   8.089
11217WAT     H233894   7.173   4.715   8.069
11218WAT      O33895   6.820   5.346   4.638
11218WAT     H133896   6.874   5.296   4.570
11218WAT     H233897   6.852   5.323   4.730
11219WAT      O33898   4.360   3.541   8.792
11219WAT     H133899   4.377   3.530   8.890
11219WAT     H233900   4.399   3.463   8.743
11220WAT      O33901   9.855   7.439   7.718
11220WAT     H133902   9.861   7.538   7.701
11220WAT     H233903   9.878   7.389   7.635
11221WAT      O33904   7.692   2.185   1.491
11221WAT     H133905   7.654   2.140   1.411
11221WAT     H233906   7.701   2.118   1.565
11222WAT      O33907   0.600   6.442   9.614
11222WAT     H133908   0.629   6.491   9.532
11222WAT     H233909   0.508   6.472   9.640
11223WAT      O33910   3.112   3.745   7.837
11223WAT     H133911   3.194   3.769   7.786
11223WAT     H233912   3.052   3.824   7.843
11224WAT      O33913   5.178   4.194   1.899
11224WAT     H133914   5.207   4.100   1.921
11224WAT     H233915   5.248   4.239   1.844
11225WAT      O33916   0.604   0.847   9.522
11225WAT     H133917   0.622   0.923   9.584
11225WAT     H233918   0.624   0.874   9.428
11226WAT      O33919   3.472   8.168   0.393
11226WAT     H133920   3.542   8.239   0.392
11226WAT     H233921   3.424   8.167   0.305
11227WAT      O33922   9.018   6.697   4.589
11227WAT     H133923   9.087   6.770   4.587
11227WAT     H233924   8.991   6.679   4.684
11228WAT      O33925   5.640   1.917   4.684
11228WAT     H133926   5.715   1.861   4.720
11228WAT     H233927   5.563   1.913   4.748
11229WAT      O33928   9.636   5.765   1.696
11229WAT     H133929   9.581   5.738   1.617
11229WAT     H233930   9.720   5.711   1.698
11230WAT      O33931   8.577   8.106   2.330
11230WAT     H133932   8.572   8.010   2.305
11230WAT     H233933   8.495   8.153   2.296
11231WAT      O33934   6.789   3.489   8.785
11231WAT     H133935   6.793   3.586   8.761
11231WAT     H233936   6.780   3.434   8.701
11232WAT      O33937   3.248   7.475   5.705
11232WAT     H133938   3.241   7.574   5.698
11232WAT     H233939   3.343   7.447   5.697
11233WAT      O33940   9.311   2.255   2.405
11233WAT     H133941   9.367   2.263   2.323
11233WAT     H233942   9.337   2.173   2.455
11234WAT      O33943   3.377   5.732   7.243
11234WAT     H133944   3.386   5.832   7.243
11234WAT     H233945   3.286   5.707   7.274
11235WAT      O33946   4.263   4.101   7.647
11235WAT     H133947   4.220   4.096   7.557
11235WAT     H233948   4.194   4.089   7.718
11236WAT      O33949   9.351   9.462   2.250
11236WAT     H133950   9.293   9.414   2.184
11236WAT     H233951   9.445   9.465   2.216
11237WAT      O33952   0.179   7.032   6.126
11237WAT     H133953   0.087   7.069   6.120
11237WAT     H233954   0.193   6.964   6.054
11238WAT      O33955   5.495   4.406   5.897
11238WAT     H133956   5.506   4.431   5.993
11238WAT     H233957   5.516   4.486   5.840
11239WAT      O33958   7.074   5.526   3.679
11239WAT     H133959   6.987   5.556   3.640
11239WAT     H233960   7.140   5.511   3.605
11240WAT      O33961   9.009   9.648   5.814
11240WAT     H133962   9.104   9.620   5.827
11240WAT     H233963   8.992   9.661   5.716
11241WAT      O33964   2.133   0.421   8.930
11241WAT     H133965   2.092   0.508   8.955
11241WAT     H233966   2.188   0.432   8.847
11242WAT      O33967   1.980   3.869   9.669
11242WAT     H133968   1.967   3.792   9.607
11242WAT     H233969   2.073   3.905   9.659
11243WAT      O33970   4.912   0.702   9.414
11243WAT     H133971   4.993   0.697   9.472
11243WAT     H233972   4.875   0.610   9.402
11244WAT      O33973   5.125   1.002   3.718
11244WAT     H133974   5.208   0.979   3.769
11244WAT     H233975   5.050   1.021   3.782
11245WAT      O33976   7.613   1.147   7.347
11245WAT     H133977   7.639   1.105   7.260
11245WAT     H233978   7.692   1.151   7.408
11246WAT      O33979   0.263   7.133   9.116
11246WAT     H133980   0.338   7.070   9.134
11246WAT     H233981   0.183   7.104   9.169
11247WAT      O33982   9.291   6.318   0.929
11247WAT     H133983   9.243   6.403   0.911
11247WAT     H233984   9.341   6.326   1.016
11248WAT      O33985   3.138   0.465   3.644
11248WAT     H133986   3.096   0.555   3.656
11248WAT     H233987   3.094   0.417   3.568
11249WAT      O33988   3.798   5.947   8.793
11249WAT     H133989   3.710   5.926   8.835
11249WAT     H233990   3.784   5.987   8.703
11250WAT      O33991   5.660   4.856   8.770
11250WAT     H133992   5.747   4.864   8.818
11250WAT     H233993   5.599   4.930   8.798
11251WAT      O33994   5.040   3.746   0.145
11251WAT     H133995   5.122   3.707   0.187
11251WAT     H233996   5.063   3.779   0.053
11252WAT      O33997   6.738   3.414   5.051
11252WAT     H133998   6.786   3.430   5.137
11252WAT     H233999   6.750   3.494   4.991
11253WAT      O34000   9.392   3.724   9.565
11253WAT     H134001   9.368   3.740   9.469
11253WAT     H234002   9.364   3.803   9.620
11254WAT      O34003   8.429   7.795   5.910
11254WAT     H134004   8.422   7.801   5.810
11254WAT     H234005   8.437   7.887   5.948
11255WAT      O34006   5.336   7.054   0.951
11255WAT     H134007   5.364   7.094   1.038
11255WAT     H234008   5.268   6.982   0.968
11256WAT      O34009   5.555   0.923   5.441
11256WAT     H134010   5.597   0.878   5.362
11256WAT     H234011   5.465   0.884   5.458
11257WAT      O34012   2.352   0.917   3.111
11257WAT     H134013   2.273   0.892   3.167
11257WAT     H234014   2.355   0.860   3.030
11258WAT      O34015   6.484   5.413   3.544
11258WAT     H134016   6.410   5.348   3.525
11258WAT     H234017   6.448   5.491   3.594
11259WAT      O34018   7.206   3.056   0.888
11259WAT     H134019   7.183   2.964   0.856
11259WAT     H234020   7.271   3.049   0.963
11260WAT      O34021   7.714   9.120   4.855
11260WAT     H134022   7.797   9.095   4.905
11260WAT     H234023   7.638   9.065   4.886
11261WAT      O34024   2.679   3.967   8.775
11261WAT     H134025   2.596   3.922   8.742
11261WAT     H234026   2.741   3.899   8.813
11262WAT      O34027   7.215   3.748   1.112
11262WAT     H134028   7.282   3.793   1.053
11262WAT     H234029   7.148   3.816   1.143
11263WAT      O34030   6.613   4.245   6.425
11263WAT     H134031   6.571   4.320   6.374
11263WAT     H234032   6.604   4.261   6.523
11264WAT      O34033   8.777   4.929   2.106
11264WAT     H134034   8.693   4.875   2.092
11264WAT     H234035   8.806   4.968   2.018
11265WAT      O34036   8.586   0.488   6.247
11265WAT     H134037   8.677   0.507   6.210
11265WAT     H234038   8.530   0.444   6.177
11266WAT      O34039   8.282   5.923   0.689
11266WAT     H134040   8.272   5.841   0.744
11266WAT     H234041   8.228   5.914   0.605
11267WAT      O34042   6.137   8.009   3.249
11267WAT     H134043   6.172   8.096   3.284
11267WAT     H234044   6.037   8.011   3.250
11268WAT      O34045   8.876   3.690   5.782
11268WAT     H134046   8.889   3.597   5.747
11268WAT     H234047   8.781   3.700   5.813
11269WAT      O34048   0.635   8.737   2.126
11269WAT     H134049   0.550   8.699   2.163
11269WAT     H234050   0.655   8.824   2.172
11270WAT      O34051   4.884   6.328   8.458
11270WAT     H134052   4.824   6.375   8.522
11270WAT     H234053   4.971   6.306   8.502
11271WAT      O34054   6.977   2.244   7.328
11271WAT     H134055   6.975   2.328   7.274
11271WAT     H234056   6.932   2.260   7.416
11272WAT      O34057   1.134   8.176   3.410
11272WAT     H134058   1.098   8.140   3.324
11272WAT     H234059   1.090   8.130   3.487
11273WAT      O34060   9.552   5.599   0.176
11273WAT     H134061   9.579   5.619   0.270
11273WAT     H234062   9.527   5.502   0.169
11274WAT      O34063   8.691   8.657   1.309
11274WAT     H134064   8.678   8.634   1.406
11274WAT     H234065   8.623   8.726   1.282
11275WAT      O34066   8.798   0.809   3.634
11275WAT     H134067   8.746   0.859   3.703
11275WAT     H234068   8.736   0.779   3.560
11276WAT      O34069   0.428   3.281   4.086
11276WAT     H134070   0.373   3.340   4.145
11276WAT     H234071   0.372   3.248   4.010
11277WAT      O34072   8.555   0.578   4.237
11277WAT     H134073   8.573   0.656   4.296
11277WAT     H234074   8.506   0.507   4.288
11278WAT      O34075   3.816   3.113   6.717
11278WAT     H134076   3.834   3.034   6.774
11278WAT     H234077   3.805   3.194   6.774
11279WAT      O34078   2.940   4.576   0.027
11279WAT     H134079   3.033   4.540   0.029
11279WAT     H234080   2.911   4.586  -0.068
11280WAT      O34081   4.704   2.483   8.094
11280WAT     H134082   4.765   2.524   8.026
11280WAT     H234083   4.655   2.406   8.053
11281WAT      O34084   9.286   3.595   4.853
11281WAT     H134085   9.302   3.513   4.907
11281WAT     H234086   9.216   3.576   4.784
11282WAT      O34087   2.369   7.137   1.289
11282WAT     H134088   2.358   7.090   1.376
11282WAT     H234089   2.286   7.126   1.234
11283WAT      O34090   9.436   8.051   1.696
11283WAT     H134091   9.418   8.150   1.703
11283WAT     H234092   9.516   8.036   1.639
11284WAT      O34093   0.331   3.963   1.736
11284WAT     H134094   0.333   4.059   1.764
11284WAT     H234095   0.418   3.938   1.694
11285WAT      O34096   4.885   7.219   1.843
11285WAT     H134097   4.800   7.222   1.895
11285WAT     H234098   4.962   7.211   1.906
11286WAT      O34099   5.100   5.959   7.793
11286WAT     H134100   5.108   6.016   7.874
11286WAT     H234101   5.059   5.871   7.817
11287WAT      O34102   6.731   0.565   2.779
11287WAT     H134103   6.677   0.572   2.696
11287WAT     H234104   6.675   0.590   2.858
11288WAT      O34105   3.901   5.278   1.077
11288WAT     H134106   3.972   5.332   1.122
11288WAT     H234107   3.938   5.239   0.993
11289WAT      O34108   4.397   8.421   2.198
11289WAT     H134109   4.402   8.506   2.146
11289WAT     H234110   4.429   8.437   2.291
11290WAT      O34111   3.392   1.462   5.022
11290WAT     H134112   3.456   1.406   4.971
11290WAT     H234113   3.412   1.559   5.006
11291WAT      O34114   0.771   2.014   7.354
11291WAT     H134115   0.689   2.065   7.331
11291WAT     H234116   0.757   1.917   7.333
11292WAT      O34117   8.606   1.247   1.194
11292WAT     H134118   8.611   1.161   1.143
11292WAT     H234119   8.542   1.309   1.149
11293WAT      O34120   1.839   4.148   6.986
11293WAT     H134121   1.859   4.096   7.069
11293WAT     H234122   1.862   4.244   7.001
11294WAT      O34123   4.894   5.737   1.029
11294WAT     H134124   4.810   5.784   1.000
11294WAT     H234125   4.870   5.656   1.083
11295WAT      O34126   3.122   1.471   0.626
11295WAT     H134127   3.045   1.530   0.654
11295WAT     H234128   3.196   1.479   0.693
11296WAT      O34129   6.630   9.707   2.155
11296WAT     H134130   6.545   9.758   2.147
11296WAT     H234131   6.708   9.770   2.157
11297WAT      O34132   0.874   5.962   8.140
11297WAT     H134133   0.862   5.929   8.047
11297WAT     H234134   0.924   5.895   8.194
11298WAT      O34135   5.777   4.691   8.314
11298WAT     H134136   5.777   4.700   8.414
11298WAT     H234137   5.708   4.623   8.287
11299WAT      O34138   3.777   5.520   0.800
11299WAT     H134139   3.866   5.514   0.846
11299WAT     H234140   3.741   5.613   0.807
11300WAT      O34141   5.594   2.446   0.017
11300WAT     H134142   5.608   2.513  -0.055
11300WAT     H234143   5.496   2.439   0.037
11301WAT      O34144   1.790   2.638   0.686
11301WAT     H134145   1.738   2.705   0.632
11301WAT     H234146   1.737   2.612   0.767
11302WAT      O34147   1.892   2.763   7.653
11302WAT     H134148   1.818   2.783   7.589
11302WAT     H234149   1.856   2.760   7.746
11303WAT      O34150   5.724   3.757   7.936
11303WAT     H134151   5.768   3.667   7.936
11303WAT     H234152   5.794   3.828   7.930
11304WAT      O34153   5.880   8.762   7.335
11304WAT     H134154   5.839   8.675   7.309
11304WAT     H234155   5.866   8.778   7.432
11305WAT      O34156   1.918   8.372   0.141
11305WAT     H134157   1.880   8.380   0.049
11305WAT     H234158   1.971   8.454   0.162
11306WAT      O34159   2.097   9.663   1.323
11306WAT     H134160   2.017   9.641   1.267
11306WAT     H234161   2.178   9.664   1.265
11307WAT      O34162   0.050   9.717   1.807
11307WAT     H134163   0.090   9.682   1.723
11307WAT     H234164   0.005   9.805   1.790
11308WAT      O34165   0.794   6.624   6.783
11308WAT     H134166   0.717   6.666   6.736
11308WAT     H234167   0.782   6.524   6.783
11309WAT      O34168   9.237   3.211   8.770
11309WAT     H134169   9.218   3.261   8.686
11309WAT     H234170   9.295   3.132   8.750
11310WAT      O34171   0.370   8.776   4.890
11310WAT     H134172   0.463   8.741   4.900
11310WAT     H234173   0.368   8.850   4.824
11311WAT      O34174   9.345   1.827   3.116
11311WAT     H134175   9.355   1.854   3.212
11311WAT     H234176   9.278   1.887   3.071
11312WAT      O34177   9.587   8.573   4.778
11312WAT     H134178   9.515   8.517   4.817
11312WAT     H234179   9.650   8.515   4.725
11313WAT      O34180   7.057   4.807   6.029
11313WAT     H134181   7.155   4.808   6.015
11313WAT     H234182   7.037   4.802   6.127
11314WAT      O34183   0.601   3.116   3.604
11314WAT     H134184   0.549   3.100   3.688
11314WAT     H234185   0.552   3.075   3.526
11315WAT      O34186   0.831   3.754   2.716
11315WAT     H134187   0.777   3.807   2.651
11315WAT     H234188   0.775   3.682   2.757
11316WAT      O34189   6.068   7.280   7.310
11316WAT     H134190   6.096   7.187   7.286
11316WAT     H234191   6.042   7.284   7.406
11317WAT      O34192   5.666   2.384   1.092
11317WAT     H134193   5.695   2.298   1.134
11317WAT     H234194   5.670   2.457   1.161
11318WAT      O34195   7.856   3.861   0.920
11318WAT     H134196   7.851   3.782   0.860
11318WAT     H234197   7.775   3.919   0.906
11319WAT      O34198   1.549   5.675   7.835
11319WAT     H134199   1.620   5.635   7.892
11319WAT     H234200   1.499   5.602   7.788
11320WAT      O34201   4.679   7.273   6.059
11320WAT     H134202   4.712   7.355   6.011
11320WAT     H234203   4.640   7.210   5.992
11321WAT      O34204   2.410   6.738   0.386
11321WAT     H134205   2.448   6.827   0.412
11321WAT     H234206   2.465   6.665   0.426
11322WAT      O34207   7.351   1.042   4.838
11322WAT     H134208   7.296   1.118   4.873
11322WAT     H234209   7.438   1.078   4.803
11323WAT      O34210   4.846   6.186   6.946
11323WAT     H134211   4.924   6.226   6.993
11323WAT     H234212   4.867   6.174   6.849
11324WAT      O34213   7.558   6.316   6.289
11324WAT     H134214   7.623   6.336   6.215
11324WAT     H234215   7.504   6.397   6.308
11325WAT      O34216   3.881   5.795   2.949
11325WAT     H134217   3.819   5.874   2.951
11325WAT     H234218   3.830   5.712   2.973
11326WAT      O34219   8.809   1.279   9.443
11326WAT     H134220   8.839   1.372   9.422
11326WAT     H234221   8.882   1.229   9.488
11327WAT      O34222   3.903   3.074   3.259
11327WAT     H134223   3.901   3.170   3.231
11327WAT     H234224   3.965   3.023   3.200
11328WAT      O34225   7.647   8.113   4.543
11328WAT     H134226   7.640   8.144   4.448
11328WAT     H234227   7.624   8.016   4.548
11329WAT      O34228   1.497   2.906   0.026
11329WAT     H134229   1.530   2.837  -0.038
11329WAT     H234230   1.531   2.996  -0.002
11330WAT      O34231   5.690   4.982   0.877
11330WAT     H134232   5.760   5.003   0.945
11330WAT     H234233   5.683   5.057   0.812
11331WAT      O34234   8.766   2.266   7.431
11331WAT     H134235   8.782   2.175   7.394
11331WAT     H234236   8.839   2.290   7.495
11332WAT      O34237   1.732   3.657   5.687
11332WAT     H134238   1.792   3.577   5.687
11332WAT     H234239   1.705   3.678   5.781
11333WAT      O34240   6.318   9.801   4.779
11333WAT     H134241   6.331   9.841   4.688
11333WAT     H234242   6.300   9.873   4.845
11334WAT      O34243   1.993   4.082   7.442
11334WAT     H134244   2.043   4.070   7.527
11334WAT     H234245   2.052   4.124   7.373
11335WAT      O34246   4.334   9.199   4.952
11335WAT     H134247   4.310   9.263   5.024
11335WAT     H234248   4.339   9.248   4.864
11336WAT      O34249   4.218   8.595   7.797
11336WAT     H134250   4.264   8.612   7.884
11336WAT     H234251   4.203   8.681   7.749
11337WAT      O34252   3.478   0.754   0.318
11337WAT     H134253   3.426   0.754   0.404
11337WAT     H234254   3.506   0.847   0.296
11338WAT      O34255   1.235   2.461   2.574
11338WAT     H134256   1.173   2.393   2.536
11338WAT     H234257   1.188   2.549   2.583
11339WAT      O34258   6.138   5.545   3.052
11339WAT     H134259   6.096   5.507   3.134
11339WAT     H234260   6.237   5.555   3.066
11340WAT      O34261   5.059   1.438   2.075
11340WAT     H134262   5.094   1.370   2.141
11340WAT     H234263   4.981   1.485   2.115
11341WAT      O34264   1.501   2.506   4.878
11341WAT     H134265   1.552   2.516   4.793
11341WAT     H234266   1.545   2.437   4.936
11342WAT      O34267   4.940   0.749   7.918
11342WAT     H134268   4.866   0.746   7.986
11342WAT     H234269   4.992   0.664   7.922
11343WAT      O34270   1.185   1.711   8.473
11343WAT     H134271   1.172   1.642   8.403
11343WAT     H234272   1.254   1.777   8.443
11344WAT      O34273   2.006   7.130   0.038
11344WAT     H134274   2.016   7.033   0.016
11344WAT     H234275   1.916   7.147   0.077
11345WAT      O34276   7.339   7.651   7.879
11345WAT     H134277   7.347   7.745   7.910
11345WAT     H234278   7.420   7.625   7.826
11346WAT      O34279   5.336   2.430   1.790
11346WAT     H134280   5.288   2.383   1.717
11346WAT     H234281   5.389   2.364   1.844
11347WAT      O34282   7.530   4.746   6.877
11347WAT     H134283   7.469   4.672   6.850
11347WAT     H234284   7.540   4.811   6.802
11348WAT      O34285   5.473   9.805   5.824
11348WAT     H134286   5.462   9.803   5.924
11348WAT     H234287   5.535   9.880   5.800
11349WAT      O34288   6.753   2.369   3.398
11349WAT     H134289   6.779   2.465   3.390
11349WAT     H234290   6.719   2.351   3.490
11350WAT      O34291   6.037   1.000   0.395
11350WAT     H134292   5.998   1.087   0.365
11350WAT     H234293   5.974   0.955   0.459
11351WAT      O34294   0.255   9.762   7.298
11351WAT     H134295   0.355   9.751   7.303
11351WAT     H234296   0.211   9.688   7.348
11352WAT      O34297   8.196   2.057   3.194
11352WAT     H134298   8.172   2.144   3.151
11352WAT     H234299   8.148   1.982   3.147
11353WAT      O34300   7.829   2.336   1.881
11353WAT     H134301   7.762   2.360   1.810
11353WAT     H234302   7.902   2.281   1.840
11354WAT      O34303   1.730   7.735   7.585
11354WAT     H134304   1.732   7.648   7.534
11354WAT     H234305   1.824   7.765   7.603
11355WAT      O34306   1.837   8.532   4.566
11355WAT     H134307   1.902   8.456   4.570
11355WAT     H234308   1.882   8.612   4.528
11356WAT      O34309   0.756   5.022   6.146
11356WAT     H134310   0.693   4.986   6.215
11356WAT     H234311   0.775   5.118   6.165
11357WAT      O34312   5.123   0.096   2.119
11357WAT     H134313   5.174   0.090   2.033
11357WAT     H234314   5.175   0.050   2.192
11358WAT      O34315   1.888   0.347   1.188
11358WAT     H134316   1.809   0.359   1.248
11358WAT     H234317   1.970   0.334   1.244
11359WAT      O34318   2.692   4.720   0.724
11359WAT     H134319   2.762   4.792   0.727
11359WAT     H234320   2.622   4.744   0.658
11360WAT      O34321   8.452   9.747   2.660
11360WAT     H134322   8.439   9.714   2.567
11360WAT     H234323   8.388   9.823   2.677
11361WAT      O34324   5.481   5.814   4.399
11361WAT     H134325   5.442   5.751   4.466
11361WAT     H234326   5.578   5.794   4.387
11362WAT      O34327   1.686   1.170   9.648
11362WAT     H134328   1.590   1.145   9.659
11362WAT     H234329   1.702   1.260   9.689
11363WAT      O34330   4.229   9.814   0.992
11363WAT     H134331   4.232   9.880   0.917
11363WAT     H234332   4.246   9.722   0.956
11364WAT      O34333   2.779   8.597   5.931
11364WAT     H134334   2.694   8.549   5.911
11364WAT     H234335   2.760   8.674   5.992
11365WAT      O34336   3.177   4.194   4.187
11365WAT     H134337   3.141   4.287   4.177
11365WAT     H234338   3.192   4.154   4.097
11366WAT      O34339   8.109   3.232   6.832
11366WAT     H134340   8.205   3.207   6.843
11366WAT     H234341   8.093   3.261   6.738
11367WAT      O34342   2.418   5.346   4.989
11367WAT     H134343   2.398   5.373   4.895
11367WAT     H234344   2.338   5.363   5.047
11368WAT      O34345   9.426   6.370   1.880
11368WAT     H134346   9.438   6.436   1.954
11368WAT     H234347   9.431   6.417   1.792
11369WAT      O34348   4.263   5.868   1.964
11369WAT     H134349   4.295   5.854   1.870
11369WAT     H234350   4.264   5.780   2.012
11370WAT      O34351   4.756   7.484   5.910
11370WAT     H134352   4.792   7.411   5.851
11370WAT     H234353   4.814   7.565   5.903
11371WAT      O34354   1.926   2.019   4.578
11371WAT     H134355   1.851   1.955   4.563
11371WAT     H234356   2.012   1.979   4.544
11372WAT      O34357   5.172   1.398   9.641
11372WAT     H134358   5.218   1.409   9.553
11372WAT     H234359   5.213   1.459   9.708
11373WAT      O34360   6.276   2.059   9.569
11373WAT     H134361   6.243   1.970   9.541
11373WAT     H234362   6.318   2.106   9.492
11374WAT      O34363   3.920   3.987   8.879
11374WAT     H134364   3.899   4.083   8.898
11374WAT     H234365   3.896   3.965   8.785
11375WAT      O34366   0.313   9.598   3.423
11375WAT     H134367   0.383   9.658   3.461
11375WAT     H234368   0.223   9.629   3.453
11376WAT      O34369   4.606   9.056   0.122
11376WAT     H134370   4.662   9.121   0.071
11376WAT     H234371   4.510   9.084   0.118
11377WAT      O34372   0.959   5.634   7.506
11377WAT     H134373   0.910   5.682   7.578
11377WAT     H234374   0.937   5.674   7.417
11378WAT      O34375   9.652   8.544   7.029
11378WAT     H134376   9.610   8.519   6.942
11378WAT     H234377   9.672   8.642   7.030
11379WAT      O34378   1.525   5.151   0.624
11379WAT     H134379   1.565   5.068   0.586
11379WAT     H234380   1.594   5.198   0.680
11380WAT      O34381   1.573   5.213   7.628
11380WAT     H134382   1.572   5.299   7.679
11380WAT     H234383   1.481   5.194   7.593
11381WAT      O34384   8.236   6.129   0.334
11381WAT     H134385   8.169   6.200   0.313
11381WAT     H234386   8.266   6.085   0.249
11382WAT      O34387   8.216   8.172   7.288
11382WAT     H134388   8.131   8.120   7.294
11382WAT     H234389   8.268   8.143   7.208
11383WAT      O34390   6.363   8.183   7.729
11383WAT     H134391   6.363   8.281   7.712
11383WAT     H234392   6.428   8.139   7.667
11384WAT      O34393   2.879   8.808   5.453
11384WAT     H134394   2.798   8.857   5.420
11384WAT     H234395   2.895   8.832   5.548
11385WAT      O34396   0.733   3.809   0.498
11385WAT     H134397   0.646   3.805   0.548
11385WAT     H234398   0.741   3.897   0.451
11386WAT      O34399   0.857   9.384   1.456
11386WAT     H134400   0.867   9.296   1.409
11386WAT     H234401   0.947   9.426   1.467
11387WAT      O34402   7.722   9.658   4.973
11387WAT     H134403   7.772   9.684   4.891
11387WAT     H234404   7.666   9.578   4.955
11388WAT      O34405   3.200   2.440   7.053
11388WAT     H134406   3.145   2.523   7.066
11388WAT     H234407   3.147   2.373   7.001
11389WAT      O34408   9.618   1.922   6.230
11389WAT     H134409   9.682   1.862   6.182
11389WAT     H234410   9.541   1.867   6.263
11390WAT      O34411   3.855   3.846   8.654
11390WAT     H134412   3.800   3.778   8.701
11390WAT     H234413   3.935   3.802   8.613
11391WAT      O34414   6.328   9.773   5.368
11391WAT     H134415   6.427   9.775   5.353
11391WAT     H234416   6.305   9.836   5.442
11392WAT      O34417   1.680   2.666   8.915
11392WAT     H134418   1.713   2.745   8.865
11392WAT     H234419   1.696   2.679   9.013
11393WAT      O34420   9.362   8.649   5.256
11393WAT     H134421   9.442   8.643   5.196
11393WAT     H234422   9.303   8.724   5.225
11394WAT      O34423   9.318   0.246   5.384
11394WAT     H134424   9.239   0.306   5.373
11394WAT     H234425   9.286   0.152   5.399
11395WAT      O34426   6.513   1.510   9.844
11395WAT     H134427   6.547   1.566   9.768
11395WAT     H234428   6.579   1.512   9.918
11396WAT      O34429   5.623   4.720   5.974
11396WAT     H134430   5.590   4.814   5.984
11396WAT     H234431   5.616   4.692   5.879
11397WAT      O34432   8.900   6.015   9.113
11397WAT     H134433   8.872   6.095   9.166
11397WAT     H234434   8.889   6.035   9.015
11398WAT      O34435   8.558   6.322   9.379
11398WAT     H134436   8.548   6.420   9.365
11398WAT     H234437   8.520   6.297   9.469
11399WAT      O34438   5.850   6.665   2.456
11399WAT     H134439   5.796   6.707   2.383
11399WAT     H234440   5.797   6.667   2.541
11400WAT      O34441   1.935   3.891   8.352
11400WAT     H134442   1.852   3.900   8.407
11400WAT     H234443   1.914   3.913   8.257
11401WAT      O34444   9.864   4.893   0.791
11401WAT     H134445   9.805   4.815   0.811
11401WAT     H234446   9.899   4.886   0.697
11402WAT      O34447   6.646   8.488   2.542
11402WAT     H134448   6.608   8.413   2.596
11402WAT     H234449   6.578   8.560   2.530
11403WAT      O34450   2.722   0.514   6.779
11403WAT     H134451   2.752   0.607   6.800
11403WAT     H234452   2.626   0.514   6.755
11404WAT      O34453   9.473   0.840   8.107
11404WAT     H134454   9.510   0.864   8.017
11404WAT     H234455   9.537   0.779   8.155
11405WAT      O34456   6.214   5.569   1.102
11405WAT     H134457   6.153   5.649   1.099
11405WAT     H234458   6.167   5.494   1.148
11406WAT      O34459   8.587   2.840   2.140
11406WAT     H134460   8.563   2.751   2.179
11406WAT     H234461   8.602   2.830   2.042
11407WAT      O34462   7.376   5.646   5.845
11407WAT     H134463   7.418   5.556   5.834
11407WAT     H234464   7.281   5.636   5.874
11408WAT      O34465   3.428   8.608   7.318
11408WAT     H134466   3.453   8.575   7.409
11408WAT     H234467   3.443   8.535   7.251
11409WAT      O34468   8.575   6.332   2.214
11409WAT     H134469   8.511   6.265   2.251
11409WAT     H234470   8.537   6.375   2.133
11410WAT      O34471   1.345   1.307   8.001
11410WAT     H134472   1.255   1.263   8.010
11410WAT     H234473   1.393   1.301   8.089
11411WAT      O34474   1.512   7.695   5.265
11411WAT     H134475   1.577   7.695   5.341
11411WAT     H234476   1.464   7.607   5.263
11412WAT      O34477   8.985   5.227   6.179
11412WAT     H134478   8.888   5.204   6.185
11412WAT     H234479   9.038   5.144   6.162
11413WAT      O34480   3.355   9.435   8.530
11413WAT     H134481   3.432   9.373   8.516
11413WAT     H234482   3.315   9.419   8.620
11414WAT      O34483   6.283   2.302   4.854
11414WAT     H134484   6.381   2.303   4.832
11414WAT     H234485   6.256   2.211   4.885
11415WAT      O34486   5.564   0.395   2.803
11415WAT     H134487   5.567   0.411   2.704
11415WAT     H234488   5.507   0.465   2.846
11416WAT      O34489   9.078   7.495   0.769
11416WAT     H134490   9.133   7.578   0.770
11416WAT     H234491   9.138   7.415   0.759
11417WAT      O34492   3.803   8.706   1.438
11417WAT     H134493   3.801   8.742   1.531
11417WAT     H234494   3.888   8.734   1.393
11418WAT      O34495   9.587   5.945   8.546
11418WAT     H134496   9.567   5.879   8.618
11418WAT     H234497   9.648   6.016   8.581
11419WAT      O34498   7.950   7.763   3.533
11419WAT     H134499   7.992   7.838   3.585
11419WAT     H234500   7.910   7.800   3.449
11420WAT      O34501   2.014   7.855   1.698
11420WAT     H134502   1.952   7.852   1.776
11420WAT     H234503   2.080   7.779   1.705
11421WAT      O34504   6.959   7.725   0.509
11421WAT     H134505   7.057   7.727   0.490
11421WAT     H234506   6.916   7.653   0.454
11422WAT      O34507   7.950   5.752   9.539
11422WAT     H134508   7.917   5.807   9.462
11422WAT     H234509   7.897   5.774   9.621
11423WAT      O34510   4.715   5.044   9.600
11423WAT     H134511   4.788   5.059   9.533
11423WAT     H234512   4.750   4.987   9.675
11424WAT      O34513   6.585   4.985   2.262
11424WAT     H134514   6.514   4.916   2.264
11424WAT     H234515   6.620   4.995   2.169
11425WAT      O34516   4.067   5.156   0.849
11425WAT     H134517   4.031   5.146   0.757
11425WAT     H234518   4.068   5.066   0.894
11426WAT      O34519   8.707   1.695   1.383
11426WAT     H134520   8.799   1.672   1.351
11426WAT     H234521   8.708   1.709   1.482
11427WAT      O34522   4.054   1.725   3.340
11427WAT     H134523   4.108   1.666   3.279
11427WAT     H234524   3.960   1.691   3.344
11428WAT      O34525   9.798   8.444   4.165
11428WAT     H134526   9.717   8.456   4.108
11428WAT     H234527   9.880   8.448   4.107
11429WAT      O34528   2.794   8.043   2.402
11429WAT     H134529   2.848   8.042   2.318
11429WAT     H234530   2.701   8.071   2.381
11430WAT      O34531   5.960   3.126   0.679
11430WAT     H134532   6.016   3.127   0.596
11430WAT     H234533   5.997   3.061   0.744
11431WAT      O34534   0.663   7.849   0.002
11431WAT     H134535   0.604   7.846   0.083
11431WAT     H234536   0.625   7.912  -0.065
11432WAT      O34537   8.495   0.048   5.411
11432WAT     H134538   8.536   0.049   5.320
11432WAT     H234539   8.466  -0.045   5.434
11433WAT      O34540   5.782   2.515   8.833
11433WAT     H134541   5.779   2.451   8.756
11433WAT     H234542   5.705   2.579   8.827
11434WAT      O34543   2.267   8.670   2.708
11434WAT     H134544   2.289   8.764   2.733
11434WAT     H234545   2.177   8.645   2.743
11435WAT      O34546   7.606   5.562   1.030
11435WAT     H134547   7.539   5.634   1.011
11435WAT     H234548   7.670   5.554   0.953
11436WAT      O34549   9.012   5.290   0.521
11436WAT     H134550   9.094   5.233   0.524
11436WAT     H234551   9.003   5.342   0.606
11437WAT      O34552   6.111   8.399   4.283
11437WAT     H134553   6.182   8.333   4.259
11437WAT     H234554   6.140   8.491   4.255
11438WAT      O34555   6.848   4.074   8.869
11438WAT     H134556   6.834   3.978   8.842
11438WAT     H234557   6.759   4.117   8.886
11439WAT      O34558   2.933   5.192   5.755
11439WAT     H134559   2.840   5.171   5.725
11439WAT     H234560   2.949   5.291   5.749
11440WAT      O34561   6.151   9.570   8.713
11440WAT     H134562   6.237   9.611   8.685
11440WAT     H234563   6.111   9.622   8.788
11441WAT      O34564   2.397   5.742   8.192
11441WAT     H134565   2.473   5.734   8.256
11441WAT     H234566   2.423   5.801   8.115
11442WAT      O34567   5.325   6.578   8.497
11442WAT     H134568   5.281   6.668   8.489
11442WAT     H234569   5.315   6.545   8.591
11443WAT      O34570   4.781   3.128   3.280
11443WAT     H134571   4.686   3.134   3.310
11443WAT     H234572   4.816   3.036   3.297
11444WAT      O34573   8.573   6.240   0.173
11444WAT     H134574   8.594   6.262   0.078
11444WAT     H234575   8.485   6.281   0.198
11445WAT      O34576   9.108   7.880   2.995
11445WAT     H134577   9.153   7.935   2.924
11445WAT     H234578   9.094   7.788   2.960
11446WAT      O34579   0.168   9.227   3.866
11446WAT     H134580   0.199   9.224   3.770
11446WAT     H234581   0.068   9.228   3.869
11447WAT      O34582   9.513   0.496   3.725
11447WAT     H134583   9.494   0.509   3.628
11447WAT     H234584   9.611   0.486   3.739
11448WAT      O34585   9.049   7.193   5.724
11448WAT     H134586   8.988   7.256   5.771
11448WAT     H234587   9.137   7.237   5.709
11449WAT      O34588   8.269   5.625   0.600
11449WAT     H134589   8.312   5.642   0.689
11449WAT     H234590   8.241   5.711   0.559
11450WAT      O34591   8.681   2.772   7.444
11450WAT     H134592   8.647   2.705   7.378
11450WAT     H234593   8.707   2.855   7.396
11451WAT      O34594   9.827   0.705   9.172
11451WAT     H134595   9.897   0.757   9.123
11451WAT     H234596   9.867   0.664   9.254
11452WAT      O34597   3.739   1.416   2.641
11452WAT     H134598   3.717   1.388   2.735
11452WAT     H234599   3.655   1.421   2.587
11453WAT      O34600   6.940   5.992   1.228
11453WAT     H134601   6.898   5.915   1.276
11453WAT     H234602   6.951   5.970   1.132
11454WAT      O34603   8.129   8.071   3.906
11454WAT     H134604   8.140   8.171   3.901
11454WAT     H234605   8.081   8.048   3.991
11455WAT      O34606   3.917   6.534   9.495
11455WAT     H134607   3.846   6.603   9.513
11455WAT     H234608   3.907   6.500   9.401
11456WAT      O34609   0.249   4.171   7.697
11456WAT     H134610   0.216   4.078   7.679
11456WAT     H234611   0.348   4.169   7.713
11457WAT      O34612   2.524   7.701   0.131
11457WAT     H134613   2.594   7.633   0.152
11457WAT     H234614   2.439   7.655   0.103
11458WAT      O34615   1.891   2.582   0.136
11458WAT     H134616   1.901   2.548   0.042
11458WAT     H234617   1.883   2.504   0.199
11459WAT      O34618   6.798   5.831   9.239
11459WAT     H134619   6.737   5.868   9.309
11459WAT     H234620   6.828   5.904   9.178
11460WAT      O34621   1.634   5.995   9.374
11460WAT     H134622   1.563   5.985   9.444
11460WAT     H234623   1.715   5.943   9.402
11461WAT      O34624   7.898   5.134   9.736
11461WAT     H134625   7.973   5.071   9.756
11461WAT     H234626   7.895   5.204   9.808
11462WAT      O34627   4.748   7.549   9.070
11462WAT     H134628   4.827   7.569   9.012
11462WAT     H234629   4.765   7.463   9.119
11463WAT      O34630   2.439   1.166   0.533
11463WAT     H134631   2.380   1.231   0.579
11463WAT     H234632   2.476   1.207   0.450
11464WAT      O34633   5.556   8.548   1.175
11464WAT     H134634   5.507   8.468   1.139
11464WAT     H234635   5.545   8.625   1.112
11465WAT      O34636   0.521   0.872   6.379
11465WAT     H134637   0.608   0.823   6.375
11465WAT     H234638   0.452   0.814   6.423
11466WAT      O34639   9.234   4.972   3.365
11466WAT     H134640   9.182   5.058   3.373
11466WAT     H234641   9.232   4.941   3.270
11467WAT      O34642   2.069   3.471   1.866
11467WAT     H134643   2.060   3.520   1.952
11467WAT     H234644   2.147   3.408   1.871
11468WAT      O34645   1.220   8.193   8.950
11468WAT     H134646   1.148   8.126   8.935
11468WAT     H234647   1.282   8.193   8.871
11469WAT      O34648   0.834   5.139   3.538
11469WAT     H134649   0.882   5.116   3.623
11469WAT     H234650   0.740   5.163   3.559
11470WAT      O34651   0.305   0.925   6.145
11470WAT     H134652   0.259   0.886   6.225
11470WAT     H234653   0.404   0.924   6.160
11471WAT      O34654   2.954   5.992   5.267
11471WAT     H134655   2.925   6.087   5.258
11471WAT     H234656   3.023   5.986   5.339
11472WAT      O34657   6.699   5.169   4.082
11472WAT     H134658   6.735   5.262   4.079
11472WAT     H234659   6.604   5.171   4.112
11473WAT      O34660   3.067   2.982   9.804
11473WAT     H134661   3.139   2.991   9.735
11473WAT     H234662   3.107   2.946   9.888
11474WAT      O34663   4.191   1.581   9.643
11474WAT     H134664   4.176   1.484   9.660
11474WAT     H234665   4.147   1.607   9.557
11475WAT      O34666   8.054   2.340   3.399
11475WAT     H134667   8.072   2.261   3.457
11475WAT     H234668   7.967   2.328   3.351
11476WAT      O34669   3.439   8.450   4.054
11476WAT     H134670   3.438   8.397   3.969
11476WAT     H234671   3.436   8.548   4.032
11477WAT      O34672   0.515   2.012   3.204
11477WAT     H134673   0.527   2.025   3.302
11477WAT     H234674   0.439   1.949   3.188
11478WAT      O34675   3.091   5.895   3.336
11478WAT     H134676   3.130   5.986   3.355
11478WAT     H234677   3.054   5.893   3.243
11479WAT      O34678   5.352   2.587   1.491
11479WAT     H134679   5.438   2.549   1.526
11479WAT     H234680   5.287   2.598   1.566
11480WAT      O34681   5.925   0.092   6.990
11480WAT     H134682   5.943   0.055   7.081
11480WAT     H234683   5.933   0.192   6.993
11481WAT      O34684   0.441   3.841   7.327
11481WAT     H134685   0.519   3.902   7.311
11481WAT     H234686   0.370   3.860   7.259
11482WAT      O34687   4.053   0.649   0.176
11482WAT     H134688   4.083   0.617   0.266
11482WAT     H234689   4.038   0.571   0.116
11483WAT      O34690   2.554   2.580   1.562
11483WAT     H134691   2.636   2.527   1.540
11483WAT     H234692   2.504   2.600   1.478
11484WAT      O34693   7.200   1.356   0.613
11484WAT     H134694   7.275   1.373   0.677
11484WAT     H234695   7.226   1.284   0.549
11485WAT      O34696   1.130   8.921   9.009
11485WAT     H134697   1.198   8.982   8.968
11485WAT     H234698   1.114   8.948   9.104
11486WAT      O34699   1.155   2.768   5.197
11486WAT     H134700   1.132   2.838   5.129
11486WAT     H234701   1.213   2.699   5.154
11487WAT      O34702   2.437   4.754   8.761
11487WAT     H134703   2.430   4.851   8.737
11487WAT     H234704   2.346   4.714   8.766
11488WAT      O34705   5.036   2.719   0.539
11488WAT     H134706   5.087   2.665   0.472
11488WAT     H234707   5.093   2.793   0.573
11489WAT      O34708   1.709   3.982   1.576
11489WAT     H134709   1.772   3.977   1.499
11489WAT     H234710   1.757   4.018   1.657
11490WAT      O34711   2.651   2.371   4.593
11490WAT     H134712   2.586   2.313   4.543
11490WAT     H234713   2.723   2.401   4.530
11491WAT      O34714   5.171   2.717   3.658
11491WAT     H134715   5.096   2.773   3.625
11491WAT     H234716   5.250   2.775   3.679
11492WAT      O34717   0.781   0.944   6.163
11492WAT     H134718   0.720   0.943   6.084
11492WAT     H234719   0.749   0.880   6.232
11493WAT      O34720   0.058   6.444   2.661
11493WAT     H134721   0.043   6.347   2.680
11493WAT     H234722   0.147   6.472   2.697
11494WAT      O34723   6.234   4.098   0.128
11494WAT     H134724   6.296   4.020   0.124
11494WAT     H234725   6.161   4.078   0.194
11495WAT      O34726   2.910   8.724   1.920
11495WAT     H134727   2.920   8.770   2.008
11495WAT     H234728   2.964   8.641   1.919
11496WAT      O34729   5.274   4.439   3.195
11496WAT     H134730   5.214   4.361   3.213
11496WAT     H234731   5.219   4.516   3.161
11497WAT      O34732   0.505   5.452   0.530
11497WAT     H134733   0.514   5.357   0.501
11497WAT     H234734   0.507   5.511   0.450
11498WAT      O34735   5.365   5.666   4.750
11498WAT     H134736   5.437   5.599   4.769
11498WAT     H234737   5.388   5.752   4.794
11499WAT      O34738   9.235   9.322   0.809
11499WAT     H134739   9.193   9.408   0.840
11499WAT     H234740   9.274   9.274   0.888
11500WAT      O34741   3.720   7.418   3.637
11500WAT     H134742   3.680   7.496   3.589
11500WAT     H234743   3.648   7.356   3.667
11501WAT      O34744   2.849   1.176   4.962
11501WAT     H134745   2.907   1.225   4.898
11501WAT     H234746   2.872   1.204   5.056
11502WAT      O34747   5.118   7.331   7.902
11502WAT     H134748   5.122   7.334   7.802
11502WAT     H234749   5.211   7.336   7.940
11503WAT      O34750   6.306   0.309   7.401
11503WAT     H134751   6.272   0.219   7.428
11503WAT     H234752   6.300   0.372   7.479
11504WAT      O34753   8.618   2.067   6.953
11504WAT     H134754   8.715   2.090   6.954
11504WAT     H234755   8.571   2.111   7.029
11505WAT      O34756   6.189   1.579   4.075
11505WAT     H134757   6.107   1.633   4.091
11505WAT     H234758   6.169   1.508   4.007
11506WAT      O34759   2.902   7.100   1.165
11506WAT     H134760   2.811   7.061   1.152
11506WAT     H234761   2.894   7.199   1.180
11507WAT      O34762   4.757   8.276   9.812
11507WAT     H134763   4.833   8.341   9.812
11507WAT     H234764   4.671   8.325   9.825
11508WAT      O34765   2.453   3.084   9.412
11508WAT     H134766   2.368   3.128   9.381
11508WAT     H234767   2.441   2.985   9.410
11509WAT      O34768   4.714   3.073   4.526
11509WAT     H134769   4.621   3.077   4.562
11509WAT     H234770   4.713   3.027   4.437
11510WAT      O34771   2.422   3.155   6.472
11510WAT     H134772   2.351   3.134   6.405
11510WAT     H234773   2.512   3.141   6.430
11511WAT      O34774   6.777   5.535   1.034
11511WAT     H134775   6.731   5.577   1.112
11511WAT     H234776   6.782   5.600   0.958
11512WAT      O34777   2.986   4.883   6.515
11512WAT     H134778   3.004   4.982   6.518
11512WAT     H234779   2.999   4.844   6.605
11513WAT      O34780   7.156   7.033   8.579
11513WAT     H134781   7.142   6.941   8.616
11513WAT     H234782   7.068   7.080   8.572
11514WAT      O34783   4.287   3.880   0.865
11514WAT     H134784   4.370   3.900   0.916
11514WAT     H234785   4.311   3.850   0.772
11515WAT      O34786   0.780   6.090   7.466
11515WAT     H134787   0.683   6.069   7.452
11515WAT     H234788   0.830   6.007   7.489
11516WAT      O34789   3.508   2.160   2.457
11516WAT     H134790   3.476   2.104   2.533
11516WAT     H234791   3.438   2.164   2.386
11517WAT      O34792   0.734   6.419   0.715
11517WAT     H134793   0.733   6.383   0.621
11517WAT     H234794   0.641   6.443   0.742
11518WAT      O34795   7.731   8.371   9.675
11518WAT     H134796   7.642   8.324   9.672
11518WAT     H234797   7.802   8.310   9.640
11519WAT      O34798   9.780   4.729   2.082
11519WAT     H134799   9.770   4.815   2.032
11519WAT     H234800   9.854   4.737   2.149
11520WAT      O34801   5.832   9.454   5.385
11520WAT     H134802   5.906   9.514   5.356
11520WAT     H234803   5.868   9.381   5.443
11521WAT      O34804   1.963   1.149   9.165
11521WAT     H134805   1.956   1.220   9.095
11521WAT     H234806   1.899   1.169   9.239
11522WAT      O34807   2.212   5.222   9.010
11522WAT     H134808   2.166   5.211   8.921
11522WAT     H234809   2.229   5.319   9.027
11523WAT      O34810   9.317   2.907   7.578
11523WAT     H134811   9.336   2.895   7.676
11523WAT     H234812   9.339   3.001   7.551
11524WAT      O34813   1.218   7.226   0.533
11524WAT     H134814   1.165   7.310   0.517
11524WAT     H234815   1.293   7.220   0.467
11525WAT      O34816   6.603   5.050   6.662
11525WAT     H134817   6.524   5.075   6.606
11525WAT     H234818   6.586   5.075   6.757
11526WAT      O34819   3.337   6.455   4.969
11526WAT     H134820   3.316   6.397   5.048
11526WAT     H234821   3.370   6.544   5.000
11527WAT      O34822   9.302   0.911   3.765
11527WAT     H134823   9.265   0.967   3.840
11527WAT     H234824   9.311   0.817   3.796
11528WAT      O34825   2.998   2.865   3.492
11528WAT     H134826   2.963   2.890   3.582
11528WAT     H234827   2.931   2.889   3.422
11529WAT      O34828   5.498   4.092   9.290
11529WAT     H134829   5.500   4.114   9.387
11529WAT     H234830   5.444   4.009   9.275
11530WAT      O34831   7.061   5.424   0.491
11530WAT     H134832   7.139   5.416   0.551
11530WAT     H234833   6.978   5.442   0.545
11531WAT      O34834   6.300   7.280   3.327
11531WAT     H134835   6.320   7.219   3.251
11531WAT     H234836   6.223   7.244   3.379
11532WAT      O34837   3.148   0.094   6.426
11532WAT     H134838   3.053   0.091   6.459
11532WAT     H234839   3.209   0.121   6.501
11533WAT      O34840   0.279   7.159   0.618
11533WAT     H134841   0.302   7.251   0.584
11533WAT     H234842   0.206   7.167   0.686
11534WAT      O34843   3.510   3.959   4.054
11534WAT     H134844   3.601   3.952   4.096
11534WAT     H234845   3.504   3.895   3.977
11535WAT      O34846   2.272   2.704   5.530
11535WAT     H134847   2.249   2.728   5.436
11535WAT     H234848   2.302   2.609   5.533
11536WAT      O34849   5.661   2.848   3.353
11536WAT     H134850   5.743   2.832   3.408
11536WAT     H234851   5.684   2.906   3.275
11537WAT      O34852   8.938   6.821   5.199
11537WAT     H134853   8.993   6.865   5.270
11537WAT     H234854   8.991   6.748   5.156
11538WAT      O34855   2.513   4.735   9.856
11538WAT     H134856   2.414   4.743   9.863
11538WAT     H234857   2.556   4.789   9.928
11539WAT      O34858   9.064   3.535   3.200
11539WAT     H134859   9.089   3.618   3.151
11539WAT     H234860   8.974   3.504   3.170
11540WAT      O34861   0.546   1.851   5.481
11540WAT     H134862   0.530   1.938   5.435
11540WAT     H234863   0.546   1.776   5.414
11541WAT      O34864   3.962   3.767   5.737
11541WAT     H134865   3.875   3.721   5.749
11541WAT     H234866   3.956   3.861   5.773
11542WAT      O34867   0.426   0.200   8.009
11542WAT     H134868   0.367   0.141   8.065
11542WAT     H234869   0.386   0.291   8.004
11543WAT      O34870   9.725   1.692   4.417
11543WAT     H134871   9.646   1.636   4.390
11543WAT     H234872   9.722   1.708   4.516
11544WAT      O34873   5.589   2.045   3.313
11544WAT     H134874   5.575   2.139   3.281
11544WAT     H234875   5.534   2.030   3.395
11545WAT      O34876   0.187   1.392   5.564
11545WAT     H134877   0.198   1.388   5.663
11545WAT     H234878   0.132   1.316   5.532
11546WAT      O34879   9.129   4.464   9.441
11546WAT     H134880   9.101   4.454   9.345
11546WAT     H234881   9.112   4.558   9.471
11547WAT      O34882   6.689   4.479   2.096
11547WAT     H134883   6.612   4.488   2.159
11547WAT     H234884   6.656   4.443   2.009
11548WAT      O34885   1.190   3.668   0.454
11548WAT     H134886   1.241   3.667   0.368
11548WAT     H234887   1.120   3.739   0.450
11549WAT      O34888   0.873   5.745   4.798
11549WAT     H134889   0.862   5.822   4.735
11549WAT     H234890   0.884   5.779   4.891
11550WAT      O34891   0.099   9.500   0.162
11550WAT     H134892   0.100   9.542   0.253
11550WAT     H234893   0.099   9.401   0.171
11551WAT      O34894   1.352   3.584   5.661
11551WAT     H134895   1.377   3.513   5.596
11551WAT     H234896   1.390   3.562   5.751
11552WAT      O34897   3.297   3.323   6.962
11552WAT     H134898   3.304   3.409   7.012
11552WAT     H234899   3.388   3.283   6.950
11553WAT      O34900   4.709   8.797   3.155
11553WAT     H134901   4.681   8.794   3.251
11553WAT     H234902   4.805   8.769   3.148
11554WAT      O34903   7.956   3.103   8.473
11554WAT     H134904   7.986   3.153   8.391
11554WAT     H234905   7.858   3.117   8.486
11555WAT      O34906   0.433   3.441   9.662
11555WAT     H134907   0.408   3.537   9.652
11555WAT     H234908   0.445   3.400   9.572
11556WAT      O34909   0.197   6.985   8.106
11556WAT     H134910   0.243   7.020   8.024
11556WAT     H234911   0.115   6.935   8.079
11557WAT      O34912   8.910   3.748   9.161
11557WAT     H134913   9.007   3.726   9.149
11557WAT     H234914   8.901   3.838   9.203
11558WAT      O34915   7.354   6.729   4.604
11558WAT     H134916   7.401   6.816   4.619
11558WAT     H234917   7.349   6.711   4.505
11559WAT      O34918   5.985   5.576   6.665
11559WAT     H134919   5.943   5.662   6.695
11559WAT     H234920   5.921   5.527   6.605
11560WAT      O34921   6.187   4.516   9.538
11560WAT     H134922   6.144   4.544   9.452
11560WAT     H234923   6.221   4.597   9.586
11561WAT      O34924   9.279   2.589   7.713
11561WAT     H134925   9.359   2.545   7.673
11561WAT     H234926   9.212   2.608   7.642
11562WAT      O34927   8.594   3.160   3.928
11562WAT     H134928   8.663   3.190   3.862
11562WAT     H234929   8.574   3.234   3.992
11563WAT      O34930   1.857   7.498   6.179
11563WAT     H134931   1.868   7.596   6.165
11563WAT     H234932   1.761   7.478   6.200
11564WAT      O34933   6.774   3.874   6.530
11564WAT     H134934   6.716   3.913   6.458
11564WAT     H234935   6.811   3.947   6.586
11565WAT      O34936   3.899   5.837   7.862
11565WAT     H134937   3.867   5.922   7.905
11565WAT     H234938   3.827   5.768   7.869
11566WAT      O34939   8.680   6.848   2.280
11566WAT     H134940   8.720   6.788   2.349
11566WAT     H234941   8.752   6.902   2.237
11567WAT      O34942   0.726   9.200   0.784
11567WAT     H134943   0.744   9.236   0.693
11567WAT     H234944   0.722   9.100   0.781
11568WAT      O34945   1.908   5.965   6.867
11568WAT     H134946   1.874   6.056   6.891
11568WAT     H234947   2.003   5.955   6.896
11569WAT      O34948   9.289   1.169   6.700
11569WAT     H134949   9.191   1.184   6.717
11569WAT     H234950   9.330   1.253   6.666
11570WAT      O34951   9.839   3.382   8.414
11570WAT     H134952   9.745   3.378   8.380
11570WAT     H234953   9.875   3.474   8.401
11571WAT      O34954   5.669   4.145   4.959
11571WAT     H134955   5.726   4.182   4.886
11571WAT     H234956   5.602   4.081   4.919
11572WAT      O34957   7.913   7.461   3.269
11572WAT     H134958   7.900   7.548   3.222
11572WAT     H234959   7.992   7.467   3.329
11573WAT      O34960   0.333   4.784   6.704
11573WAT     H134961   0.240   4.751   6.688
11573WAT     H234962   0.339   4.826   6.794
11574WAT      O34963   9.081   6.274   0.459
11574WAT     H134964   9.139   6.302   0.536
11574WAT     H234965   9.030   6.353   0.425
11575WAT      O34966   2.971   0.109   6.680
11575WAT     H134967   2.934   0.199   6.657
11575WAT     H234968   2.991   0.104   6.778
11576WAT      O34969   2.998   4.243   0.571
11576WAT     H134970   2.909   4.256   0.615
11576WAT     H234971   3.055   4.184   0.627
11577WAT      O34972   7.943   7.353   7.494
11577WAT     H134973   7.847   7.357   7.465
11577WAT     H234974   7.953   7.283   7.564
11578WAT      O34975   4.195   5.030   8.782
11578WAT     H134976   4.239   5.080   8.708
11578WAT     H234977   4.235   4.938   8.789
11579WAT      O34978   8.657   1.153   1.763
11579WAT     H134979   8.679   1.077   1.824
11579WAT     H234980   8.573   1.133   1.714
11580WAT      O34981   0.252   4.906   6.960
11580WAT     H134982   0.168   4.892   6.907
11580WAT     H234983   0.255   4.841   7.036
11581WAT      O34984   5.440   8.314   9.102
11581WAT     H134985   5.473   8.300   9.009
11581WAT     H234986   5.380   8.239   9.127
11582WAT      O34987   2.616   9.641   0.178
11582WAT     H134988   2.565   9.678   0.256
11582WAT     H234989   2.710   9.675   0.181
11583WAT      O34990   2.416   1.186   6.542
11583WAT     H134991   2.443   1.117   6.474
11583WAT     H234992   2.347   1.147   6.603
11584WAT      O34993   1.228   2.649   6.809
11584WAT     H134994   1.259   2.620   6.900
11584WAT     H234995   1.178   2.735   6.817
11585WAT      O34996   7.146   5.105   0.701
11585WAT     H134997   7.153   5.203   0.685
11585WAT     H234998   7.147   5.087   0.800
11586WAT      O34999   8.954   8.168   5.577
11586WAT     H135000   8.930   8.190   5.483
11586WAT     H235001   8.944   8.070   5.592
11587WAT      O35002   0.749   5.441   3.863
11587WAT     H135003   0.769   5.507   3.790
11587WAT     H235004   0.824   5.376   3.872
11588WAT      O35005   4.292   6.010   9.072
11588WAT     H135006   4.367   5.953   9.039
11588WAT     H235007   4.210   5.992   9.017
11589WAT      O35008   7.094   2.747   5.984
11589WAT     H135009   7.082   2.843   6.010
11589WAT     H235010   7.096   2.691   6.067
11590WAT      O35011   8.779   1.867   7.740
11590WAT     H135012   8.821   1.797   7.797
11590WAT     H235013   8.835   1.950   7.742
11591WAT      O35014   2.032   7.599   7.162
11591WAT     H135015   2.067   7.647   7.082
11591WAT     H235016   1.991   7.512   7.135
11592WAT      O35017   5.659   8.413   6.918
11592WAT     H135018   5.660   8.487   6.851
11592WAT     H235019   5.751   8.397   6.952
11593WAT      O35020   6.383   2.326   9.170
11593WAT     H135021   6.314   2.374   9.223
11593WAT     H235022   6.348   2.309   9.077
11594WAT      O35023   5.333   3.072   6.953
11594WAT     H135024   5.432   3.054   6.954
11594WAT     H235025   5.285   2.991   6.988
11595WAT      O35026   3.296   0.611   5.680
11595WAT     H135027   3.223   0.620   5.613
11595WAT     H235028   3.383   0.639   5.639
11596WAT      O35029   8.929   9.663   2.172
11596WAT     H135030   8.846   9.687   2.121
11596WAT     H235031   8.906   9.596   2.243
11597WAT      O35032   2.476   6.573   0.144
11597WAT     H135033   2.415   6.598   0.218
11597WAT     H235034   2.564   6.619   0.155
11598WAT      O35035   6.182   7.262   8.227
11598WAT     H135036   6.203   7.172   8.265
11598WAT     H235037   6.266   7.315   8.218
11599WAT      O35038   3.882   5.172   7.737
11599WAT     H135039   3.925   5.205   7.653
11599WAT     H235040   3.947   5.117   7.789
11600WAT      O35041   5.936   3.577   7.853
11600WAT     H135042   6.018   3.635   7.852
11600WAT     H235043   5.962   3.485   7.882
11601WAT      O35044   4.883   9.310   2.445
11601WAT     H135045   4.957   9.369   2.412
11601WAT     H235046   4.848   9.256   2.369
11602WAT      O35047   6.172   7.384   9.066
11602WAT     H135048   6.191   7.481   9.083
11602WAT     H235049   6.229   7.353   8.990
11603WAT      O35050   4.806   5.020   3.642
11603WAT     H135051   4.831   4.948   3.707
11603WAT     H235052   4.864   5.100   3.657
11604WAT      O35053   1.141   8.901   7.568
11604WAT     H135054   1.047   8.906   7.535
11604WAT     H235055   1.142   8.857   7.658
11605WAT      O35056   7.933   8.738   4.608
11605WAT     H135057   8.026   8.705   4.627
11605WAT     H235058   7.926   8.760   4.510
11606WAT      O35059   8.435   1.976   9.721
11606WAT     H135060   8.353   1.930   9.755
11606WAT     H235061   8.422   2.003   9.625
11607WAT      O35062   6.778   0.351   2.051
11607WAT     H135063   6.740   0.419   2.115
11607WAT     H235064   6.705   0.319   1.990
11608WAT      O35065   9.140   0.730   5.622
11608WAT     H135066   9.134   0.737   5.721
11608WAT     H235067   9.214   0.788   5.589
11609WAT      O35068   7.334   2.671   3.605
11609WAT     H135069   7.385   2.754   3.624
11609WAT     H235070   7.244   2.694   3.570
11610WAT      O35071   6.751   9.470   9.445
11610WAT     H135072   6.797   9.555   9.473
11610WAT     H235073   6.818   9.396   9.439
11611WAT      O35074   8.912   0.400   2.937
11611WAT     H135075   8.961   0.315   2.952
11611WAT     H235076   8.819   0.379   2.905
11612WAT      O35077   0.473   4.926   3.985
11612WAT     H135078   0.417   4.884   4.056
11612WAT     H235079   0.468   5.026   3.992
11613WAT      O35080   2.991   1.355   2.345
11613WAT     H135081   3.034   1.378   2.258
11613WAT     H235082   2.973   1.439   2.396
11614WAT      O35083   9.649   4.690   4.790
11614WAT     H135084   9.608   4.605   4.760
11614WAT     H235085   9.721   4.717   4.727
11615WAT      O35086   9.544   0.787   9.271
11615WAT     H135087   9.545   0.779   9.371
11615WAT     H235088   9.638   0.789   9.237
11616WAT      O35089   4.923   8.110   1.309
11616WAT     H135090   4.848   8.074   1.253
11616WAT     H235091   4.958   8.037   1.368
11617WAT      O35092   3.644   0.537   1.796
11617WAT     H135093   3.579   0.500   1.730
11617WAT     H235094   3.729   0.483   1.792
11618WAT      O35095   4.771   0.108   9.887
11618WAT     H135096   4.842   0.171   9.856
11618WAT     H235097   4.727   0.145   9.969
11619WAT      O35098   2.449   4.923   7.941
11619WAT     H135099   2.363   4.933   7.991
11619WAT     H235100   2.464   5.004   7.884
11620WAT      O35101   6.955   2.757   2.982
11620WAT     H135102   7.025   2.685   2.988
11620WAT     H235103   6.868   2.721   3.015
11621WAT      O35104   1.832   9.172   9.629
11621WAT     H135105   1.806   9.192   9.534
11621WAT     H235106   1.918   9.218   9.650
11622WAT      O35107   8.556   1.954   4.291
11622WAT     H135108   8.513   1.871   4.255
11622WAT     H235109   8.519   2.034   4.244
11623WAT      O35110   1.508   3.601   4.737
11623WAT     H135111   1.520   3.700   4.739
11623WAT     H235112   1.597   3.556   4.735
11624WAT      O35113   3.131   0.513   6.234
11624WAT     H135114   3.166   0.443   6.171
11624WAT     H235115   3.150   0.485   6.328
11625WAT      O35116   7.336   5.785   2.222
11625WAT     H135117   7.301   5.756   2.133
11625WAT     H235118   7.434   5.768   2.226
11626WAT      O35119   1.557   3.290   8.975
11626WAT     H135120   1.463   3.259   8.957
11626WAT     H235121   1.615   3.211   8.993
11627WAT      O35122   4.993   4.265   2.977
11627WAT     H135123   4.913   4.205   2.980
11627WAT     H235124   5.076   4.211   2.987
11628WAT      O35125   1.415   7.229   8.775
11628WAT     H135126   1.321   7.246   8.743
11628WAT     H235127   1.470   7.311   8.760
11629WAT      O35128   6.323   7.772   7.436
11629WAT     H135129   6.338   7.754   7.533
11629WAT     H235130   6.404   7.815   7.397
11630WAT      O35131   6.449   6.307   1.129
11630WAT     H135132   6.380   6.345   1.067
11630WAT     H235133   6.491   6.381   1.182
11631WAT      O35134   3.553   9.553   6.731
11631WAT     H135135   3.550   9.645   6.770
11631WAT     H235136   3.629   9.502   6.772
11632WAT      O35137   2.712   4.019   2.950
11632WAT     H135138   2.737   4.116   2.953
11632WAT     H235139   2.612   4.011   2.951
11633WAT      O35140   9.351   3.739   3.678
11633WAT     H135141   9.287   3.707   3.608
11633WAT     H235142   9.427   3.674   3.684
11634WAT      O35143   4.363   3.037   2.073
11634WAT     H135144   4.316   2.957   2.111
11634WAT     H235145   4.462   3.024   2.081
11635WAT      O35146   9.086   3.486   7.994
11635WAT     H135147   9.097   3.570   7.940
11635WAT     H235148   8.990   3.456   7.989
11636WAT      O35149   6.487   8.520   0.637
11636WAT     H135150   6.566   8.568   0.677
11636WAT     H235151   6.430   8.484   0.711
11637WAT      O35152   3.499   2.835   0.604
11637WAT     H135153   3.506   2.932   0.579
11637WAT     H235154   3.451   2.785   0.531
11638WAT      O35155   5.113   1.359   5.861
11638WAT     H135156   5.159   1.387   5.776
11638WAT     H235157   5.125   1.261   5.874
11639WAT      O35158   2.611   5.102   6.193
11639WAT     H135159   2.579   5.075   6.102
11639WAT     H235160   2.631   5.200   6.193
11640WAT      O35161   5.269   7.391   5.342
11640WAT     H135162   5.312   7.429   5.423
11640WAT     H235163   5.307   7.434   5.260
11641WAT      O35164   4.148   8.789   7.323
11641WAT     H135165   4.062   8.750   7.293
11641WAT     H235166   4.213   8.790   7.246
11642WAT      O35167   6.756   8.117   4.917
11642WAT     H135168   6.805   8.197   4.881
11642WAT     H235169   6.674   8.101   4.861
11643WAT      O35170   5.580   7.056   3.049
11643WAT     H135171   5.655   7.110   3.012
11643WAT     H235172   5.528   7.111   3.114
11644WAT      O35173   1.287   0.953   7.406
11644WAT     H135174   1.257   1.009   7.329
11644WAT     H235175   1.295   0.858   7.377
11645WAT      O35176   6.973   0.857   1.457
11645WAT     H135177   7.010   0.765   1.472
11645WAT     H235178   7.021   0.900   1.380
11646WAT      O35179   5.583   5.403   9.075
11646WAT     H135180   5.569   5.455   8.990
11646WAT     H235181   5.605   5.466   9.149
11647WAT      O35182   1.688   4.947   0.551
11647WAT     H135183   1.787   4.953   0.539
11647WAT     H235184   1.645   4.927   0.463
11648WAT      O35185   6.885   7.363   0.048
11648WAT     H135186   6.882   7.321   0.138
11648WAT     H235187   6.794   7.360   0.007
11649WAT      O35188   1.274   2.754   0.026
11649WAT     H135189   1.346   2.822   0.018
11649WAT     H235190   1.295   2.675  -0.032
11650WAT      O35191   3.748   3.244   1.659
11650WAT     H135192   3.837   3.285   1.639
11650WAT     H235193   3.716   3.276   1.748
11651WAT      O35194   3.425   8.724   3.317
11651WAT     H135195   3.476   8.743   3.233
11651WAT     H235196   3.399   8.628   3.318
11652WAT      O35197   7.272   8.714   0.878
11652WAT     H135198   7.239   8.800   0.839
11652WAT     H235199   7.234   8.638   0.826
11653WAT      O35200   8.479   1.079   2.934
11653WAT     H135201   8.489   0.985   2.967
11653WAT     H235202   8.393   1.117   2.968
11654WAT      O35203   0.739   8.665   1.872
11654WAT     H135204   0.725   8.688   1.776
11654WAT     H235205   0.688   8.730   1.929
11655WAT      O35206   4.382   4.854   1.699
11655WAT     H135207   4.397   4.886   1.792
11655WAT     H235208   4.437   4.772   1.682
11656WAT      O35209   3.570   8.657   8.699
11656WAT     H135210   3.539   8.666   8.605
11656WAT     H235211   3.561   8.562   8.729
11657WAT      O35212   5.866   8.833   0.412
11657WAT     H135213   5.849   8.854   0.509
11657WAT     H235214   5.859   8.917   0.358
11658WAT      O35215   4.180   8.630   1.690
11658WAT     H135216   4.268   8.585   1.672
11658WAT     H235217   4.152   8.612   1.784
11659WAT      O35218   9.192   5.837   3.581
11659WAT     H135219   9.191   5.934   3.604
11659WAT     H235220   9.135   5.787   3.646
11660WAT      O35221   5.355   4.670   0.147
11660WAT     H135222   5.398   4.633   0.065
11660WAT     H235223   5.399   4.756   0.171
11661WAT      O35224   1.021   0.164   7.791
11661WAT     H135225   1.063   0.221   7.862
11661WAT     H235226   1.032   0.209   7.702
11662WAT      O35227   4.787   6.559   9.531
11662WAT     H135228   4.853   6.497   9.488
11662WAT     H235229   4.739   6.511   9.604
11663WAT      O35230   3.607   4.148   8.008
11663WAT     H135231   3.536   4.082   7.981
11663WAT     H235232   3.596   4.231   7.953
11664WAT      O35233   5.453   3.165   8.983
11664WAT     H135234   5.489   3.256   8.964
11664WAT     H235235   5.355   3.162   8.961
11665WAT      O35236   8.126   1.393   0.681
11665WAT     H135237   8.052   1.354   0.736
11665WAT     H235238   8.214   1.361   0.716
11666WAT      O35239   7.127   1.479   7.037
11666WAT     H135240   7.210   1.432   7.067
11666WAT     H235241   7.063   1.413   6.997
11667WAT      O35242   8.984   2.600   0.066
11667WAT     H135243   9.083   2.589   0.061
11667WAT     H235244   8.950   2.562   0.152
11668WAT      O35245   7.965   2.105   1.759
11668WAT     H135246   7.956   2.036   1.831
11668WAT     H235247   7.882   2.106   1.704
11669WAT      O35248   4.679   3.604   0.735
11669WAT     H135249   4.691   3.629   0.638
11669WAT     H235250   4.668   3.688   0.789
11670WAT      O35251   0.353   5.557   4.109
11670WAT     H135252   0.312   5.573   4.019
11670WAT     H235253   0.306   5.481   4.153
11671WAT      O35254   5.035   3.155   1.123
11671WAT     H135255   5.070   3.249   1.130
11671WAT     H235256   4.948   3.149   1.171
11672WAT      O35257   2.857   3.036   7.168
11672WAT     H135258   2.939   2.989   7.202
11672WAT     H235259   2.880   3.131   7.148
11673WAT      O35260   1.976   5.096   4.846
11673WAT     H135261   2.057   5.064   4.895
11673WAT     H235262   2.000   5.120   4.753
11674WAT      O35263   0.590   4.583   3.702
11674WAT     H135264   0.626   4.564   3.793
11674WAT     H235265   0.666   4.593   3.638
11675WAT      O35266   1.942   4.380   6.359
11675WAT     H135267   1.843   4.388   6.346
11675WAT     H235268   1.962   4.301   6.416
11676WAT      O35269   9.461   8.310   1.471
11676WAT     H135270   9.526   8.337   1.542
11676WAT     H235271   9.497   8.232   1.421
11677WAT      O35272   8.625   4.365   3.086
11677WAT     H135273   8.667   4.455   3.077
11677WAT     H235274   8.696   4.294   3.081
11678WAT      O35275   2.570   5.222   3.245
11678WAT     H135276   2.631   5.179   3.178
11678WAT     H235277   2.605   5.205   3.337
11679WAT      O35278   0.782   4.222   2.757
11679WAT     H135279   0.858   4.158   2.773
11679WAT     H235280   0.726   4.228   2.840
11680WAT      O35281   9.367   8.985   4.764
11680WAT     H135282   9.338   8.897   4.726
11680WAT     H235283   9.287   9.035   4.798
11681WAT      O35284   1.626   8.569   5.497
11681WAT     H135285   1.574   8.550   5.414
11681WAT     H235286   1.701   8.504   5.505
11682WAT      O35287   5.307   1.902   6.769
11682WAT     H135288   5.228   1.916   6.708
11682WAT     H235289   5.361   1.825   6.734
11683WAT      O35290   3.522   6.603   3.705
11683WAT     H135291   3.432   6.578   3.741
11683WAT     H235292   3.511   6.657   3.622
11684WAT      O35293   6.697   1.042   9.189
11684WAT     H135294   6.600   1.065   9.179
11684WAT     H235295   6.749   1.127   9.204
11685WAT      O35296   5.045   2.705   2.120
11685WAT     H135297   4.954   2.684   2.158
11685WAT     H235298   5.115   2.669   2.181
11686WAT      O35299   5.442   3.137   2.498
11686WAT     H135300   5.398   3.106   2.414
11686WAT     H235301   5.416   3.075   2.573
11687WAT      O35302   5.331   9.391   6.251
11687WAT     H135303   5.242   9.426   6.221
11687WAT     H235304   5.382   9.465   6.296
11688WAT      O35305   4.460   2.238   2.787
11688WAT     H135306   4.544   2.259   2.838
11688WAT     H235307   4.482   2.233   2.690
11689WAT      O35308   9.356   4.823   4.313
11689WAT     H135309   9.391   4.839   4.405
11689WAT     H235310   9.333   4.911   4.271
11690WAT      O35311   6.927   6.865   3.195
11690WAT     H135312   7.025   6.850   3.188
11690WAT     H235313   6.902   6.884   3.290
11691WAT      O35314   5.865   3.115   4.996
11691WAT     H135315   5.896   3.068   5.079
11691WAT     H235316   5.774   3.082   4.971
11692WAT      O35317   3.749   4.884   2.205
11692WAT     H135318   3.820   4.923   2.145
11692WAT     H235319   3.789   4.811   2.261
11693WAT      O35320   3.206   9.798   3.437
11693WAT     H135321   3.293   9.839   3.411
11693WAT     H235322   3.172   9.841   3.520
11694WAT      O35323   7.796   6.140   0.196
11694WAT     H135324   7.791   6.216   0.132
11694WAT     H235325   7.883   6.091   0.183
11695WAT      O35326   3.437   2.026   6.082
11695WAT     H135327   3.421   2.124   6.084
11695WAT     H235328   3.355   1.979   6.048
11696WAT      O35329   7.656   9.497   2.871
11696WAT     H135330   7.638   9.472   2.776
11696WAT     H235331   7.579   9.549   2.907
11697WAT      O35332   4.306   0.057   2.597
11697WAT     H135333   4.310  -0.031   2.645
11697WAT     H235334   4.315   0.042   2.498
11698WAT      O35335   4.245   8.381   5.066
11698WAT     H135336   4.178   8.326   5.016
11698WAT     H235337   4.323   8.400   5.007
11699WAT      O35338   1.061   1.393   3.493
11699WAT     H135339   1.058   1.473   3.433
11699WAT     H235340   1.061   1.422   3.588
11700WAT      O35341   7.235   2.671   2.995
11700WAT     H135342   7.250   2.572   2.991
11700WAT     H235343   7.251   2.710   2.904
11701WAT      O35344   2.951   1.723   8.524
11701WAT     H135345   2.853   1.741   8.513
11701WAT     H235346   2.964   1.653   8.594
11702WAT      O35347   1.587   8.835   8.016
11702WAT     H135348   1.519   8.767   7.990
11702WAT     H235349   1.549   8.927   8.002
11703WAT      O35350   7.703   2.974   4.478
11703WAT     H135351   7.700   2.880   4.512
11703WAT     H235352   7.636   3.030   4.528
11704WAT      O35353   0.870   5.732   1.888
11704WAT     H135354   0.894   5.765   1.980
11704WAT     H235355   0.772   5.745   1.872
11705WAT      O35356   0.627   1.670   9.430
11705WAT     H135357   0.630   1.607   9.352
11705WAT     H235358   0.607   1.618   9.513
11706WAT      O35359   6.543   4.496   6.319
11706WAT     H135360   6.604   4.562   6.276
11706WAT     H235361   6.488   4.542   6.389
11707WAT      O35362   7.418   4.406   4.553
11707WAT     H135363   7.429   4.416   4.454
11707WAT     H235364   7.367   4.322   4.572
11708WAT      O35365   4.265   2.371   1.355
11708WAT     H135366   4.290   2.433   1.281
11708WAT     H235367   4.184   2.318   1.328
11709WAT      O35368   1.645   8.101   8.094
11709WAT     H135369   1.699   8.157   8.031
11709WAT     H235370   1.548   8.122   8.083
11710WAT      O35371   2.747   6.696   7.435
11710WAT     H135372   2.664   6.725   7.387
11710WAT     H235373   2.753   6.596   7.433
11711WAT      O35374   8.532   4.621   5.906
11711WAT     H135375   8.554   4.608   5.809
11711WAT     H235376   8.544   4.536   5.955
11712WAT      O35377   6.511   3.039   1.293
11712WAT     H135378   6.485   3.082   1.379
11712WAT     H235379   6.532   2.942   1.310
11713WAT      O35380   7.917   7.441   2.400
11713WAT     H135381   7.943   7.445   2.303
11713WAT     H235382   7.976   7.376   2.447
11714WAT      O35383   7.030   0.079   1.376
11714WAT     H135384   6.945   0.102   1.425
11714WAT     H235385   7.079   0.009   1.428
11715WAT      O35386   5.241   5.860   9.678
11715WAT     H135387   5.195   5.932   9.628
11715WAT     H235388   5.320   5.827   9.626
11716WAT      O35389   0.746   7.567   3.924
11716WAT     H135390   0.737   7.555   4.023
11716WAT     H235391   0.688   7.643   3.894
11717WAT      O35392   2.640   8.845   8.293
11717WAT     H135393   2.650   8.792   8.377
11717WAT     H235394   2.596   8.933   8.314
11718WAT      O35395   4.927   4.072   9.001
11718WAT     H135396   4.965   4.135   8.933
11718WAT     H235397   4.972   3.983   8.994
11719WAT      O35398   9.028   3.368   7.120
11719WAT     H135399   9.119   3.407   7.133
11719WAT     H235400   8.982   3.360   7.209
11720WAT      O35401   6.344   6.971   7.678
11720WAT     H135402   6.441   6.988   7.659
11720WAT     H235403   6.289   7.047   7.645
11721WAT      O35404   9.547   4.094   8.894
11721WAT     H135405   9.635   4.093   8.943
11721WAT     H235406   9.536   4.182   8.847
11722WAT      O35407   9.078   9.676   8.294
11722WAT     H135408   9.138   9.743   8.250
11722WAT     H235409   9.019   9.634   8.226
11723WAT      O35410   7.758   3.691   5.645
11723WAT     H135411   7.771   3.602   5.689
11723WAT     H235412   7.680   3.687   5.583
11724WAT      O35413   6.284   6.026   0.252
11724WAT     H135414   6.288   6.092   0.326
11724WAT     H235415   6.250   5.938   0.287
11725WAT      O35416   7.728   5.413   7.520
11725WAT     H135417   7.759   5.324   7.553
11725WAT     H235418   7.657   5.399   7.450
11726WAT      O35419   0.609   1.019   7.434
11726WAT     H135420   0.536   1.012   7.366
11726WAT     H235421   0.694   1.047   7.390
11727WAT      O35422   8.229   0.037   6.898
11727WAT     H135423   8.150  -0.010   6.937
11727WAT     H235424   8.209   0.062   6.804
11728WAT      O35425   9.485   7.307   6.948
11728WAT     H135426   9.583   7.329   6.950
11728WAT     H235427   9.474   7.208   6.946
11729WAT      O35428   3.964   0.220   5.073
11729WAT     H135429   3.952   0.155   5.147
11729WAT     H235430   3.928   0.309   5.100
11730WAT      O35431   8.103   8.572   8.190
11730WAT     H135432   8.051   8.526   8.262
11730WAT     H235433   8.196   8.536   8.189
11731WAT      O35434   8.658   1.696   5.050
11731WAT     H135435   8.620   1.731   5.136
11731WAT     H235436   8.756   1.681   5.061
11732WAT      O35437   4.764   3.731   8.149
11732WAT     H135438   4.833   3.695   8.212
11732WAT     H235439   4.748   3.828   8.169
11733WAT      O35440   8.296   6.797   0.018
11733WAT     H135441   8.341   6.710  -0.000
11733WAT     H235442   8.243   6.825  -0.062
11734WAT      O35443   6.424   1.693   5.127
11734WAT     H135444   6.389   1.622   5.066
11734WAT     H235445   6.371   1.694   5.212
11735WAT      O35446   3.462   5.990   5.604
11735WAT     H135447   3.456   5.929   5.683
11735WAT     H235448   3.443   5.938   5.521
11736WAT      O35449   3.646   7.983   6.908
11736WAT     H135450   3.627   7.904   6.966
11736WAT     H235451   3.732   8.025   6.935
11737WAT      O35452   7.859   9.177   8.666
11737WAT     H135453   7.766   9.149   8.687
11737WAT     H235454   7.919   9.154   8.742
11738WAT      O35455   2.336   8.334   1.380
11738WAT     H135456   2.369   8.289   1.297
11738WAT     H235457   2.248   8.294   1.406
11739WAT      O35458   1.392   6.344   9.471
11739WAT     H135459   1.486   6.316   9.489
11739WAT     H235460   1.333   6.264   9.468
11740WAT      O35461   8.830   1.635   7.585
11740WAT     H135462   8.794   1.570   7.651
11740WAT     H235463   8.820   1.728   7.620
11741WAT      O35464   3.061   6.090   0.894
11741WAT     H135465   3.029   6.183   0.880
11741WAT     H235466   2.989   6.025   0.869
11742WAT      O35467   6.394   7.242   0.179
11742WAT     H135468   6.432   7.327   0.216
11742WAT     H235469   6.302   7.228   0.217
11743WAT      O35470   3.399   6.454   7.252
11743WAT     H135471   3.479   6.489   7.299
11743WAT     H235472   3.335   6.415   7.319
11744WAT      O35473   5.804   2.449   2.106
11744WAT     H135474   5.755   2.427   2.190
11744WAT     H235475   5.755   2.522   2.057
11745WAT      O35476   2.245   0.096   9.341
11745WAT     H135477   2.288   0.139   9.420
11745WAT     H235478   2.264   0.150   9.259
11746WAT      O35479   2.709   4.810   6.506
11746WAT     H135480   2.794   4.861   6.507
11746WAT     H235481   2.657   4.829   6.590
11747WAT      O35482   8.915   2.432   0.295
11747WAT     H135483   8.938   2.424   0.393
11747WAT     H235484   8.840   2.497   0.284
11748WAT      O35485   8.682   2.398   2.171
11748WAT     H135486   8.683   2.462   2.247
11748WAT     H235487   8.614   2.326   2.190
11749WAT      O35488   7.158   6.934   2.336
11749WAT     H135489   7.130   7.015   2.387
11749WAT     H235490   7.135   6.945   2.239
11750WAT      O35491   7.361   7.449   2.707
11750WAT     H135492   7.421   7.493   2.773
11750WAT     H235493   7.278   7.504   2.695
11751WAT      O35494   6.732   2.583   0.955
11751WAT     H135495   6.667   2.510   0.978
11751WAT     H235496   6.741   2.646   1.032
11752WAT      O35497   9.787   9.394   9.706
11752WAT     H135498   9.828   9.464   9.764
11752WAT     H235499   9.712   9.434   9.654
11753WAT      O35500   2.787   5.893   0.505
11753WAT     H135501   2.770   5.810   0.558
11753WAT     H235502   2.866   5.878   0.445
11754WAT      O35503   1.310   7.461   4.353
11754WAT     H135504   1.351   7.416   4.274
11754WAT     H235505   1.215   7.485   4.333
11755WAT      O35506   9.394   9.123   2.255
11755WAT     H135507   9.315   9.076   2.293
11755WAT     H235508   9.388   9.123   2.155
11756WAT      O35509   7.437   9.054   0.506
11756WAT     H135510   7.369   8.984   0.487
11756WAT     H235511   7.470   9.043   0.600
11757WAT      O35512   2.893   3.567   0.276
11757WAT     H135513   2.840   3.644   0.241
11757WAT     H235514   2.905   3.499   0.203
11758WAT      O35515   4.553   2.452   6.903
11758WAT     H135516   4.603   2.536   6.880
11758WAT     H235517   4.482   2.473   6.970
11759WAT      O35518   9.770   2.219   4.096
11759WAT     H135519   9.862   2.256   4.110
11759WAT     H235520   9.771   2.154   4.021
11760WAT      O35521   4.929   0.238   2.752
11760WAT     H135522   4.985   0.273   2.828
11760WAT     H235523   4.879   0.157   2.783
11761WAT      O35524   8.138   2.854   2.131
11761WAT     H135525   8.093   2.939   2.105
11761WAT     H235526   8.069   2.787   2.158
11762WAT      O35527   4.349   0.345   6.910
11762WAT     H135528   4.259   0.337   6.952
11762WAT     H235529   4.351   0.426   6.851
11763WAT      O35530   2.793   8.646   3.629
11763WAT     H135531   2.773   8.743   3.615
11763WAT     H235532   2.781   8.596   3.543
11764WAT      O35533   2.560   4.613   8.583
11764WAT     H135534   2.592   4.647   8.494
11764WAT     H235535   2.522   4.689   8.635
11765WAT      O35536   5.267   1.815   5.923
11765WAT     H135537   5.181   1.790   5.879
11765WAT     H235538   5.321   1.872   5.861
11766WAT      O35539   3.714   2.860   5.378
11766WAT     H135540   3.791   2.907   5.334
11766WAT     H235541   3.748   2.779   5.425
11767WAT      O35542   2.851   5.755   6.814
11767WAT     H135543   2.778   5.734   6.880
11767WAT     H235544   2.841   5.698   6.733
11768WAT      O35545   7.591   2.588   2.046
11768WAT     H135546   7.678   2.553   2.081
11768WAT     H235547   7.516   2.530   2.076
11769WAT      O35548   0.860   2.317   1.396
11769WAT     H135549   0.769   2.349   1.368
11769WAT     H235550   0.893   2.249   1.331
11770WAT      O35551   5.003   6.770   5.728
11770WAT     H135552   5.022   6.692   5.787
11770WAT     H235553   4.935   6.745   5.659
11771WAT      O35554   5.149   9.400   9.703
11771WAT     H135555   5.073   9.340   9.676
11771WAT     H235556   5.228   9.382   9.644
11772WAT      O35557   2.074   8.222   1.437
11772WAT     H135558   2.028   8.302   1.399
11772WAT     H235559   2.015   8.142   1.428
11773WAT      O35560   6.399   4.025   2.566
11773WAT     H135561   6.413   3.925   2.569
11773WAT     H235562   6.320   4.049   2.622
11774WAT      O35563   1.701   5.723   3.794
11774WAT     H135564   1.635   5.793   3.820
11774WAT     H235565   1.666   5.633   3.820
11775WAT      O35566   3.874   2.195   2.402
11775WAT     H135567   3.853   2.202   2.499
11775WAT     H235568   3.797   2.154   2.353
11776WAT      O35569   2.922   3.431   8.584
11776WAT     H135570   2.878   3.448   8.673
11776WAT     H235571   3.006   3.484   8.578
11777WAT      O35572   2.177   4.725   6.713
11777WAT     H135573   2.125   4.688   6.637
11777WAT     H235574   2.256   4.666   6.732
11778WAT      O35575   2.209   6.301   4.907
11778WAT     H135576   2.147   6.260   4.974
11778WAT     H235577   2.248   6.386   4.944
11779WAT      O35578   1.319   4.814   3.052
11779WAT     H135579   1.227   4.776   3.041
11779WAT     H235580   1.361   4.778   3.135
11780WAT      O35581   4.646   3.901   1.235
11780WAT     H135582   4.722   3.910   1.171
11780WAT     H235583   4.672   3.940   1.323
11781WAT      O35584   0.699   0.700   8.238
11781WAT     H135585   0.712   0.604   8.210
11781WAT     H235586   0.629   0.741   8.180
11782WAT      O35587   1.354   5.073   0.842
11782WAT     H135588   1.412   5.051   0.921
11782WAT     H235589   1.410   5.071   0.759
11783WAT      O35590   1.736   8.146   5.543
11783WAT     H135591   1.808   8.137   5.475
11783WAT     H235592   1.649   8.116   5.504
11784WAT      O35593   2.161   1.580   5.594
11784WAT     H135594   2.100   1.540   5.662
11784WAT     H235595   2.125   1.668   5.564
11785WAT      O35596   4.565   2.681   8.856
11785WAT     H135597   4.549   2.780   8.863
11785WAT     H235598   4.659   2.660   8.881
11786WAT      O35599   4.798   0.201   8.047
11786WAT     H135600   4.754   0.165   7.965
11786WAT     H235601   4.845   0.286   8.024
11787WAT      O35602   5.321   2.593   2.766
11787WAT     H135603   5.382   2.515   2.774
11787WAT     H235604   5.310   2.618   2.670
11788WAT      O35605   1.218   5.960   8.129
11788WAT     H135606   1.290   5.960   8.059
11788WAT     H235607   1.220   5.873   8.178
11789WAT      O35608   1.509   4.090   2.607
11789WAT     H135609   1.570   4.155   2.652
11789WAT     H235610   1.506   4.006   2.659
11790WAT      O35611   5.896   5.433   5.793
11790WAT     H135612   5.994   5.429   5.811
11790WAT     H235613   5.880   5.460   5.698
11791WAT      O35614   8.133   6.202   5.008
11791WAT     H135615   8.183   6.280   4.971
11791WAT     H235616   8.195   6.125   5.021
11792WAT      O35617   8.787   9.328   4.740
11792WAT     H135618   8.862   9.266   4.721
11792WAT     H235619   8.743   9.354   4.654
11793WAT      O35620   4.164   1.916   1.563
11793WAT     H135621   4.127   1.917   1.656
11793WAT     H235622   4.205   1.827   1.544
11794WAT      O35623   9.562   3.322   8.749
11794WAT     H135624   9.558   3.259   8.672
11794WAT     H235625   9.523   3.410   8.723
11795WAT      O35626   4.521   1.287   4.594
11795WAT     H135627   4.459   1.338   4.653
11795WAT     H235628   4.510   1.189   4.611
11796WAT      O35629   2.124   9.216   9.538
11796WAT     H135630   2.065   9.162   9.479
11796WAT     H235631   2.211   9.232   9.491
11797WAT      O35632   7.803   1.499   0.273
11797WAT     H135633   7.754   1.467   0.354
11797WAT     H235634   7.749   1.571   0.229
11798WAT      O35635   6.592   2.637   5.036
11798WAT     H135636   6.665   2.596   5.091
11798WAT     H235637   6.628   2.663   4.947
11799WAT      O35638   6.582   9.560   4.664
11799WAT     H135639   6.509   9.513   4.714
11799WAT     H235640   6.547   9.592   4.577
11800WAT      O35641   8.610   6.787   6.029
11800WAT     H135642   8.537   6.820   5.969
11800WAT     H235643   8.599   6.689   6.044
11801WAT      O35644   5.632   5.458   6.851
11801WAT     H135645   5.537   5.450   6.883
11801WAT     H235646   5.642   5.543   6.799
11802WAT      O35647   5.963   8.892   4.330
11802WAT     H135648   5.964   8.972   4.391
11802WAT     H235649   6.052   8.882   4.286
11803WAT      O35650   1.946   0.304   1.845
11803WAT     H135651   1.873   0.320   1.911
11803WAT     H235652   1.944   0.376   1.776
11804WAT      O35653   0.038   5.782   3.280
11804WAT     H135654   0.005   5.738   3.196
11804WAT     H235655  -0.039   5.803   3.339
11805WAT      O35656   4.983   4.224   7.122
11805WAT     H135657   4.998   4.322   7.139
11805WAT     H235658   4.886   4.207   7.108
11806WAT      O35659   4.527   2.114   6.688
11806WAT     H135660   4.513   2.015   6.687
11806WAT     H235661   4.538   2.145   6.782
11807WAT      O35662   0.202   5.959   6.985
11807WAT     H135663   0.252   5.874   6.971
11807WAT     H235664   0.104   5.941   6.982
11808WAT      O35665   1.654   9.450   5.221
11808WAT     H135666   1.707   9.530   5.245
11808WAT     H235667   1.603   9.418   5.301
11809WAT      O35668   7.551   2.271   0.304
11809WAT     H135669   7.465   2.254   0.258
11809WAT     H235670   7.554   2.366   0.337
11810WAT      O35671   4.292   2.492   0.223
11810WAT     H135672   4.313   2.544   0.306
11810WAT     H235673   4.340   2.532   0.145
11811WAT      O35674   8.875   2.438   5.633
11811WAT     H135675   8.783   2.428   5.594
11811WAT     H235676   8.934   2.485   5.567
11812WAT      O35677   1.321   5.460   5.610
11812WAT     H135678   1.413   5.469   5.571
11812WAT     H235679   1.322   5.393   5.683
11813WAT      O35680   3.828   1.925   9.006
11813WAT     H135681   3.761   2.000   9.013
11813WAT     H235682   3.785   1.847   8.961
11814WAT      O35683   6.192   0.211   7.179
11814WAT     H135684   6.145   0.275   7.118
11814WAT     H235685   6.206   0.254   7.268
11815WAT      O35686   4.514   8.589   3.233
11815WAT     H135687   4.577   8.652   3.187
11815WAT     H235688   4.566   8.520   3.284
11816WAT      O35689   7.794   7.513   3.598
11816WAT     H135690   7.717   7.539   3.539
11816WAT     H235691   7.864   7.585   3.594
11817WAT      O35692   0.034   3.167   3.727
11817WAT     H135693   0.012   3.155   3.630
11817WAT     H235694  -0.051   3.176   3.779
11818WAT      O35695   0.491   2.601   4.273
11818WAT     H135696   0.405   2.573   4.315
11818WAT     H235697   0.562   2.533   4.292
11819WAT      O35698   7.256   7.787   1.898
11819WAT     H135699   7.300   7.711   1.849
11819WAT     H235700   7.248   7.764   1.995
11820WAT      O35701   8.934   0.063   7.045
11820WAT     H135702   8.846   0.021   7.024
11820WAT     H235703   8.948   0.142   6.985
11821WAT      O35704   7.625   1.346   5.229
11821WAT     H135705   7.546   1.315   5.282
11821WAT     H235706   7.659   1.433   5.267
11822WAT      O35707   0.149   1.298   3.967
11822WAT     H135708   0.068   1.262   3.922
11822WAT     H235709   0.231   1.273   3.915
11823WAT      O35710   2.905   7.474   1.748
11823WAT     H135711   2.864   7.547   1.693
11823WAT     H235712   2.984   7.437   1.700
11824WAT      O35713   8.916   0.798   0.432
11824WAT     H135714   8.898   0.702   0.453
11824WAT     H235715   8.842   0.834   0.375
11825WAT      O35716   7.231   0.330   3.345
11825WAT     H135717   7.226   0.396   3.270
11825WAT     H235718   7.138   0.308   3.377
11826WAT      O35719   6.126   2.000   6.727
11826WAT     H135720   6.048   1.951   6.766
11826WAT     H235721   6.133   2.090   6.770
11827WAT      O35722   5.621   1.593   1.549
11827WAT     H135723   5.580   1.571   1.461
11827WAT     H235724   5.684   1.670   1.539
11828WAT      O35725   4.385   9.818   8.408
11828WAT     H135726   4.462   9.761   8.382
11828WAT     H235727   4.334   9.846   8.327
11829WAT      O35728   5.911   8.452   7.027
11829WAT     H135729   5.971   8.531   7.019
11829WAT     H235730   5.965   8.370   7.044
11830WAT      O35731   8.797   1.965   8.892
11830WAT     H135732   8.801   1.867   8.911
11830WAT     H235733   8.711   1.987   8.847
11831WAT      O35734   0.915   2.062   7.854
11831WAT     H135735   0.978   2.047   7.930
11831WAT     H235736   0.896   1.975   7.807
11832WAT      O35737   0.360   5.080   3.595
11832WAT     H135738   0.268   5.074   3.558
11832WAT     H235739   0.393   4.989   3.619
11833WAT      O35740   8.153   5.224   5.969
11833WAT     H135741   8.129   5.309   6.015
11833WAT     H235742   8.171   5.242   5.872
11834WAT      O35743   6.092   4.482   5.434
11834WAT     H135744   6.052   4.564   5.474
11834WAT     H235745   6.036   4.451   5.357
11835WAT      O35746   2.054   4.729   0.161
11835WAT     H135747   2.133   4.722   0.223
11835WAT     H235748   2.006   4.815   0.176
11836WAT      O35749   0.844   4.797   8.436
11836WAT     H135750   0.810   4.872   8.493
11836WAT     H235751   0.772   4.727   8.427
11837WAT      O35752   3.562   9.126   6.593
11837WAT     H135753   3.494   9.168   6.531
11837WAT     H235754   3.515   9.070   6.661
11838WAT      O35755   6.786   2.533   7.934
11838WAT     H135756   6.859   2.569   7.876
11838WAT     H235757   6.712   2.496   7.877
11839WAT      O35758   7.044   3.325   4.687
11839WAT     H135759   7.129   3.376   4.671
11839WAT     H235760   6.998   3.310   4.599
11840WAT      O35761   1.734   3.849   0.997
11840WAT     H135762   1.720   3.808   1.087
11840WAT     H235763   1.693   3.940   0.995
11841WAT      O35764   1.711   3.566   4.157
11841WAT     H135765   1.659   3.510   4.222
11841WAT     H235766   1.714   3.520   4.069
11842WAT      O35767   8.252   0.159   3.534
11842WAT     H135768   8.340   0.116   3.554
11842WAT     H235769   8.268   0.240   3.476
11843WAT      O35770   6.349   8.322   8.127
11843WAT     H135771   6.306   8.404   8.089
11843WAT     H235772   6.288   8.244   8.115
11844WAT      O35773   0.758   2.230   1.051
11844WAT     H135774   0.678   2.288   1.064
11844WAT     H235775   0.781   2.185   1.137
11845WAT      O35776   5.202   4.778   0.452
11845WAT     H135777   5.141   4.709   0.492
11845WAT     H235778   5.183   4.786   0.354
11846WAT      O35779   2.038   5.227   6.089
11846WAT     H135780   2.064   5.182   6.174
11846WAT     H235781   2.010   5.321   6.108
11847WAT      O35782   5.578   6.767   8.498
11847WAT     H135783   5.567   6.714   8.582
11847WAT     H235784   5.523   6.850   8.502
11848WAT      O35785   6.825   0.028   5.732
11848WAT     H135786   6.837   0.017   5.831
11848WAT     H235787   6.913   0.051   5.691
11849WAT      O35788   7.503   6.730   8.282
11849WAT     H135789   7.476   6.634   8.289
11849WAT     H235790   7.435   6.788   8.327
11850WAT      O35791   4.852   3.714   6.516
11850WAT     H135792   4.878   3.808   6.538
11850WAT     H235793   4.888   3.689   6.426
11851WAT      O35794   3.778   7.049   0.964
11851WAT     H135795   3.693   7.025   0.916
11851WAT     H235796   3.796   6.982   1.036
11852WAT      O35797   9.149   9.322   8.245
11852WAT     H135798   9.086   9.324   8.168
11852WAT     H235799   9.135   9.237   8.296
11853WAT      O35800   3.589   7.752   3.475
11853WAT     H135801   3.688   7.740   3.481
11853WAT     H235802   3.544   7.663   3.480
11854WAT      O35803   2.379   3.162   0.395
11854WAT     H135804   2.449   3.222   0.355
11854WAT     H235805   2.417   3.070   0.407
11855WAT      O35806   3.998   8.429   8.902
11855WAT     H135807   4.045   8.402   8.819
11855WAT     H235808   3.957   8.349   8.946
11856WAT      O35809   0.397   9.679   1.852
11856WAT     H135810   0.464   9.743   1.814
11856WAT     H235811   0.388   9.599   1.793
11857WAT      O35812   5.947   6.848   0.097
11857WAT     H135813   5.924   6.943   0.076
11857WAT     H235814   6.040   6.828   0.066
11858WAT      O35815   0.986   7.103   6.672
11858WAT     H135816   1.068   7.116   6.728
11858WAT     H235817   0.962   7.190   6.628
11859WAT      O35818   2.160   0.495   4.584
11859WAT     H135819   2.202   0.451   4.505
11859WAT     H235820   2.061   0.495   4.574
11860WAT      O35821   1.020   2.047   7.471
11860WAT     H135822   0.921   2.065   7.470
11860WAT     H235823   1.039   1.973   7.535
11861WAT      O35824   2.615   3.730   7.082
11861WAT     H135825   2.645   3.644   7.123
11861WAT     H235826   2.524   3.753   7.117
11862WAT      O35827   4.212   5.572   2.787
11862WAT     H135828   4.195   5.612   2.878
11862WAT     H235829   4.152   5.617   2.720
11863WAT      O35830   4.164   5.783   6.353
11863WAT     H135831   4.103   5.737   6.289
11863WAT     H235832   4.235   5.719   6.383
11864WAT      O35833   8.495   2.368   7.581
11864WAT     H135834   8.445   2.295   7.534
11864WAT     H235835   8.592   2.361   7.560
11865WAT      O35836   5.521   6.094   2.009
11865WAT     H135837   5.580   6.046   1.943
11865WAT     H235838   5.531   6.192   1.996
11866WAT      O35839   4.744   5.517   7.298
11866WAT     H135840   4.712   5.600   7.252
11866WAT     H235841   4.814   5.473   7.242
11867WAT      O35842   7.966   9.184   2.205
11867WAT     H135843   7.920   9.273   2.198
11867WAT     H235844   7.898   9.111   2.196
11868WAT      O35845   4.209   2.457   3.590
11868WAT     H135846   4.272   2.510   3.533
11868WAT     H235847   4.181   2.375   3.541
11869WAT      O35848   2.114   1.915   2.448
11869WAT     H135849   2.076   1.978   2.516
11869WAT     H235850   2.041   1.883   2.388
11870WAT      O35851   6.234   7.842   2.492
11870WAT     H135852   6.246   7.858   2.394
11870WAT     H235853   6.259   7.747   2.513
11871WAT      O35854   4.754   8.953   8.903
11871WAT     H135855   4.783   9.034   8.954
11871WAT     H235856   4.763   8.872   8.961
11872WAT      O35857   9.336   6.550   4.567
11872WAT     H135858   9.263   6.575   4.504
11872WAT     H235859   9.379   6.465   4.538
11873WAT      O35860   2.338   1.014   0.882
11873WAT     H135861   2.343   1.092   0.944
11873WAT     H235862   2.424   0.963   0.886
11874WAT      O35863   8.527   2.652   9.255
11874WAT     H135864   8.572   2.668   9.343
11874WAT     H235865   8.481   2.563   9.258
11875WAT      O35866   3.849   1.765   3.121
11875WAT     H135867   3.903   1.835   3.075
11875WAT     H235868   3.772   1.737   3.063
11876WAT      O35869   3.803   7.263   0.602
11876WAT     H135870   3.775   7.209   0.522
11876WAT     H235871   3.756   7.352   0.600
11877WAT      O35872   4.709   3.008   6.738
11877WAT     H135873   4.758   2.946   6.677
11877WAT     H235874   4.691   2.962   6.825
11878WAT      O35875   7.120   2.308   5.080
11878WAT     H135876   7.133   2.254   5.163
11878WAT     H235877   7.023   2.307   5.054
11879WAT      O35878   1.330   1.447   7.333
11879WAT     H135879   1.393   1.369   7.342
11879WAT     H235880   1.367   1.526   7.382
11880WAT      O35881   6.977   4.447   9.772
11880WAT     H135882   7.008   4.416   9.682
11880WAT     H235883   7.048   4.504   9.814
11881WAT      O35884   4.424   0.618   7.168
11881WAT     H135885   4.409   0.519   7.170
11881WAT     H235886   4.337   0.665   7.180
11882WAT      O35887   3.460   4.147   1.315
11882WAT     H135888   3.422   4.189   1.398
11882WAT     H235889   3.441   4.049   1.315
11883WAT      O35890   4.606   5.383   3.574
11883WAT     H135891   4.628   5.372   3.477
11883WAT     H235892   4.618   5.295   3.621
11884WAT      O35893   2.155   4.435   2.811
11884WAT     H135894   2.244   4.426   2.765
11884WAT     H235895   2.105   4.511   2.769
11885WAT      O35896   5.217   2.302   6.184
11885WAT     H135897   5.224   2.378   6.119
11885WAT     H235898   5.308   2.266   6.205
11886WAT      O35899   2.319   8.772   7.314
11886WAT     H135900   2.339   8.859   7.358
11886WAT     H235901   2.387   8.753   7.243
11887WAT      O35902   9.668   4.960   4.649
11887WAT     H135903   9.744   4.918   4.700
11887WAT     H235904   9.671   4.928   4.554
11888WAT      O35905   6.957   7.349   9.191
11888WAT     H135906   7.011   7.280   9.239
11888WAT     H235907   6.867   7.357   9.234
11889WAT      O35908   1.217   8.976   6.257
11889WAT     H135909   1.118   8.984   6.247
11889WAT     H235910   1.260   9.064   6.235
11890WAT      O35911   9.072   2.242   4.084
11890WAT     H135912   9.151   2.199   4.041
11890WAT     H235913   9.092   2.339   4.101
11891WAT      O35914   4.891   1.157   8.147
11891WAT     H135915   4.902   1.180   8.244
11891WAT     H235916   4.980   1.133   8.109
11892WAT      O35917   6.010   7.891   9.034
11892WAT     H135918   6.018   7.951   8.954
11892WAT     H235919   5.913   7.872   9.052
11893WAT      O35920   0.242   6.889   9.396
11893WAT     H135921   0.173   6.941   9.446
11893WAT     H235922   0.199   6.841   9.320
11894WAT      O35923   2.447   5.703   0.471
11894WAT     H135924   2.428   5.759   0.551
11894WAT     H235925   2.514   5.633   0.494
11895WAT      O35926   0.173   2.749   0.195
11895WAT     H135927   0.103   2.792   0.138
11895WAT     H235928   0.130   2.685   0.259
11896WAT      O35929   8.161   7.820   1.271
11896WAT     H135930   8.177   7.800   1.368
11896WAT     H235931   8.245   7.858   1.231
11897WAT      O35932   3.563   8.630   4.888
11897WAT     H135933   3.607   8.703   4.940
11897WAT     H235934   3.498   8.582   4.948
11898WAT      O35935   0.324   2.386   0.737
11898WAT     H135936   0.389   2.460   0.719
11898WAT     H235937   0.374   2.304   0.765
11899WAT      O35938   2.100   1.818   3.591
11899WAT     H135939   2.031   1.755   3.552
11899WAT     H235940   2.137   1.875   3.518
11900WAT      O35941   7.132   6.297   4.148
11900WAT     H135942   7.125   6.379   4.091
11900WAT     H235943   7.212   6.245   4.120
11901WAT      O35944   7.416   5.857   7.641
11901WAT     H135945   7.513   5.834   7.633
11901WAT     H235946   7.399   5.901   7.729
11902WAT      O35947   1.511   4.375   0.794
11902WAT     H135948   1.459   4.398   0.712
11902WAT     H235949   1.548   4.282   0.785
11903WAT      O35950   4.029   4.977   8.381
11903WAT     H135951   4.128   4.959   8.381
11903WAT     H235952   4.005   5.028   8.298
11904WAT      O35953   7.781   4.666   3.704
11904WAT     H135954   7.788   4.696   3.799
11904WAT     H235955   7.685   4.667   3.676
11905WAT      O35956   6.129   8.973   4.974
11905WAT     H135957   6.155   8.877   4.965
11905WAT     H235958   6.033   8.978   5.003
11906WAT      O35959   5.852   9.149   8.413
11906WAT     H135960   5.849   9.050   8.416
11906WAT     H235961   5.942   9.179   8.381
11907WAT      O35962   7.993   9.365   9.297
11907WAT     H135963   8.046   9.414   9.365
11907WAT     H235964   8.026   9.388   9.205
11908WAT      O35965   5.504   7.555   2.389
11908WAT     H135966   5.425   7.617   2.381
11908WAT     H235967   5.570   7.594   2.453
11909WAT      O35968   6.120   7.927   9.510
11909WAT     H135969   6.125   7.994   9.584
11909WAT     H235970   6.213   7.901   9.483
11910WAT      O35971   3.253   1.139   8.870
11910WAT     H135972   3.221   1.062   8.926
11910WAT     H235973   3.343   1.168   8.901
11911WAT      O35974   6.803   4.348   9.401
11911WAT     H135975   6.778   4.291   9.480
11911WAT     H235976   6.893   4.320   9.367
11912WAT      O35977   4.107   6.154   1.923
11912WAT     H135978   4.040   6.112   1.985
11912WAT     H235979   4.093   6.253   1.921
11913WAT      O35980   2.117   9.031   6.687
11913WAT     H135981   2.170   9.114   6.673
11913WAT     H235982   2.092   8.992   6.598
11914WAT      O35983   9.555   0.755   3.378
11914WAT     H135984   9.499   0.816   3.434
11914WAT     H235985   9.652   0.771   3.398
11915WAT      O35986   6.471   4.484   6.886
11915WAT     H135987   6.478   4.385   6.872
11915WAT     H235988   6.476   4.505   6.984
11916WAT      O35989   9.802   4.187   8.962
11916WAT     H135990   9.785   4.281   8.990
11916WAT     H235991   9.890   4.156   8.999
11917WAT      O35992   4.085   5.789   0.711
11917WAT     H135993   4.043   5.842   0.785
11917WAT     H235994   4.093   5.846   0.630
11918WAT      O35995   7.905   1.625   7.674
11918WAT     H135996   7.930   1.721   7.676
11918WAT     H235997   7.844   1.607   7.597
11919WAT      O35998   9.374   7.778   3.190
11919WAT     H135999   9.304   7.848   3.203
11919WAT     H236000   9.382   7.756   3.093
11920WAT      O36001   6.663   5.366   9.560
11920WAT     H136002   6.627   5.459   9.550
11920WAT     H236003   6.723   5.361   9.640
11921WAT      O36004   5.511   2.789   0.009
11921WAT     H136005   5.590   2.850  -0.002
11921WAT     H236006   5.518   2.743   0.098
11922WAT      O36007   0.696   5.295   0.850
11922WAT     H136008   0.638   5.371   0.822
11922WAT     H236009   0.788   5.308   0.812
11923WAT      O36010   2.605   7.323   4.715
11923WAT     H136011   2.606   7.304   4.617
11923WAT     H236012   2.566   7.414   4.731
11924WAT      O36013   5.061   2.586   2.833
11924WAT     H136014   5.045   2.578   2.932
11924WAT     H236015   5.159   2.583   2.815
11925WAT      O36016   3.570   2.268   8.059
11925WAT     H136017   3.558   2.367   8.059
11925WAT     H236018   3.643   2.243   8.123
11926WAT      O36019   3.495   9.547   5.691
11926WAT     H136020   3.464   9.632   5.648
11926WAT     H236021   3.497   9.558   5.790
11927WAT      O36022   3.018   0.331   3.441
11927WAT     H136023   2.986   0.247   3.485
11927WAT     H236024   3.067   0.307   3.357
11928WAT      O36025   7.158   5.936   9.042
11928WAT     H136026   7.116   5.847   9.055
11928WAT     H236027   7.258   5.926   9.039
11929WAT      O36028   6.359   6.820   2.931
11929WAT     H136029   6.304   6.903   2.922
11929WAT     H236030   6.342   6.760   2.853
11930WAT      O36031   7.016   4.319   3.972
11930WAT     H136032   7.089   4.387   3.984
11930WAT     H236033   7.035   4.240   4.031
11931WAT      O36034   7.706   7.102   1.297
11931WAT     H136035   7.768   7.075   1.371
11931WAT     H236036   7.611   7.091   1.328
11932WAT      O36037   7.996   7.783   9.837
11932WAT     H136038   8.027   7.760   9.745
11932WAT     H236039   7.979   7.698   9.888
11933WAT      O36040   6.114   8.135   2.925
11933WAT     H136041   6.050   8.069   2.966
11933WAT     H236042   6.128   8.112   2.829
11934WAT      O36043   8.357   9.000   5.262
11934WAT     H136044   8.396   9.092   5.253
11934WAT     H236045   8.334   8.965   5.171
11935WAT      O36046   0.370   1.670   1.057
11935WAT     H136047   0.430   1.721   1.119
11935WAT     H236048   0.286   1.644   1.104
11936WAT      O36049   7.707   7.478   3.035
11936WAT     H136050   7.788   7.467   2.977
11936WAT     H236051   7.705   7.405   3.102
11937WAT      O36052   4.859   3.875   1.051
11937WAT     H136053   4.926   3.946   1.028
11937WAT     H236054   4.904   3.786   1.055
11938WAT      O36055   4.321   3.344   4.709
11938WAT     H136056   4.285   3.291   4.785
11938WAT     H236057   4.419   3.360   4.724
11939WAT      O36058   1.103   4.695   1.491
11939WAT     H136059   1.051   4.683   1.575
11939WAT     H236060   1.044   4.736   1.421
11940WAT      O36061   5.372   0.418   4.117
11940WAT     H136062   5.441   0.400   4.186
11940WAT     H236063   5.408   0.395   4.026
11941WAT      O36064   7.059   8.686   8.492
11941WAT     H136065   7.041   8.620   8.419
11941WAT     H236066   7.006   8.769   8.476
11942WAT      O36067   8.233   1.243   1.626
11942WAT     H136068   8.271   1.153   1.608
11942WAT     H236069   8.297   1.295   1.683
11943WAT      O36070   5.891   8.609   2.818
11943WAT     H136071   5.957   8.570   2.882
11943WAT     H236072   5.930   8.607   2.725
11944WAT      O36073   2.701   6.308   1.878
11944WAT     H136074   2.734   6.252   1.954
11944WAT     H236075   2.723   6.264   1.791
11945WAT      O36076   5.542   1.207   5.411
11945WAT     H136077   5.530   1.108   5.417
11945WAT     H236078   5.529   1.237   5.317
11946WAT      O36079   2.258   9.576   5.599
11946WAT     H136080   2.207   9.598   5.516
11946WAT     H236081   2.352   9.550   5.574
11947WAT      O36082   7.160   4.089   7.299
11947WAT     H136083   7.118   4.001   7.319
11947WAT     H236084   7.251   4.093   7.341
11948WAT      O36085   5.621   4.038   5.217
11948WAT     H136086   5.521   4.043   5.221
11948WAT     H236087   5.650   4.028   5.122
11949WAT      O36088   2.062   4.126   7.947
11949WAT     H136089   2.108   4.061   8.007
11949WAT     H236090   2.130   4.181   7.899
11950WAT      O36091   7.865   1.710   4.342
11950WAT     H136092   7.825   1.737   4.430
11950WAT     H236093   7.864   1.789   4.280
11951WAT      O36094   8.473   4.942   8.274
11951WAT     H136095   8.442   5.036   8.264
11951WAT     H236096   8.547   4.924   8.209
11952WAT      O36097   4.460   5.580   0.221
11952WAT     H136098   4.491   5.665   0.262
11952WAT     H236099   4.458   5.590   0.121
11953WAT      O36100   5.414   5.845   1.374
11953WAT     H136101   5.439   5.853   1.470
11953WAT     H236102   5.318   5.872   1.362
11954WAT      O36103   9.509   4.605   1.264
11954WAT     H136104   9.507   4.684   1.202
11954WAT     H236105   9.468   4.631   1.351
11955WAT      O36106   3.865   4.885   6.712
11955WAT     H136107   3.774   4.845   6.725
11955WAT     H236108   3.869   4.931   6.623
11956WAT      O36109   2.809   3.034   3.344
11956WAT     H136110   2.757   3.110   3.382
11956WAT     H236111   2.830   3.053   3.248
11957WAT      O36112   6.608   3.216   1.077
11957WAT     H136113   6.535   3.148   1.077
11957WAT     H236114   6.572   3.304   1.108
11958WAT      O36115   1.373   5.276   0.421
11958WAT     H136116   1.392   5.207   0.351
11958WAT     H236117   1.428   5.257   0.502
11959WAT      O36118   5.144   2.441   3.326
11959WAT     H136119   5.050   2.408   3.334
11959WAT     H236120   5.187   2.399   3.246
11960WAT      O36121   9.722   6.247   1.616
11960WAT     H136122   9.681   6.266   1.705
11960WAT     H236123   9.786   6.320   1.592
11961WAT      O36124   8.692   5.106   6.684
11961WAT     H136125   8.723   5.141   6.772
11961WAT     H236126   8.709   5.007   6.679
11962WAT      O36127   6.934   1.868   9.827
11962WAT     H136128   6.948   1.881   9.925
11962WAT     H236129   6.955   1.773   9.803
11963WAT      O36130   6.301   6.527   8.969
11963WAT     H136131   6.268   6.474   8.891
11963WAT     H236132   6.303   6.624   8.946
11964WAT      O36133   7.752   6.533   2.362
11964WAT     H136134   7.825   6.531   2.293
11964WAT     H236135   7.742   6.627   2.396
11965WAT      O36136   8.471   3.886   5.428
11965WAT     H136137   8.432   3.950   5.362
11965WAT     H236138   8.571   3.893   5.428
11966WAT      O36139   9.446   9.499   3.038
11966WAT     H136140   9.517   9.443   2.995
11966WAT     H236141   9.452   9.593   3.004
11967WAT      O36142   9.046   4.390   1.223
11967WAT     H136143   9.034   4.485   1.195
11967WAT     H236144   9.143   4.371   1.238
11968WAT      O36145   2.730   9.548   4.962
11968WAT     H136146   2.726   9.644   4.989
11968WAT     H236147   2.821   9.511   4.980
11969WAT      O36148   9.182   2.756   2.079
11969WAT     H136149   9.125   2.711   2.010
11969WAT     H236150   9.217   2.687   2.142
11970WAT      O36151   5.497   2.791   1.035
11970WAT     H136152   5.488   2.798   1.135
11970WAT     H236153   5.413   2.826   0.992
11971WAT      O36154   0.578   5.432   6.152
11971WAT     H136155   0.586   5.351   6.095
11971WAT     H236156   0.497   5.425   6.210
11972WAT      O36157   4.132   7.776   1.834
11972WAT     H136158   4.175   7.748   1.748
11972WAT     H236159   4.048   7.826   1.814
11973WAT      O36160   8.257   6.603   5.155
11973WAT     H136161   8.353   6.625   5.138
11973WAT     H236162   8.199   6.665   5.102
11974WAT      O36163   8.870   6.961   4.075
11974WAT     H136164   8.851   6.995   4.166
11974WAT     H236165   8.863   6.861   4.074
11975WAT      O36166   4.738   4.724   2.655
11975WAT     H136167   4.828   4.768   2.656
11975WAT     H236168   4.688   4.748   2.739
11976WAT      O36169   7.820   7.575   8.953
11976WAT     H136170   7.753   7.555   9.024
11976WAT     H236171   7.912   7.573   8.992
11977WAT      O36172   5.480   8.055   5.776
11977WAT     H136173   5.407   8.036   5.710
11977WAT     H236174   5.463   8.144   5.819
11978WAT      O36175   0.743   7.245   9.283
11978WAT     H136176   0.657   7.265   9.237
11978WAT     H236177   0.819   7.271   9.224
11979WAT      O36178   2.503   7.598   4.680
11979WAT     H136179   2.429   7.665   4.688
11979WAT     H236180   2.591   7.645   4.680
11980WAT      O36181   3.623   3.472   5.902
11980WAT     H136182   3.598   3.502   5.994
11980WAT     H236183   3.566   3.394   5.876
11981WAT      O36184   7.492   7.537   2.211
11981WAT     H136185   7.512   7.512   2.116
11981WAT     H236186   7.558   7.605   2.242
11982WAT      O36187   0.320   6.532   9.803
11982WAT     H136188   0.287   6.498   9.891
11982WAT     H236189   0.244   6.574   9.753
11983WAT      O36190   0.482   6.099   2.622
11983WAT     H136191   0.402   6.128   2.569
11983WAT     H236192   0.453   6.045   2.700
11984WAT      O36193   9.380   3.373   3.076
11984WAT     H136194   9.402   3.360   3.172
11984WAT     H236195   9.289   3.337   3.057
11985WAT      O36196   3.101   6.415   5.549
11985WAT     H136197   3.195   6.430   5.579
11985WAT     H236198   3.062   6.337   5.599
11986WAT      O36199   7.667   2.402   9.721
11986WAT     H136200   7.673   2.314   9.767
11986WAT     H236201   7.591   2.455   9.758
11987WAT      O36202   6.612   6.915   1.461
11987WAT     H136203   6.517   6.910   1.493
11987WAT     H236204   6.659   6.829   1.482
11988WAT      O36205   9.720   0.517   4.081
11988WAT     H136206   9.667   0.456   4.141
11988WAT     H236207   9.769   0.583   4.136
11989WAT      O36208   2.132   7.177   7.781
11989WAT     H136209   2.093   7.268   7.796
11989WAT     H236210   2.214   7.167   7.838
11990WAT      O36211   8.277   4.672   5.557
11990WAT     H136212   8.258   4.759   5.601
11990WAT     H236213   8.203   4.608   5.575
11991WAT      O36214   8.743   1.216   4.756
11991WAT     H136215   8.791   1.189   4.673
11991WAT     H236216   8.803   1.205   4.835
11992WAT      O36217   4.603   6.133   0.799
11992WAT     H136218   4.541   6.109   0.874
11992WAT     H236219   4.554   6.189   0.732
11993WAT      O36220   7.649   3.455   4.319
11993WAT     H136221   7.739   3.465   4.361
11993WAT     H236222   7.658   3.413   4.229
11994WAT      O36223   4.933   1.081   4.532
11994WAT     H136224   4.970   1.021   4.603
11994WAT     H236225   4.864   1.032   4.479
11995WAT      O36226   5.946   9.634   4.372
11995WAT     H136227   5.984   9.681   4.451
11995WAT     H236228   5.992   9.665   4.289
11996WAT      O36229   7.355   5.358   3.164
11996WAT     H136230   7.426   5.310   3.113
11996WAT     H236231   7.271   5.360   3.110
11997WAT      O36232   4.181   0.364   1.350
11997WAT     H136233   4.163   0.277   1.396
11997WAT     H236234   4.148   0.439   1.407
11998WAT      O36235   0.751   5.980   1.332
11998WAT     H136236   0.812   5.906   1.302
11998WAT     H236237   0.675   5.941   1.384
11999WAT      O36238   3.794   7.664   4.676
11999WAT     H136239   3.731   7.710   4.613
11999WAT     H236240   3.746   7.591   4.724
12000WAT      O36241   6.445   4.925   4.079
12000WAT     H136242   6.393   4.886   4.003
12000WAT     H236243   6.542   4.922   4.058
12001WAT      O36244   3.854   0.937   1.550
12001WAT     H136245   3.780   0.901   1.607
12001WAT     H236246   3.905   1.007   1.600
12002WAT      O36247   7.298   0.596   1.872
12002WAT     H136248   7.230   0.669   1.872
12002WAT     H236249   7.385   0.631   1.837
12003WAT      O36250   4.643   2.212   0.870
12003WAT     H136251   4.577   2.138   0.866
12003WAT     H236252   4.628   2.274   0.793
12004WAT      O36253   6.247   6.854   0.956
12004WAT     H136254   6.252   6.760   0.989
12004WAT     H236255   6.326   6.905   0.988
12005WAT      O36256   7.136   4.678   0.633
12005WAT     H136257   7.065   4.625   0.586
12005WAT     H236258   7.144   4.768   0.591
12006WAT      O36259   8.961   6.393   3.184
12006WAT     H136260   8.935   6.333   3.109
12006WAT     H236261   9.059   6.384   3.202
12007WAT      O36262   4.599   9.758   7.024
12007WAT     H136263   4.546   9.843   7.017
12007WAT     H236264   4.538   9.680   7.009
12008WAT      O36265   4.895   6.856   8.265
12008WAT     H136266   4.950   6.890   8.342
12008WAT     H236267   4.948   6.866   8.181
12009WAT      O36268   0.566   7.376   2.166
12009WAT     H136269   0.518   7.401   2.249
12009WAT     H236270   0.592   7.459   2.116
12010WAT      O36271   1.499   1.216   7.400
12010WAT     H136272   1.597   1.208   7.413
12010WAT     H236273   1.451   1.163   7.470
12011WAT      O36274   0.204   4.708   0.151
12011WAT     H136275   0.164   4.711   0.059
12011WAT     H236276   0.265   4.786   0.163
12012WAT      O36277   6.112   8.736   3.429
12012WAT     H136278   6.179   8.712   3.500
12012WAT     H236279   6.161   8.770   3.348
12013WAT      O36280   7.982   5.271   5.550
12013WAT     H136281   8.002   5.335   5.476
12013WAT     H236282   7.957   5.182   5.511
12014WAT      O36283   6.918   8.306   4.838
12014WAT     H136284   6.991   8.325   4.904
12014WAT     H236285   6.915   8.379   4.769
12015WAT      O36286   3.424   1.764   0.510
12015WAT     H136287   3.410   1.689   0.446
12015WAT     H236288   3.505   1.746   0.566
12016WAT      O36289   1.779   9.408   9.452
12016WAT     H136290   1.802   9.363   9.365
12016WAT     H236291   1.680   9.408   9.464
12017WAT      O36292   9.518   2.405   9.709
12017WAT     H136293   9.560   2.479   9.656
12017WAT     H236294   9.587   2.367   9.771
12018WAT      O36295   5.907   6.993   0.448
12018WAT     H136296   5.962   6.957   0.373
12018WAT     H236297   5.822   7.031   0.412
12019WAT      O36298   4.190   6.476   5.210
12019WAT     H136299   4.217   6.519   5.124
12019WAT     H236300   4.099   6.437   5.201
12020WAT      O36301   4.004   8.435   8.263
12020WAT     H136302   3.908   8.450   8.285
12020WAT     H236303   4.054   8.521   8.269
12021WAT      O36304   6.193   9.019   6.726
12021WAT     H136305   6.272   8.977   6.772
12021WAT     H236306   6.110   8.972   6.754
12022WAT      O36307   8.681   4.110   8.393
12022WAT     H136308   8.697   4.196   8.439
12022WAT     H236309   8.692   4.122   8.294
12023WAT      O36310   7.392   9.271   4.760
12023WAT     H136311   7.331   9.339   4.719
12023WAT     H236312   7.465   9.317   4.811
12024WAT      O36313   9.440   3.086   5.107
12024WAT     H136314   9.379   3.032   5.166
12024WAT     H236315   9.457   3.175   5.149
12025WAT      O36316   6.570   1.829   6.855
12025WAT     H136317   6.507   1.902   6.829
12025WAT     H236318   6.589   1.835   6.953
12026WAT      O36319   6.268   2.046   7.089
12026WAT     H136320   6.217   1.964   7.064
12026WAT     H236321   6.266   2.058   7.188
12027WAT      O36322   1.601   3.087   6.163
12027WAT     H136323   1.691   3.126   6.147
12027WAT     H236324   1.602   2.990   6.137
12028WAT      O36325   7.148   8.071   3.404
12028WAT     H136326   7.103   8.061   3.316
12028WAT     H236327   7.117   8.157   3.447
12029WAT      O36328   1.250   2.697   6.172
12029WAT     H136329   1.305   2.624   6.131
12029WAT     H236330   1.154   2.668   6.175
12030WAT      O36331   2.783   9.669   9.544
12030WAT     H136332   2.718   9.595   9.529
12030WAT     H236333   2.858   9.637   9.601
12031WAT      O36334   1.890   8.947   8.673
12031WAT     H136335   1.901   9.044   8.650
12031WAT     H236336   1.799   8.917   8.645
12032WAT      O36337   2.698   3.952   5.695
12032WAT     H136338   2.690   3.932   5.793
12032WAT     H236339   2.719   3.867   5.645
12033WAT      O36340   9.242   4.324   4.693
12033WAT     H136341   9.292   4.258   4.636
12033WAT     H236342   9.154   4.343   4.651
12034WAT      O36343   7.787   6.003   6.737
12034WAT     H136344   7.696   6.022   6.773
12034WAT     H236345   7.785   5.916   6.687
12035WAT      O36346   7.430   9.435   1.206
12035WAT     H136347   7.344   9.440   1.155
12035WAT     H236348   7.506   9.457   1.145
12036WAT      O36349   6.727   6.497   5.706
12036WAT     H136350   6.710   6.439   5.626
12036WAT     H236351   6.640   6.514   5.754
12037WAT      O36352   6.379   3.030   7.007
12037WAT     H136353   6.345   3.085   7.082
12037WAT     H236354   6.306   3.017   6.939
12038WAT      O36355   6.013   0.896   5.853
12038WAT     H136356   5.962   0.972   5.812
12038WAT     H236357   5.949   0.830   5.892
12039WAT      O36358   2.056   0.924   3.825
12039WAT     H136359   1.957   0.910   3.829
12039WAT     H236360   2.080   0.970   3.740
12040WAT      O36361   8.006   4.992   3.218
12040WAT     H136362   8.011   5.091   3.222
12040WAT     H236363   7.911   4.963   3.215
12041WAT      O36364   7.214   4.524   7.227
12041WAT     H136365   7.217   4.519   7.327
12041WAT     H236366   7.296   4.569   7.193
12042WAT      O36367   1.932   0.108   0.138
12042WAT     H136368   2.014   0.096   0.194
12042WAT     H236369   1.940   0.053   0.055
12043WAT      O36370   4.065   4.805   3.658
12043WAT     H136371   4.070   4.775   3.562
12043WAT     H236372   4.156   4.833   3.689
12044WAT      O36373   1.570   6.812   9.697
12044WAT     H136374   1.476   6.779   9.702
12044WAT     H236375   1.574   6.893   9.639
12045WAT      O36376   3.749   7.290   9.361
12045WAT     H136377   3.717   7.300   9.266
12045WAT     H236378   3.780   7.378   9.395
12046WAT      O36379   5.520   9.357   1.349
12046WAT     H136380   5.540   9.411   1.267
12046WAT     H236381   5.601   9.304   1.375
12047WAT      O36382   0.439   3.658   9.279
12047WAT     H136383   0.415   3.739   9.333
12047WAT     H236384   0.382   3.655   9.197
12048WAT      O36385   7.639   6.788   9.304
12048WAT     H136386   7.668   6.724   9.233
12048WAT     H236387   7.712   6.799   9.371
12049WAT      O36388   6.878   0.496   2.398
12049WAT     H136389   6.962   0.474   2.348
12049WAT     H236390   6.800   0.490   2.336
12050WAT      O36391   1.611   5.363   2.071
12050WAT     H136392   1.633   5.266   2.082
12050WAT     H236393   1.625   5.389   1.975
12051WAT      O36394   4.965   3.382   8.511
12051WAT     H136395   4.875   3.426   8.518
12051WAT     H236396   4.962   3.311   8.441
12052WAT      O36397   7.450   3.108   7.081
12052WAT     H136398   7.519   3.164   7.033
12052WAT     H236399   7.482   3.088   7.173
12053WAT      O36400   4.858   4.941   4.042
12053WAT     H136401   4.867   4.893   4.129
12053WAT     H236402   4.915   5.023   4.042
12054WAT      O36403   3.138   4.229   2.186
12054WAT     H136404   3.093   4.139   2.186
12054WAT     H236405   3.227   4.221   2.231
12055WAT      O36406   0.466   9.030   9.526
12055WAT     H136407   0.534   9.009   9.456
12055WAT     H236408   0.450   9.129   9.528
12056WAT      O36409   2.813   8.070   0.629
12056WAT     H136410   2.819   8.169   0.612
12056WAT     H236411   2.750   8.029   0.563
12057WAT      O36412   0.177   0.391   7.286
12057WAT     H136413   0.135   0.345   7.207
12057WAT     H236414   0.108   0.442   7.335
12058WAT      O36415   1.992   3.051   1.721
12058WAT     H136416   1.930   2.974   1.709
12058WAT     H236417   2.084   3.017   1.742
12059WAT      O36418   3.939   2.923   3.889
12059WAT     H136419   3.896   2.853   3.832
12059WAT     H236420   3.964   2.883   3.977
12060WAT      O36421   1.064   0.040   2.198
12060WAT     H136422   1.056   0.083   2.108
12060WAT     H236423   0.983  -0.016   2.215
12061WAT      O36424   9.479   1.931   3.309
12061WAT     H136425   9.577   1.951   3.306
12061WAT     H236426   9.428   2.017   3.318
12062WAT      O36427   5.494   4.496   4.133
12062WAT     H136428   5.560   4.495   4.208
12062WAT     H236429   5.511   4.418   4.073
12063WAT      O36430   2.101   3.218   0.121
12063WAT     H136431   2.080   3.189   0.214
12063WAT     H236432   2.192   3.185   0.095
12064WAT      O36433   2.747   0.415   6.370
12064WAT     H136434   2.659   0.463   6.369
12064WAT     H236435   2.811   0.461   6.308
12065WAT      O36436   6.012   6.434   3.593
12065WAT     H136437   5.940   6.444   3.662
12065WAT     H236438   6.025   6.337   3.572
12066WAT      O36439   5.124   9.671   3.073
12066WAT     H136440   5.160   9.633   2.988
12066WAT     H236441   5.152   9.767   3.080
12067WAT      O36442   5.567   0.363   3.901
12067WAT     H136443   5.632   0.438   3.911
12067WAT     H236444   5.591   0.290   3.965
12068WAT      O36445   5.738   9.058   9.006
12068WAT     H136446   5.660   9.114   8.977
12068WAT     H236447   5.813   9.069   8.942
12069WAT      O36448   1.598   6.268   6.620
12069WAT     H136449   1.632   6.327   6.546
12069WAT     H236450   1.554   6.187   6.580
12070WAT      O36451   5.032   4.468   6.518
12070WAT     H136452   4.942   4.510   6.509
12070WAT     H236453   5.097   4.516   6.460
12071WAT      O36454   2.492   5.863   7.965
12071WAT     H136455   2.546   5.919   7.901
12071WAT     H236456   2.471   5.775   7.922
12072WAT      O36457   8.188   1.888   3.837
12072WAT     H136458   8.116   1.870   3.904
12072WAT     H236459   8.256   1.949   3.877
12073WAT      O36460   3.311   3.277   1.487
12073WAT     H136461   3.297   3.259   1.585
12073WAT     H236462   3.331   3.375   1.474
12074WAT      O36463   9.870   8.575   5.654
12074WAT     H136464   9.825   8.525   5.728
12074WAT     H236465   9.804   8.597   5.583
12075WAT      O36466   4.715   6.645   1.854
12075WAT     H136467   4.762   6.681   1.774
12075WAT     H236468   4.645   6.579   1.825
12076WAT      O36469   3.908   7.009   3.349
12076WAT     H136470   3.959   6.981   3.268
12076WAT     H236471   3.909   7.109   3.355
12077WAT      O36472   1.617   6.479   4.739
12077WAT     H136473   1.542   6.485   4.805
12077WAT     H236474   1.675   6.400   4.762
12078WAT      O36475   8.570   6.088   0.966
12078WAT     H136476   8.528   6.178   0.974
12078WAT     H236477   8.584   6.066   0.870
12079WAT      O36478   9.236   0.013   1.759
12079WAT     H136479   9.299   0.033   1.834
12079WAT     H236480   9.289  -0.010   1.677
12080WAT      O36481   7.225   4.910   6.349
12080WAT     H136482   7.141   4.859   6.333
12080WAT     H236483   7.215   5.003   6.314
12081WAT      O36484   7.218   7.704   6.057
12081WAT     H136485   7.241   7.712   6.154
12081WAT     H236486   7.132   7.752   6.040
12082WAT      O36487   1.643   5.282   9.287
12082WAT     H136488   1.659   5.333   9.371
12082WAT     H236489   1.551   5.242   9.289
12083WAT      O36490   6.958   7.383   7.929
12083WAT     H136491   7.056   7.406   7.928
12083WAT     H236492   6.940   7.312   7.860
12084WAT      O36493   7.644   3.775   0.198
12084WAT     H136494   7.632   3.761   0.099
12084WAT     H236495   7.707   3.850   0.214
12085WAT      O36496   9.806   9.312   4.160
12085WAT     H136497   9.903   9.302   4.181
12085WAT     H236498   9.768   9.224   4.133
12086WAT      O36499   8.843   0.229   5.684
12086WAT     H136500   8.939   0.222   5.710
12086WAT     H236501   8.811   0.322   5.699
12087WAT      O36502   1.348   8.136   6.653
12087WAT     H136503   1.332   8.039   6.672
12087WAT     H236504   1.382   8.181   6.735
12088WAT      O36505   3.725   2.642   9.777
12088WAT     H136506   3.795   2.712   9.794
12088WAT     H236507   3.718   2.582   9.856
12089WAT      O36508   3.926   7.747   0.672
12089WAT     H136509   3.949   7.818   0.606
12089WAT     H236510   3.984   7.667   0.657
12090WAT      O36511   1.454   8.978   5.651
12090WAT     H136512   1.493   8.963   5.560
12090WAT     H236513   1.521   8.951   5.721
12091WAT      O36514   5.377   1.734   3.763
12091WAT     H136515   5.307   1.700   3.826
12091WAT     H236516   5.344   1.725   3.669
12092WAT      O36517   8.412   0.411   6.044
12092WAT     H136518   8.472   0.379   5.971
12092WAT     H236519   8.355   0.486   6.009
12093WAT      O36520   5.354   0.464   0.351
12093WAT     H136521   5.274   0.428   0.304
12093WAT     H236522   5.350   0.564   0.352
12094WAT      O36523   0.841   6.371   4.924
12094WAT     H136524   0.927   6.328   4.896
12094WAT     H236525   0.801   6.421   4.847
12095WAT      O36526   6.298   1.678   0.055
12095WAT     H136527   6.338   1.596   0.014
12095WAT     H236528   6.294   1.667   0.154
12096WAT      O36529   8.304   5.023   6.416
12096WAT     H136530   8.330   5.022   6.513
12096WAT     H236531   8.289   4.930   6.385
12097WAT      O36532   1.869   5.724   5.709
12097WAT     H136533   1.892   5.817   5.681
12097WAT     H236534   1.915   5.703   5.795
12098WAT      O36535   2.941   8.550   1.543
12098WAT     H136536   2.858   8.496   1.533
12098WAT     H236537   3.018   8.490   1.564
12099WAT      O36538   1.975   3.200   2.045
12099WAT     H136539   1.926   3.113   2.035
12099WAT     H236540   1.921   3.273   2.003
12100WAT      O36541   2.935   9.297   3.855
12100WAT     H136542   2.874   9.366   3.895
12100WAT     H236543   2.909   9.281   3.760
12101WAT      O36544   7.752   1.149   3.598
12101WAT     H136545   7.688   1.098   3.656
12101WAT     H236546   7.726   1.246   3.597
12102WAT      O36547   0.077   5.704   3.629
12102WAT     H136548  -0.004   5.656   3.597
12102WAT     H236549   0.142   5.714   3.554
12103WAT      O36550   6.967   2.146   0.904
12103WAT     H136551   7.032   2.077   0.874
12103WAT     H236552   7.006   2.199   0.979
12104WAT      O36553   5.953   6.980   2.372
12104WAT     H136554   5.881   6.954   2.307
12104WAT     H236555   5.989   7.070   2.347
12105WAT      O36556   2.421   9.699   0.392
12105WAT     H136557   2.368   9.739   0.467
12105WAT     H236558   2.359   9.660   0.324
12106WAT      O36559   8.573   1.928   8.466
12106WAT     H136560   8.608   1.960   8.378
12106WAT     H236561   8.584   1.829   8.472
12107WAT      O36562   2.385   7.633   0.627
12107WAT     H136563   2.401   7.535   0.615
12107WAT     H236564   2.407   7.681   0.542
12108WAT      O36565   2.010   7.826   6.697
12108WAT     H136566   2.084   7.890   6.674
12108WAT     H236567   2.027   7.738   6.653
12109WAT      O36568   5.410   0.336   8.504
12109WAT     H136569   5.429   0.242   8.474
12109WAT     H236570   5.403   0.395   8.424
12110WAT      O36571   6.784   7.069   0.174
12110WAT     H136572   6.795   7.027   0.084
12110WAT     H236573   6.689   7.058   0.204
12111WAT      O36574   7.034   7.089   3.479
12111WAT     H136575   7.130   7.082   3.454
12111WAT     H236576   7.010   7.185   3.497
12112WAT      O36577   3.656   8.598   6.723
12112WAT     H136578   3.563   8.628   6.701
12112WAT     H236579   3.670   8.507   6.686
12113WAT      O36580   2.314   5.608   5.211
12113WAT     H136581   2.255   5.529   5.223
12113WAT     H236582   2.342   5.614   5.115
12114WAT      O36583   8.154   5.864   7.360
12114WAT     H136584   8.228   5.928   7.340
12114WAT     H236585   8.066   5.910   7.346
12115WAT      O36586   7.720   6.343   1.502
12115WAT     H136587   7.750   6.256   1.465
12115WAT     H236588   7.710   6.336   1.601
12116WAT      O36589   1.824   9.750   2.432
12116WAT     H136590   1.824   9.831   2.490
12116WAT     H236591   1.801   9.670   2.488
12117WAT      O36592   9.292   0.304   6.238
12117WAT     H136593   9.324   0.231   6.299
12117WAT     H236594   9.345   0.303   6.153
12118WAT      O36595   6.245   2.646   9.037
12118WAT     H136596   6.307   2.586   8.985
12118WAT     H236597   6.213   2.597   9.118
12119WAT      O36598   9.877   4.460   1.067
12119WAT     H136599   9.796   4.438   1.121
12119WAT     H236600   9.892   4.389   0.999
12120WAT      O36601   9.135   7.458   6.394
12120WAT     H136602   9.113   7.554   6.378
12120WAT     H236603   9.060   7.400   6.362
12121WAT      O36604   2.273   0.777   4.433
12121WAT     H136605   2.206   0.773   4.508
12121WAT     H236606   2.256   0.859   4.378
12122WAT      O36607   8.897   7.817   4.932
12122WAT     H136608   8.858   7.771   4.852
12122WAT     H236609   8.829   7.818   5.006
12123WAT      O36610   8.070   2.754   8.612
12123WAT     H136611   8.127   2.731   8.691
12123WAT     H236612   8.128   2.788   8.537
12124WAT      O36613   4.807   7.337   2.295
12124WAT     H136614   4.850   7.403   2.356
12124WAT     H236615   4.878   7.288   2.244
12125WAT      O36616   0.958   1.190   6.858
12125WAT     H136617   1.008   1.266   6.815
12125WAT     H236618   1.021   1.135   6.912
12126WAT      O36619   5.015   9.223   8.212
12126WAT     H136620   4.972   9.134   8.226
12126WAT     H236621   5.114   9.215   8.224
12127WAT      O36622   8.910   2.633   3.511
12127WAT     H136623   8.990   2.693   3.505
12127WAT     H236624   8.831   2.680   3.473
12128WAT      O36625   9.783   9.066   4.831
12128WAT     H136626   9.869   9.093   4.876
12128WAT     H236627   9.790   9.086   4.733
12129WAT      O36628   5.627   4.445   2.501
12129WAT     H136629   5.577   4.407   2.579
12129WAT     H236630   5.582   4.529   2.470
12130WAT      O36631   4.755   4.563   1.722
12130WAT     H136632   4.849   4.542   1.697
12130WAT     H236633   4.720   4.492   1.783
12131WAT      O36634   9.452   0.445   8.722
12131WAT     H136635   9.535   0.397   8.694
12131WAT     H236636   9.467   0.488   8.811
12132WAT      O36637   8.691   5.163   9.057
12132WAT     H136638   8.780   5.200   9.029
12132WAT     H236639   8.618   5.224   9.026
12133WAT      O36640   9.507   3.742   6.758
12133WAT     H136641   9.409   3.757   6.745
12133WAT     H236642   9.541   3.803   6.830
12134WAT      O36643   2.800   4.448   6.320
12134WAT     H136644   2.751   4.477   6.403
12134WAT     H236645   2.819   4.528   6.263
12135WAT      O36646   3.505   6.845   7.348
12135WAT     H136647   3.567   6.908   7.301
12135WAT     H236648   3.537   6.751   7.336
12136WAT      O36649   0.685   9.254   3.531
12136WAT     H136650   0.725   9.266   3.622
12136WAT     H236651   0.655   9.159   3.521
12137WAT      O36652   6.581   8.352   3.759
12137WAT     H136653   6.620   8.424   3.701
12137WAT     H236654   6.606   8.263   3.723
12138WAT      O36655   7.567   8.241   2.724
12138WAT     H136656   7.542   8.147   2.748
12138WAT     H236657   7.523   8.304   2.789
12139WAT      O36658   0.783   3.948   3.953
12139WAT     H136659   0.787   4.019   3.882
12139WAT     H236660   0.716   3.879   3.927
12140WAT      O36661   0.676   5.862   9.450
12140WAT     H136662   0.682   5.883   9.547
12140WAT     H236663   0.580   5.870   9.421
12141WAT      O36664   5.319   0.047   1.949
12141WAT     H136665   5.391   0.049   2.019
12141WAT     H236666   5.326  -0.037   1.896
12142WAT      O36667   4.056   1.453   7.312
12142WAT     H136668   4.149   1.490   7.309
12142WAT     H236669   3.990   1.528   7.307
12143WAT      O36670   2.334   3.423   7.522
12143WAT     H136671   2.286   3.417   7.434
12143WAT     H236672   2.415   3.365   7.519
12144WAT      O36673   2.465   8.775   8.081
12144WAT     H136674   2.424   8.691   8.115
12144WAT     H236675   2.549   8.794   8.132
12145WAT      O36676   3.908   7.593   6.284
12145WAT     H136677   3.933   7.615   6.190
12145WAT     H236678   3.990   7.593   6.342
12146WAT      O36679   4.641   1.621   4.571
12146WAT     H136680   4.557   1.651   4.615
12146WAT     H236681   4.624   1.538   4.518
12147WAT      O36682   9.145   4.157   7.230
12147WAT     H136683   9.137   4.173   7.131
12147WAT     H236684   9.056   4.128   7.266
12148WAT      O36685   7.210   7.403   0.681
12148WAT     H136686   7.252   7.313   0.668
12148WAT     H236687   7.124   7.407   0.630
12149WAT      O36688   3.936   1.493   5.772
12149WAT     H136689   3.857   1.433   5.783
12149WAT     H236690   4.009   1.443   5.725
12150WAT      O36691   4.506   1.051   6.852
12150WAT     H136692   4.561   1.008   6.924
12150WAT     H236693   4.556   1.048   6.765
12151WAT      O36694   2.855   9.279   0.658
12151WAT     H136695   2.916   9.315   0.588
12151WAT     H236696   2.761   9.311   0.641
12152WAT      O36697   9.503   0.347   4.600
12152WAT     H136698   9.569   0.308   4.535
12152WAT     H236699   9.543   0.348   4.691
12153WAT      O36700   5.250   8.447   1.216
12153WAT     H136701   5.313   8.389   1.164
12153WAT     H236702   5.195   8.390   1.277
12154WAT      O36703   5.554   3.929   4.816
12154WAT     H136704   5.512   3.964   4.732
12154WAT     H236705   5.640   3.883   4.793
12155WAT      O36706   4.899   1.145   2.702
12155WAT     H136707   4.995   1.155   2.725
12155WAT     H236708   4.867   1.055   2.731
12156WAT      O36709   8.568   1.975   4.884
12156WAT     H136710   8.645   1.982   4.947
12156WAT     H236711   8.598   1.999   4.791
12157WAT      O36712   5.566   7.230   2.613
12157WAT     H136713   5.643   7.293   2.609
12157WAT     H236714   5.482   7.281   2.633
12158WAT      O36715   4.294   7.658   6.784
12158WAT     H136716   4.261   7.716   6.709
12158WAT     H236717   4.394   7.662   6.787
12159WAT      O36718   3.197   0.903   3.907
12159WAT     H136719   3.175   0.902   3.810
12159WAT     H236720   3.286   0.947   3.921
12160WAT      O36721   5.829   9.132   6.540
12160WAT     H136722   5.865   9.153   6.449
12160WAT     H236723   5.883   9.180   6.609
12161WAT      O36724   7.190   9.226   5.676
12161WAT     H136725   7.159   9.316   5.644
12161WAT     H236726   7.110   9.168   5.692
12162WAT      O36727   1.885   6.982   8.145
12162WAT     H136728   1.910   6.885   8.141
12162WAT     H236729   1.967   7.036   8.167
12163WAT      O36730   5.844   0.715   3.517
12163WAT     H136731   5.747   0.739   3.512
12163WAT     H236732   5.869   0.694   3.612
12164WAT      O36733   3.100   6.508   8.415
12164WAT     H136734   3.110   6.481   8.511
12164WAT     H236735   3.022   6.569   8.405
12165WAT      O36736   0.139   6.656   8.303
12165WAT     H136737   0.085   6.708   8.237
12165WAT     H236738   0.185   6.719   8.365
12166WAT      O36739   3.728   7.355   9.725
12166WAT     H136740   3.810   7.355   9.667
12166WAT     H236741   3.716   7.446   9.765
12167WAT      O36742   7.675   6.004   4.589
12167WAT     H136743   7.659   6.102   4.598
12167WAT     H236744   7.750   5.989   4.524
12168WAT      O36745   3.720   4.246   5.017
12168WAT     H136746   3.703   4.205   5.106
12168WAT     H236747   3.642   4.302   4.990
12169WAT      O36748   4.531   0.937   4.039
12169WAT     H136749   4.614   0.913   4.088
12169WAT     H236750   4.506   0.863   3.976
12170WAT      O36751   5.238   8.536   4.800
12170WAT     H136752   5.239   8.494   4.890
12170WAT     H236753   5.147   8.530   4.760
12171WAT      O36754   6.808   6.330   1.838
12171WAT     H136755   6.713   6.356   1.821
12171WAT     H236756   6.816   6.295   1.932
12172WAT      O36757   7.835   7.491   1.057
12172WAT     H136758   7.744   7.481   1.017
12172WAT     H236759   7.842   7.579   1.104
12173WAT      O36760   6.098   9.120   4.058
12173WAT     H136761   6.182   9.067   4.046
12173WAT     H236762   6.021   9.069   4.020
12174WAT      O36763   2.146   7.018   5.000
12174WAT     H136764   2.198   7.014   4.915
12174WAT     H236765   2.190   7.081   5.064
12175WAT      O36766   5.448   9.623   5.620
12175WAT     H136767   5.449   9.682   5.702
12175WAT     H236768   5.528   9.644   5.564
12176WAT      O36769   9.130   2.588   0.619
12176WAT     H136770   9.110   2.533   0.538
12176WAT     H236771   9.046   2.600   0.672
12177WAT      O36772   4.627   9.826   0.574
12177WAT     H136773   4.659   9.778   0.493
12177WAT     H236774   4.552   9.775   0.616
12178WAT      O36775   9.504   2.064   3.770
12178WAT     H136776   9.527   2.034   3.863
12178WAT     H236777   9.476   1.985   3.716
12179WAT      O36778   3.868   0.003   9.215
12179WAT     H136779   3.853   0.093   9.255
12179WAT     H236780   3.828  -0.067   9.274
12180WAT      O36781   1.854   5.285   7.253
12180WAT     H136782   1.849   5.357   7.183
12180WAT     H236783   1.763   5.272   7.293
12181WAT      O36784   1.090   5.208   3.429
12181WAT     H136785   1.144   5.133   3.391
12181WAT     H236786   0.997   5.177   3.447
12182WAT      O36787   9.478   8.066   4.018
12182WAT     H136788   9.401   8.093   3.959
12182WAT     H236789   9.558   8.121   3.995
12183WAT      O36790   7.884   9.036   8.418
12183WAT     H136791   7.958   8.969   8.418
12183WAT     H236792   7.893   9.095   8.498
12184WAT      O36793   1.339   8.564   7.646
12184WAT     H136794   1.358   8.648   7.596
12184WAT     H236795   1.250   8.528   7.619
12185WAT      O36796   3.125   2.177   4.517
12185WAT     H136797   3.116   2.099   4.455
12185WAT     H236798   3.199   2.160   4.582
12186WAT      O36799   3.681   6.661   3.946
12186WAT     H136800   3.665   6.654   3.848
12186WAT     H236801   3.696   6.570   3.985
12187WAT      O36802   9.879   7.374   1.595
12187WAT     H136803   9.924   7.293   1.635
12187WAT     H236804   9.878   7.366   1.496
12188WAT      O36805   4.367   9.581   4.134
12188WAT     H136806   4.369   9.603   4.232
12188WAT     H236807   4.455   9.604   4.093
12189WAT      O36808   2.886   1.787   1.038
12189WAT     H136809   2.790   1.814   1.028
12189WAT     H236810   2.922   1.822   1.125
12190WAT      O36811   6.940   2.146   2.489
12190WAT     H136812   6.947   2.105   2.580
12190WAT     H236813   6.914   2.075   2.423
12191WAT      O36814   2.047   2.895   8.854
12191WAT     H136815   2.137   2.936   8.838
12191WAT     H236816   2.022   2.838   8.776
12192WAT      O36817   4.999   9.676   8.224
12192WAT     H136818   5.081   9.624   8.249
12192WAT     H236819   4.920   9.614   8.220
12193WAT      O36820   4.836   7.574   8.686
12193WAT     H136821   4.769   7.500   8.689
12193WAT     H236822   4.866   7.596   8.779
12194WAT      O36823   3.640   6.216   9.197
12194WAT     H136824   3.706   6.200   9.124
12194WAT     H236825   3.619   6.314   9.202
12195WAT      O36826   6.294   5.699   8.788
12195WAT     H136827   6.342   5.612   8.802
12195WAT     H236828   6.223   5.687   8.719
12196WAT      O36829   1.660   0.452   1.294
12196WAT     H136830   1.575   0.445   1.242
12196WAT     H236831   1.662   0.540   1.341
12197WAT      O36832   3.447   4.317   0.911
12197WAT     H136833   3.519   4.301   0.844
12197WAT     H236834   3.385   4.387   0.876
12198WAT      O36835   9.270   9.624   8.723
12198WAT     H136836   9.364   9.614   8.756
12198WAT     H236837   9.263   9.588   8.630
12199WAT      O36838   4.294   4.209   4.248
12199WAT     H136839   4.338   4.231   4.161
12199WAT     H236840   4.195   4.211   4.237
12200WAT      O36841   2.834   0.344   8.028
12200WAT     H136842   2.859   0.359   8.124
12200WAT     H236843   2.753   0.285   8.024
12201WAT      O36844   2.810   7.075   0.722
12201WAT     H136845   2.831   6.999   0.783
12201WAT     H236846   2.820   7.045   0.627
12202WAT      O36847   3.641   9.388   6.414
12202WAT     H136848   3.571   9.417   6.480
12202WAT     H236849   3.732   9.402   6.454
12203WAT      O36850   9.565   4.332   9.237
12203WAT     H136851   9.622   4.378   9.170
12203WAT     H236852   9.469   4.356   9.221
12204WAT      O36853   2.671   7.816   5.103
12204WAT     H136854   2.705   7.740   5.048
12204WAT     H236855   2.597   7.862   5.054
12205WAT      O36856   7.147   6.404   4.391
12205WAT     H136857   7.145   6.373   4.296
12205WAT     H236858   7.149   6.324   4.452
12206WAT      O36859   8.490   1.167   6.281
12206WAT     H136860   8.424   1.219   6.334
12206WAT     H236861   8.514   1.083   6.330
12207WAT      O36862   2.121   3.979   0.613
12207WAT     H136863   2.066   3.929   0.680
12207WAT     H236864   2.082   3.967   0.522
12208WAT      O36865   7.255   3.244   9.739
12208WAT     H136866   7.260   3.211   9.645
12208WAT     H236867   7.275   3.169   9.802
12209WAT      O36868   8.878   5.801   9.444
12209WAT     H136869   8.857   5.725   9.506
12209WAT     H236870   8.876   5.769   9.349
12210WAT      O36871   6.371   6.699   7.152
12210WAT     H136872   6.273   6.686   7.136
12210WAT     H236873   6.391   6.687   7.249
12211WAT      O36874   1.553   3.138   6.445
12211WAT     H136875   1.577   3.116   6.350
12211WAT     H236876   1.476   3.082   6.473
12212WAT      O36877   8.605   6.798   3.990
12212WAT     H136878   8.534   6.863   4.015
12212WAT     H236879   8.666   6.785   4.068
12213WAT      O36880   5.187   8.790   4.442
12213WAT     H136881   5.285   8.769   4.446
12213WAT     H236882   5.145   8.769   4.531
12214WAT      O36883   5.990   5.924   0.490
12214WAT     H136884   6.009   5.964   0.580
12214WAT     H236885   6.042   5.839   0.480
12215WAT      O36886   3.509   9.091   7.291
12215WAT     H136887   3.465   9.010   7.251
12215WAT     H236888   3.444   9.167   7.292
12216WAT      O36889   6.889   9.846   6.088
12216WAT     H136890   6.938   9.761   6.071
12216WAT     H236891   6.798   9.827   6.124
12217WAT      O36892   2.208   7.510   2.060
12217WAT     H136893   2.113   7.530   2.033
12217WAT     H236894   2.208   7.465   2.150
12218WAT      O36895   3.349   4.279   3.298
12218WAT     H136896   3.255   4.297   3.326
12218WAT     H236897   3.350   4.203   3.233
12219WAT      O36898   1.447   1.380   2.161
12219WAT     H136899   1.487   1.394   2.252
12219WAT     H236900   1.438   1.468   2.115
12220WAT      O36901   4.982   6.035   9.156
12220WAT     H136902   4.992   6.052   9.058
12220WAT     H236903   5.043   5.961   9.183
12221WAT      O36904   5.327   8.893   1.242
12221WAT     H136905   5.384   8.967   1.205
12221WAT     H236906   5.252   8.932   1.294
12222WAT      O36907   4.425   0.749   2.542
12222WAT     H136908   4.504   0.689   2.552
12222WAT     H236909   4.451   0.843   2.561
12223WAT      O36910   3.062   5.926   7.264
12223WAT     H136911   3.093   5.890   7.176
12223WAT     H236912   3.022   6.016   7.251
12224WAT      O36913   2.096   8.502   5.736
12224WAT     H136914   2.140   8.455   5.812
12224WAT     H236915   2.093   8.600   5.753
12225WAT      O36916   7.466   0.666   0.958
12225WAT     H136917   7.452   0.568   0.972
12225WAT     H236918   7.430   0.717   1.036
12226WAT      O36919   6.862   6.348   7.498
12226WAT     H136920   6.766   6.375   7.495
12226WAT     H236921   6.880   6.296   7.582
12227WAT      O36922   8.381   2.719   7.123
12227WAT     H136923   8.375   2.814   7.093
12227WAT     H236924   8.299   2.696   7.177
12228WAT      O36925   0.759   9.012   1.580
12228WAT     H136926   0.681   9.067   1.552
12228WAT     H236927   0.753   8.992   1.678
12229WAT      O36928   4.863   2.203   4.869
12229WAT     H136929   4.869   2.165   4.776
12229WAT     H236930   4.924   2.153   4.929
12230WAT      O36931   7.909   7.848   0.883
12230WAT     H136932   8.005   7.875   0.893
12230WAT     H236933   7.881   7.796   0.964
12231WAT      O36934   8.337   8.329   7.920
12231WAT     H136935   8.398   8.384   7.976
12231WAT     H236936   8.390   8.276   7.854
12232WAT      O36937   4.236   8.694   6.824
12232WAT     H136938   4.207   8.598   6.823
12232WAT     H236939   4.326   8.702   6.867
12233WAT      O36940   0.819   6.120   0.429
12233WAT     H136941   0.848   6.046   0.369
12233WAT     H236942   0.874   6.121   0.512
12234WAT      O36943   8.853   0.740   5.536
12234WAT     H136944   8.845   0.784   5.446
12234WAT     H236945   8.948   0.745   5.566
12235WAT      O36946   4.221   3.556   0.692
12235WAT     H136947   4.153   3.582   0.760
12235WAT     H236948   4.261   3.638   0.652
12236WAT      O36949   2.230   5.472   9.134
12236WAT     H136950   2.316   5.494   9.180
12236WAT     H236951   2.154   5.494   9.194
12237WAT      O36952   1.061   2.036   3.516
12237WAT     H136953   1.120   1.964   3.551
12237WAT     H236954   1.109   2.086   3.444
12238WAT      O36955   9.150   5.758   9.424
12238WAT     H136956   9.160   5.667   9.385
12238WAT     H236957   9.055   5.772   9.453
12239WAT      O36958   9.112   0.504   9.407
12239WAT     H136959   9.195   0.492   9.354
12239WAT     H236960   9.079   0.598   9.398
12240WAT      O36961   1.976   8.867   2.065
12240WAT     H136962   1.886   8.833   2.091
12240WAT     H236963   2.020   8.909   2.144
12241WAT      O36964   8.547   6.196   8.034
12241WAT     H136965   8.613   6.157   7.970
12241WAT     H236966   8.559   6.155   8.124
12242WAT      O36967   8.886   0.035   2.659
12242WAT     H136968   8.983   0.044   2.634
12242WAT     H236969   8.830   0.056   2.579
12243WAT      O36970   3.899   0.667   6.960
12243WAT     H136971   3.802   0.689   6.948
12243WAT     H236972   3.913   0.569   6.945
12244WAT      O36973   0.409   5.024   1.220
12244WAT     H136974   0.334   5.061   1.276
12244WAT     H236975   0.467   5.099   1.187
12245WAT      O36976   1.076   6.842   8.947
12245WAT     H136977   1.038   6.826   8.856
12245WAT     H236978   1.139   6.768   8.970
12246WAT      O36979   9.824   1.675   2.764
12246WAT     H136980   9.798   1.671   2.861
12246WAT     H236981   9.905   1.617   2.749
12247WAT      O36982   0.176   3.906   7.689
12247WAT     H136983   0.257   3.859   7.722
12247WAT     H236984   0.112   3.839   7.651
12248WAT      O36985   6.989   0.983   3.534
12248WAT     H136986   6.953   0.962   3.443
12248WAT     H236987   6.913   0.985   3.600
12249WAT      O36988   8.419   2.578   2.862
12249WAT     H136989   8.478   2.658   2.874
12249WAT     H236990   8.457   2.500   2.911
12250WAT      O36991   0.364   4.011   6.168
12250WAT     H136992   0.330   3.928   6.213
12250WAT     H236993   0.463   4.017   6.181
12251WAT      O36994   5.477   8.984   4.289
12251WAT     H136995   5.425   9.056   4.335
12251WAT     H236996   5.523   8.927   4.357
12252WAT      O36997   6.582   5.367   1.884
12252WAT     H136998   6.614   5.357   1.978
12252WAT     H236999   6.491   5.407   1.884
12253WAT      O37000   2.421   9.535   2.042
12253WAT     H137001   2.476   9.516   1.961
12253WAT     H237002   2.419   9.633   2.059
12254WAT      O37003   9.036   7.714   6.373
12254WAT     H137004   8.954   7.701   6.429
12254WAT     H237005   9.030   7.801   6.325
12255WAT      O37006   3.601   3.072   4.261
12255WAT     H137007   3.694   3.108   4.265
12255WAT     H237008   3.561   3.091   4.171
12256WAT      O37009   5.136   0.641   3.546
12256WAT     H137010   5.087   0.722   3.514
12256WAT     H237011   5.133   0.637   3.646
12257WAT      O37012   9.182   3.653   3.485
12257WAT     H137013   9.132   3.692   3.407
12257WAT     H237014   9.154   3.558   3.498
12258WAT      O37015   7.580   1.352   0.716
12258WAT     H137016   7.575   1.287   0.792
12258WAT     H237017   7.515   1.427   0.731
12259WAT      O37018   5.711   6.359   4.852
12259WAT     H137019   5.782   6.303   4.897
12259WAT     H237020   5.749   6.400   4.769
12260WAT      O37021   9.314   7.566   9.473
12260WAT     H137022   9.273   7.477   9.492
12260WAT     H237023   9.358   7.601   9.555
12261WAT      O37024   9.582   8.747   4.550
12261WAT     H137025   9.524   8.708   4.621
12261WAT     H237026   9.621   8.674   4.494
12262WAT      O37027   4.517   2.812   6.508
12262WAT     H137028   4.575   2.804   6.427
12262WAT     H237029   4.486   2.721   6.537
12263WAT      O37030   6.654   0.875   6.765
12263WAT     H137031   6.734   0.936   6.764
12263WAT     H237032   6.605   0.887   6.851
12264WAT      O37033   0.273   1.505   9.651
12264WAT     H137034   0.228   1.416   9.662
12264WAT     H237035   0.239   1.549   9.568
12265WAT      O37036   5.049   4.128   2.242
12265WAT     H137037   4.957   4.166   2.238
12265WAT     H237038   5.112   4.195   2.279
12266WAT      O37039   8.830   3.461   9.027
12266WAT     H137040   8.749   3.515   9.004
12266WAT     H237041   8.892   3.459   8.949
12267WAT      O37042   4.699   5.965   0.234
12267WAT     H137043   4.750   5.906   0.172
12267WAT     H237044   4.661   5.911   0.309
12268WAT      O37045   2.806   4.000   9.198
12268WAT     H137046   2.707   4.011   9.204
12268WAT     H237047   2.827   3.924   9.136
12269WAT      O37048   7.945   2.792   4.184
12269WAT     H137049   7.924   2.700   4.219
12269WAT     H237050   8.013   2.835   4.242
12270WAT      O37051   9.453   3.081   0.405
12270WAT     H137052   9.535   3.125   0.368
12270WAT     H237053   9.372   3.132   0.375
12271WAT      O37054   6.149   2.529   3.572
12271WAT     H137055   6.219   2.528   3.501
12271WAT     H237056   6.140   2.622   3.608
12272WAT      O37057   9.048   2.924   8.235
12272WAT     H137058   8.962   2.976   8.230
12272WAT     H237059   9.029   2.827   8.222
12273WAT      O37060   3.429   7.700   9.625
12273WAT     H137061   3.416   7.720   9.528
12273WAT     H237062   3.451   7.784   9.674
12274WAT      O37063   0.536   1.389   2.180
12274WAT     H137064   0.597   1.312   2.162
12274WAT     H237065   0.454   1.381   2.123
12275WAT      O37066   7.245   3.574   8.845
12275WAT     H137067   7.165   3.536   8.892
12275WAT     H237068   7.231   3.672   8.832
12276WAT      O37069   6.964   8.176   0.126
12276WAT     H137070   7.011   8.262   0.107
12276WAT     H237071   6.968   8.157   0.224
12277WAT      O37072   9.437   0.931   3.549
12277WAT     H137073   9.443   1.021   3.505
12277WAT     H237074   9.385   0.939   3.634
12278WAT      O37075   0.326   0.582   1.120
12278WAT     H137076   0.415   0.585   1.166
12278WAT     H237077   0.328   0.513   1.048
12279WAT      O37078   7.412   4.030   7.345
12279WAT     H137079   7.464   4.007   7.427
12279WAT     H237080   7.416   3.953   7.281
12280WAT      O37081   3.780   5.144   0.441
12280WAT     H137082   3.810   5.150   0.346
12280WAT     H237083   3.682   5.167   0.446
12281WAT      O37084   5.001   4.259   5.460
12281WAT     H137085   5.095   4.247   5.427
12281WAT     H237086   4.987   4.354   5.487
12282WAT      O37087   2.127   0.288   6.511
12282WAT     H137088   2.209   0.295   6.455
12282WAT     H237089   2.088   0.379   6.525
12283WAT      O37090   8.305   4.413   9.467
12283WAT     H137091   8.355   4.360   9.399
12283WAT     H237092   8.238   4.472   9.421
12284WAT      O37093   8.418   0.750   7.560
12284WAT     H137094   8.493   0.793   7.610
12284WAT     H237095   8.456   0.688   7.490
12285WAT      O37096   5.635   0.215   6.649
12285WAT     H137097   5.561   0.148   6.644
12285WAT     H237098   5.723   0.169   6.637
12286WAT      O37099   4.881   0.876   8.493
12286WAT     H137100   4.904   0.806   8.426
12286WAT     H237101   4.787   0.862   8.526
12287WAT      O37102   5.753   8.610   5.741
12287WAT     H137103   5.788   8.678   5.677
12287WAT     H237104   5.830   8.559   5.780
12288WAT      O37105   7.720   8.952   7.764
12288WAT     H137106   7.718   8.922   7.669
12288WAT     H237107   7.805   8.920   7.807
12289WAT      O37108   4.385   2.994   6.786
12289WAT     H137109   4.415   2.993   6.690
12289WAT     H237110   4.335   3.078   6.805
12290WAT      O37111   8.444   3.396   4.482
12290WAT     H137112   8.513   3.468   4.485
12290WAT     H237113   8.475   3.323   4.421
12291WAT      O37114   0.864   5.036   3.780
12291WAT     H137115   0.880   5.119   3.833
12291WAT     H237116   0.825   4.965   3.839
12292WAT      O37117   0.108   9.213   0.233
12292WAT     H137118   0.159   9.164   0.163
12292WAT     H237119   0.039   9.153   0.273
12293WAT      O37120   3.965   9.305   4.722
12293WAT     H137121   4.002   9.237   4.659
12293WAT     H237122   3.953   9.264   4.812
12294WAT      O37123   0.156   6.122   5.176
12294WAT     H137124   0.101   6.151   5.255
12294WAT     H237125   0.238   6.178   5.170
12295WAT      O37126   9.742   4.994   5.433
12295WAT     H137127   9.699   4.904   5.441
12295WAT     H237128   9.841   4.983   5.433
12296WAT      O37129   9.640   3.226   1.132
12296WAT     H137130   9.591   3.142   1.108
12296WAT     H237131   9.596   3.304   1.088
12297WAT      O37132   3.930   2.389   0.451
12297WAT     H137133   3.839   2.407   0.488
12297WAT     H237134   3.926   2.312   0.388
12298WAT      O37135   9.438   9.611   5.102
12298WAT     H137136   9.423   9.707   5.082
12298WAT     H237137   9.454   9.561   5.017
12299WAT      O37138   1.120   3.305   9.132
12299WAT     H137139   1.053   3.232   9.141
12299WAT     H237140   1.119   3.362   9.215
12300WAT      O37141   4.922   8.492   9.764
12300WAT     H137142   4.932   8.573   9.820
12300WAT     H237143   5.012   8.457   9.739
12301WAT      O37144   1.412   7.940   5.251
12301WAT     H137145   1.315   7.932   5.225
12301WAT     H237146   1.459   7.854   5.229
12302WAT      O37147   6.679   1.499   1.761
12302WAT     H137148   6.700   1.411   1.717
12302WAT     H237149   6.623   1.482   1.843
12303WAT      O37150   7.486   0.942   8.587
12303WAT     H137151   7.467   1.029   8.632
12303WAT     H237152   7.426   0.931   8.508
12304WAT      O37153   4.518   9.172   6.045
12304WAT     H137154   4.564   9.231   5.979
12304WAT     H237155   4.557   9.186   6.136
12305WAT      O37156   0.612   7.597   7.697
12305WAT     H137157   0.612   7.554   7.788
12305WAT     H237158   0.608   7.526   7.627
12306WAT      O37159   3.617   6.546   0.198
12306WAT     H137160   3.668   6.460   0.198
12306WAT     H237161   3.634   6.595   0.112
12307WAT      O37162   8.956   3.079   1.364
12307WAT     H137163   8.946   3.048   1.458
12307WAT     H237164   9.011   3.162   1.362
12308WAT      O37165   2.190   2.123   1.227
12308WAT     H137166   2.153   2.112   1.319
12308WAT     H237167   2.204   2.220   1.208
12309WAT      O37168   9.461   8.313   7.970
12309WAT     H137169   9.489   8.255   7.894
12309WAT     H237170   9.501   8.280   8.055
12310WAT      O37171   5.452   6.770   3.390
12310WAT     H137172   5.496   6.783   3.302
12310WAT     H237173   5.520   6.741   3.458
12311WAT      O37174   2.439   5.229   8.811
12311WAT     H137175   2.406   5.275   8.894
12311WAT     H237176   2.535   5.253   8.796
12312WAT      O37177   3.567   8.010   1.791
12312WAT     H137178   3.508   8.050   1.721
12312WAT     H237179   3.663   8.026   1.768
12313WAT      O37180   4.367   3.792   5.305
12313WAT     H137181   4.428   3.798   5.226
12313WAT     H237182   4.402   3.850   5.378
12314WAT      O37183   7.334   2.924   4.636
12314WAT     H137184   7.280   2.856   4.586
12314WAT     H237185   7.357   2.887   4.727
12315WAT      O37186   2.653   8.357   7.159
12315WAT     H137187   2.671   8.339   7.255
12315WAT     H237188   2.666   8.273   7.106
12316WAT      O37189   7.834   0.495   5.522
12316WAT     H137190   7.829   0.537   5.431
12316WAT     H237191   7.757   0.526   5.577
12317WAT      O37192   7.527   8.191   7.222
12317WAT     H137193   7.519   8.273   7.166
12317WAT     H237194   7.510   8.214   7.318
12318WAT      O37195   0.575   0.105   8.233
12318WAT     H137196   0.594   0.010   8.211
12318WAT     H237197   0.529   0.149   8.156
12319WAT      O37198   6.930   9.062   3.102
12319WAT     H137199   6.901   8.970   3.126
12319WAT     H237200   7.019   9.081   3.145
12320WAT      O37201   4.148   9.802   2.138
12320WAT     H137202   4.056   9.775   2.165
12320WAT     H237203   4.142   9.868   2.063
12321WAT      O37204   1.293   9.705   5.017
12321WAT     H137205   1.382   9.734   4.981
12321WAT     H237206   1.307   9.630   5.082
12322WAT      O37207   4.876   8.855   6.498
12322WAT     H137208   4.945   8.924   6.476
12322WAT     H237209   4.850   8.806   6.415
12323WAT      O37210   7.116   4.227   7.049
12323WAT     H137211   7.135   4.220   7.147
12323WAT     H237212   7.193   4.271   7.003
12324WAT      O37213   6.507   5.069   2.638
12324WAT     H137214   6.587   5.089   2.582
12324WAT     H237215   6.447   5.149   2.640
12325WAT      O37216   4.957   7.904   9.105
12325WAT     H137217   4.969   7.987   9.050
12325WAT     H237218   5.046   7.869   9.133
12326WAT      O37219   6.162   5.820   2.878
12326WAT     H137220   6.084   5.758   2.888
12326WAT     H237221   6.166   5.854   2.784
12327WAT      O37222   1.247   2.882   5.414
12327WAT     H137223   1.205   2.841   5.333
12327WAT     H237224   1.345   2.861   5.415
12328WAT      O37225   7.318   3.704   0.705
12328WAT     H137226   7.219   3.697   0.716
12328WAT     H237227   7.361   3.715   0.794
12329WAT      O37228   3.187   0.430   2.086
12329WAT     H137229   3.190   0.521   2.127
12329WAT     H237230   3.148   0.365   2.151
12330WAT      O37231   9.358   5.495   3.307
12330WAT     H137232   9.339   5.404   3.267
12330WAT     H237233   9.307   5.564   3.256
12331WAT      O37234   3.435   0.449   8.959
12331WAT     H137235   3.452   0.351   8.947
12331WAT     H237236   3.391   0.486   8.878
12332WAT      O37237   0.165   2.441   8.510
12332WAT     H137238   0.234   2.505   8.544
12332WAT     H237239   0.203   2.389   8.434
12333WAT      O37240   8.700   6.228   7.460
12333WAT     H137241   8.790   6.188   7.449
12333WAT     H237242   8.704   6.325   7.437
12334WAT      O37243   3.600   1.857   1.003
12334WAT     H137244   3.635   1.798   1.076
12334WAT     H237245   3.636   1.950   1.015
12335WAT      O37246   3.865   3.009   2.639
12335WAT     H137247   3.884   3.045   2.547
12335WAT     H237248   3.817   3.078   2.693
12336WAT      O37249   1.514   7.535   9.859
12336WAT     H137250   1.464   7.596   9.798
12336WAT     H237251   1.539   7.451   9.809
12337WAT      O37252   9.875   5.269   4.830
12337WAT     H137253   9.860   5.349   4.773
12337WAT     H237254   9.791   5.215   4.835
12338WAT      O37255   1.851   8.968   1.143
12338WAT     H137256   1.862   8.966   1.242
12338WAT     H237257   1.933   9.007   1.101
12339WAT      O37258   0.593   7.261   7.128
12339WAT     H137259   0.569   7.358   7.135
12339WAT     H237260   0.647   7.246   7.045
12340WAT      O37261   7.080   5.760   6.393
12340WAT     H137262   7.142   5.789   6.465
12340WAT     H237263   7.034   5.840   6.354
12341WAT      O37264   8.471   7.060   8.129
12341WAT     H137265   8.522   7.131   8.177
12341WAT     H237266   8.415   7.102   8.057
12342WAT      O37267   6.182   2.440   8.098
12342WAT     H137268   6.260   2.480   8.050
12342WAT     H237269   6.106   2.429   8.034
12343WAT      O37270   7.171   4.935   1.324
12343WAT     H137271   7.254   4.990   1.337
12343WAT     H237272   7.186   4.868   1.252
12344WAT      O37273   4.465   2.118   3.494
12344WAT     H137274   4.370   2.120   3.524
12344WAT     H237275   4.480   2.037   3.437
12345WAT      O37276   3.638   2.654   5.132
12345WAT     H137277   3.596   2.688   5.048
12345WAT     H237278   3.619   2.557   5.143
12346WAT      O37279   9.470   5.576   7.009
12346WAT     H137280   9.543   5.560   6.943
12346WAT     H237281   9.503   5.553   7.101
12347WAT      O37282   8.528   4.883   2.638
12347WAT     H137283   8.474   4.953   2.591
12347WAT     H237284   8.489   4.864   2.728
12348WAT      O37285   6.036   2.543   4.913
12348WAT     H137286   6.004   2.448   4.918
12348WAT     H237287   5.992   2.590   4.837
12349WAT      O37288   6.370   2.552   4.458
12349WAT     H137289   6.451   2.550   4.515
12349WAT     H237290   6.306   2.481   4.487
12350WAT      O37291   5.462   8.737   7.820
12350WAT     H137292   5.536   8.737   7.887
12350WAT     H237293   5.377   8.708   7.865
12351WAT      O37294   5.382   6.863   8.874
12351WAT     H137295   5.294   6.894   8.840
12351WAT     H237296   5.441   6.942   8.893
12352WAT      O37297   3.584   1.621   0.213
12352WAT     H137298   3.530   1.679   0.151
12352WAT     H237299   3.654   1.572   0.160
12353WAT      O37300   9.623   9.766   2.120
12353WAT     H137301   9.654   9.763   2.025
12353WAT     H237302   9.663   9.688   2.170
12354WAT      O37303   0.697   9.082   5.045
12354WAT     H137304   0.689   8.988   5.078
12354WAT     H237305   0.671   9.145   5.119
12355WAT      O37306   7.091   0.647   6.708
12355WAT     H137307   7.082   0.740   6.675
12355WAT     H237308   7.185   0.615   6.694
12356WAT      O37309   2.403   2.729   4.343
12356WAT     H137310   2.500   2.748   4.355
12356WAT     H237311   2.376   2.653   4.402
12357WAT      O37312   4.334   5.490   1.280
12357WAT     H137313   4.403   5.527   1.218
12357WAT     H237314   4.379   5.431   1.348
12358WAT      O37315   4.485   8.408   5.738
12358WAT     H137316   4.438   8.407   5.649
12358WAT     H237317   4.577   8.444   5.726
12359WAT      O37318   0.033   0.243   8.045
12359WAT     H137319   0.061   0.336   8.071
12359WAT     H237320  -0.064   0.231   8.063
12360WAT      O37321   2.662   2.427   2.841
12360WAT     H137322   2.725   2.369   2.892
12360WAT     H237323   2.702   2.517   2.828
12361WAT      O37324   2.104   2.300   1.825
12361WAT     H137325   2.202   2.284   1.822
12361WAT     H237326   2.084   2.396   1.804
12362WAT      O37327   0.945   0.284   2.420
12362WAT     H137328   0.869   0.219   2.422
12362WAT     H237329   1.009   0.263   2.494
12363WAT      O37330   2.692   7.704   0.563
12363WAT     H137331   2.679   7.605   0.575
12363WAT     H237332   2.719   7.745   0.650
12364WAT      O37333   5.789   0.342   0.854
12364WAT     H137334   5.706   0.384   0.892
12364WAT     H237335   5.766   0.255   0.811
12365WAT      O37336   3.421   8.122   5.882
12365WAT     H137337   3.351   8.100   5.814
12365WAT     H237338   3.465   8.209   5.858
12366WAT      O37339   7.403   6.899   5.738
12366WAT     H137340   7.483   6.924   5.792
12366WAT     H237341   7.327   6.878   5.800
12367WAT      O37342   7.192   9.376   6.007
12367WAT     H137343   7.154   9.313   6.073
12367WAT     H237344   7.189   9.335   5.915
12368WAT      O37345   5.075   2.756   9.429
12368WAT     H137346   5.073   2.660   9.456
12368WAT     H237347   4.983   2.785   9.404
12369WAT      O37348   7.310   5.285   2.553
12369WAT     H137349   7.336   5.381   2.561
12369WAT     H237350   7.218   5.277   2.515
12370WAT      O37351   6.106   9.255   4.525
12370WAT     H137352   6.095   9.157   4.543
12370WAT     H237353   6.181   9.269   4.460
12371WAT      O37354   1.182   1.238   7.697
12371WAT     H137355   1.130   1.206   7.618
12371WAT     H237356   1.173   1.338   7.704
12372WAT      O37357   4.753   9.175   5.408
12372WAT     H137358   4.725   9.240   5.478
12372WAT     H237359   4.682   9.107   5.395
12373WAT      O37360   3.273   9.789   6.233
12373WAT     H137361   3.215   9.845   6.292
12373WAT     H237362   3.369   9.802   6.259
12374WAT      O37363   4.653   6.588   0.394
12374WAT     H137364   4.572   6.634   0.432
12374WAT     H237365   4.735   6.641   0.416
12375WAT      O37366   3.393   7.060   0.489
12375WAT     H137367   3.465   7.000   0.522
12375WAT     H237368   3.304   7.021   0.512
12376WAT      O37369   8.191   8.477   7.769
12376WAT     H137370   8.259   8.415   7.806
12376WAT     H237371   8.159   8.443   7.680
12377WAT      O37372   7.039   6.220   2.391
12377WAT     H137373   7.126   6.178   2.417
12377WAT     H237374   7.013   6.289   2.460
12378WAT      O37375   4.486   3.704   1.938
12378WAT     H137376   4.551   3.639   1.898
12378WAT     H237377   4.533   3.757   2.010
12379WAT      O37378   2.892   3.318   7.378
12379WAT     H137379   2.842   3.236   7.405
12379WAT     H237380   2.990   3.298   7.375
12380WAT      O37381   5.976   3.344   4.614
12380WAT     H137382   6.024   3.313   4.532
12380WAT     H237383   5.952   3.265   4.670
12381WAT      O37384   8.670   5.913   4.304
12381WAT     H137385   8.588   5.855   4.306
12381WAT     H237386   8.737   5.879   4.369
12382WAT      O37387   9.284   3.083   1.119
12382WAT     H137388   9.374   3.082   1.076
12382WAT     H237389   9.231   3.004   1.086
12383WAT      O37390   8.018   2.939   2.954
12383WAT     H137391   7.989   2.971   3.044
12383WAT     H237392   8.085   2.866   2.965
12384WAT      O37393   8.332   5.508   4.779
12384WAT     H137394   8.322   5.423   4.727
12384WAT     H237395   8.329   5.488   4.877
12385WAT      O37396   0.361   0.217   8.928
12385WAT     H137397   0.366   0.208   9.027
12385WAT     H237398   0.331   0.309   8.904
12386WAT      O37399   7.978   1.580   9.026
12386WAT     H137400   7.970   1.480   9.028
12386WAT     H237401   8.033   1.611   9.104
12387WAT      O37402   2.238   0.109   8.997
12387WAT     H137403   2.155   0.087   9.048
12387WAT     H237404   2.250   0.045   8.922
12388WAT      O37405   6.315   6.626   1.111
12388WAT     H137406   6.400   6.608   1.062
12388WAT     H237407   6.336   6.664   1.202
12389WAT      O37408   5.712   6.437   3.281
12389WAT     H137409   5.759   6.360   3.324
12389WAT     H237410   5.621   6.408   3.251
12390WAT      O37411   8.139   0.960   1.856
12390WAT     H137412   8.181   0.928   1.771
12390WAT     H237413   8.079   1.038   1.836
12391WAT      O37414   6.747   8.125   8.075
12391WAT     H137415   6.660   8.083   8.052
12391WAT     H237416   6.803   8.060   8.127
12392WAT      O37417   8.148   3.946   6.876
12392WAT     H137418   8.214   3.898   6.934
12392WAT     H237419   8.130   4.037   6.914
12393WAT      O37420   0.098   7.378   6.253
12393WAT     H137421   0.053   7.340   6.334
12393WAT     H237422   0.164   7.448   6.280
12394WAT      O37423   5.267   9.562   8.297
12394WAT     H137424   5.284   9.473   8.340
12394WAT     H237425   5.321   9.570   8.214
12395WAT      O37426   6.966   7.960   4.595
12395WAT     H137427   6.965   8.058   4.611
12395WAT     H237428   6.873   7.928   4.577
12396WAT      O37429   2.239   4.299   7.848
12396WAT     H137430   2.302   4.302   7.925
12396WAT     H237431   2.239   4.387   7.801
12397WAT      O37432   9.861   5.694   8.012
12397WAT     H137433   9.909   5.633   8.076
12397WAT     H237434   9.907   5.783   8.010
12398WAT      O37435   7.088   8.542   1.072
12398WAT     H137436   7.041   8.487   1.002
12398WAT     H237437   7.181   8.561   1.042
12399WAT      O37438   3.529   2.084   0.217
12399WAT     H137439   3.460   2.040   0.160
12399WAT     H237440   3.495   2.172   0.249
12400WAT      O37441   1.949   0.673   0.850
12400WAT     H137442   1.935   0.745   0.782
12400WAT     H237443   2.037   0.688   0.895
12401WAT      O37444   1.680   5.906   7.168
12401WAT     H137445   1.607   5.964   7.203
12401WAT     H237446   1.764   5.924   7.219
12402WAT      O37447   3.959   5.187   3.827
12402WAT     H137448   4.009   5.144   3.902
12402WAT     H237449   3.899   5.258   3.862
12403WAT      O37450   7.503   6.856   4.095
12403WAT     H137451   7.477   6.879   4.189
12403WAT     H237452   7.421   6.831   4.043
12404WAT      O37453   6.052   1.102   4.580
12404WAT     H137454   5.973   1.155   4.613
12404WAT     H237455   6.124   1.165   4.550
12405WAT      O37456   7.553   5.175   6.543
12405WAT     H137457   7.563   5.183   6.444
12405WAT     H237458   7.622   5.232   6.588
12406WAT      O37459   8.073   6.676   6.964
12406WAT     H137460   8.012   6.743   7.007
12406WAT     H237461   8.164   6.716   6.955
12407WAT      O37462   1.419   9.039   9.425
12407WAT     H137463   1.475   9.063   9.504
12407WAT     H237464   1.347   8.977   9.453
12408WAT      O37465   6.999   5.915   0.966
12408WAT     H137466   7.047   5.988   0.919
12408WAT     H237467   6.941   5.866   0.901
12409WAT      O37468   3.297   2.447   4.750
12409WAT     H137469   3.253   2.427   4.837
12409WAT     H237470   3.242   2.514   4.699
12410WAT      O37471   3.364   7.118   2.350
12410WAT     H137472   3.387   7.030   2.307
12410WAT     H237473   3.337   7.183   2.280
12411WAT      O37474   5.597   9.673   3.867
12411WAT     H137475   5.630   9.604   3.802
12411WAT     H237476   5.528   9.632   3.926
12412WAT      O37477   2.075   6.039   2.225
12412WAT     H137478   2.152   5.975   2.222
12412WAT     H237479   2.110   6.133   2.226
12413WAT      O37480   6.419   2.029   8.380
12413WAT     H137481   6.494   2.092   8.401
12413WAT     H237482   6.335   2.063   8.422
12414WAT      O37483   7.375   4.074   2.348
12414WAT     H137484   7.418   4.162   2.327
12414WAT     H237485   7.384   4.054   2.445
12415WAT      O37486   4.836   3.900   3.195
12415WAT     H137487   4.841   3.800   3.189
12415WAT     H237488   4.825   3.927   3.290
12416WAT      O37489   7.514   1.662   9.007
12416WAT     H137490   7.603   1.661   8.962
12416WAT     H237491   7.468   1.749   8.989
12417WAT      O37492   2.596   2.003   0.074
12417WAT     H137493   2.514   2.048   0.108
12417WAT     H237494   2.638   2.060   0.003
12418WAT      O37495   1.917   5.085   9.581
12418WAT     H137496   1.979   5.061   9.656
12418WAT     H237497   1.826   5.048   9.600
12419WAT      O37498   4.248   6.840   2.508
12419WAT     H137499   4.227   6.772   2.438
12419WAT     H237500   4.283   6.923   2.465
12420WAT      O37501   4.170   2.866   5.811
12420WAT     H137502   4.207   2.774   5.827
12420WAT     H237503   4.116   2.894   5.890
12421WAT      O37504   8.745   6.845   9.855
12421WAT     H137505   8.800   6.928   9.847
12421WAT     H237506   8.669   6.863   9.917
12422WAT      O37507   8.342   4.339   5.278
12422WAT     H137508   8.320   4.242   5.286
12422WAT     H237509   8.407   4.365   5.350
12423WAT      O37510   7.875   3.921   3.048
12423WAT     H137511   7.829   3.859   2.986
12423WAT     H237512   7.942   3.976   2.998
12424WAT      O37513   5.170   7.905   3.015
12424WAT     H137514   5.180   7.922   3.113
12424WAT     H237515   5.074   7.915   2.989
12425WAT      O37516   1.729   2.174   0.094
12425WAT     H137517   1.642   2.127   0.107
12425WAT     H237518   1.721   2.241   0.020
12426WAT      O37519   3.037   1.975   9.547
12426WAT     H137520   3.000   1.882   9.552
12426WAT     H237521   2.989   2.026   9.475
12427WAT      O37522   3.937   5.858   0.978
12427WAT     H137523   3.933   5.890   1.072
12427WAT     H237524   3.865   5.901   0.924
12428WAT      O37525   8.256   7.179   6.571
12428WAT     H137526   8.178   7.133   6.614
12428WAT     H237527   8.232   7.275   6.555
12429WAT      O37528   8.307   1.242   8.761
12429WAT     H137529   8.394   1.245   8.812
12429WAT     H237530   8.296   1.152   8.719
12430WAT      O37531   0.420   6.557   3.184
12430WAT     H137532   0.411   6.484   3.252
12430WAT     H237533   0.429   6.645   3.231
12431WAT      O37534   1.189   3.318   6.350
12431WAT     H137535   1.231   3.401   6.387
12431WAT     H237536   1.116   3.342   6.287
12432WAT      O37537   1.026   2.734   7.536
12432WAT     H137538   1.040   2.818   7.483
12432WAT     H237539   1.094   2.729   7.609
12433WAT      O37540   4.967   9.493   0.455
12433WAT     H137541   4.880   9.525   0.416
12433WAT     H237542   4.948   9.423   0.524
12434WAT      O37543   5.593   3.800   3.734
12434WAT     H137544   5.598   3.777   3.831
12434WAT     H237545   5.679   3.775   3.689
12435WAT      O37546   4.069   5.440   1.280
12435WAT     H137547   4.045   5.412   1.373
12435WAT     H237548   4.166   5.462   1.275
12436WAT      O37549   0.309   3.235   5.180
12436WAT     H137550   0.280   3.151   5.226
12436WAT     H237551   0.314   3.219   5.082
12437WAT      O37552   3.341   7.167   6.685
12437WAT     H137553   3.331   7.197   6.780
12437WAT     H237554   3.252   7.133   6.652
12438WAT      O37555   1.361   0.556   7.506
12438WAT     H137556   1.382   0.482   7.443
12438WAT     H237557   1.445   0.595   7.542
12439WAT      O37558   4.834   2.014   6.383
12439WAT     H137559   4.753   2.072   6.386
12439WAT     H237560   4.811   1.927   6.340
12440WAT      O37561   1.930   0.327   3.898
12440WAT     H137562   1.895   0.416   3.925
12440WAT     H237563   1.995   0.338   3.822
12441WAT      O37564   5.747   1.931   0.413
12441WAT     H137565   5.832   1.918   0.463
12441WAT     H237566   5.767   1.963   0.321
12442WAT      O37567   6.083   4.957   3.895
12442WAT     H137568   5.988   4.947   3.925
12442WAT     H237569   6.138   4.884   3.936
12443WAT      O37570   2.142   1.666   9.416
12443WAT     H137571   2.092   1.615   9.346
12443WAT     H237572   2.229   1.621   9.434
12444WAT      O37573   5.255   6.658   7.410
12444WAT     H137574   5.244   6.637   7.507
12444WAT     H237575   5.239   6.575   7.356
12445WAT      O37576   2.459   0.160   2.920
12445WAT     H137577   2.481   0.068   2.889
12445WAT     H237578   2.403   0.155   3.003
12446WAT      O37579   6.939   4.393   2.160
12446WAT     H137580   6.933   4.298   2.192
12446WAT     H237581   6.847   4.433   2.161
12447WAT      O37582   0.278   2.912   4.333
12447WAT     H137583   0.359   2.953   4.291
12447WAT     H237584   0.307   2.848   4.404
12448WAT      O37585   9.722   8.056   6.133
12448WAT     H137586   9.718   7.957   6.145
12448WAT     H237587   9.781   8.077   6.055
12449WAT      O37588   4.325   8.330   5.520
12449WAT     H137589   4.346   8.304   5.425
12449WAT     H237590   4.229   8.356   5.526
12450WAT      O37591   0.223   2.728   9.503
12450WAT     H137592   0.307   2.736   9.558
12450WAT     H237593   0.186   2.635   9.513
12451WAT      O37594   2.916   7.707   8.867
12451WAT     H137595   3.006   7.665   8.868
12451WAT     H237596   2.846   7.636   8.860
12452WAT      O37597   1.233   5.800   0.718
12452WAT     H137598   1.251   5.753   0.631
12452WAT     H237599   1.291   5.881   0.724
12453WAT      O37600   7.229   2.327   0.526
12453WAT     H137601   7.148   2.294   0.575
12453WAT     H237602   7.201   2.380   0.446
12454WAT      O37603   1.513   3.229   7.861
12454WAT     H137604   1.588   3.241   7.925
12454WAT     H237605   1.540   3.163   7.790
12455WAT      O37606   5.560   4.667   4.813
12455WAT     H137607   5.627   4.613   4.763
12455WAT     H237608   5.605   4.743   4.859
12456WAT      O37609   5.619   7.352   6.531
12456WAT     H137610   5.600   7.431   6.588
12456WAT     H237611   5.549   7.343   6.460
12457WAT      O37612   6.077   8.203   8.418
12457WAT     H137613   6.032   8.222   8.505
12457WAT     H237614   6.073   8.105   8.399
12458WAT      O37615   2.847   9.118   6.440
12458WAT     H137616   2.835   9.171   6.523
12458WAT     H237617   2.784   9.040   6.441
12459WAT      O37618   4.675   9.006   6.990
12459WAT     H137619   4.680   9.008   6.890
12459WAT     H237620   4.580   9.014   7.019
12460WAT      O37621   4.515   9.392   7.437
12460WAT     H137622   4.570   9.432   7.511
12460WAT     H237623   4.531   9.293   7.434
12461WAT      O37624   5.525   9.155   5.679
12461WAT     H137625   5.458   9.227   5.664
12461WAT     H237626   5.482   9.078   5.727
12462WAT      O37627   2.075   4.191   6.559
12462WAT     H137628   2.003   4.173   6.626
12462WAT     H237629   2.116   4.104   6.531
12463WAT      O37630   1.163   0.151   4.050
12463WAT     H137631   1.125   0.070   4.007
12463WAT     H237632   1.175   0.223   3.981
12464WAT      O37633   5.423   9.742   6.872
12464WAT     H137634   5.327   9.744   6.843
12464WAT     H237635   5.430   9.775   6.966
12465WAT      O37636   1.030   7.401   0.750
12465WAT     H137637   0.942   7.423   0.792
12465WAT     H237638   1.024   7.419   0.651
12466WAT      O37639   0.424   0.481   7.318
12466WAT     H137640   0.437   0.517   7.411
12466WAT     H237641   0.333   0.442   7.310
12467WAT      O37642   7.397   9.249   2.240
12467WAT     H137643   7.373   9.159   2.276
12467WAT     H237644   7.375   9.253   2.142
12468WAT      O37645   5.660   7.494   4.460
12468WAT     H137646   5.734   7.548   4.499
12468WAT     H237647   5.594   7.555   4.415
12469WAT      O37648   0.147   8.812   1.197
12469WAT     H137649   0.236   8.797   1.239
12469WAT     H237650   0.127   8.910   1.195
12470WAT      O37651   7.290   8.257   1.156
12470WAT     H137652   7.320   8.310   1.077
12470WAT     H237653   7.223   8.188   1.126
12471WAT      O37654   0.422   0.621   2.138
12471WAT     H137655   0.327   0.595   2.121
12471WAT     H237656   0.447   0.695   2.075
12472WAT      O37657   2.742   0.205   2.441
12472WAT     H137658   2.779   0.255   2.520
12472WAT     H237659   2.771   0.110   2.446
12473WAT      O37660   7.358   4.362   6.971
12473WAT     H137661   7.398   4.386   7.060
12473WAT     H237662   7.319   4.444   6.930
12474WAT      O37663   2.063   9.337   5.146
12474WAT     H137664   2.144   9.396   5.144
12474WAT     H237665   2.001   9.362   5.072
12475WAT      O37666   1.746   2.086   6.715
12475WAT     H137667   1.717   2.179   6.736
12475WAT     H237668   1.844   2.077   6.733
12476WAT      O37669   8.494   6.406   6.667
12476WAT     H137670   8.579   6.410   6.719
12476WAT     H237671   8.509   6.444   6.575
12477WAT      O37672   3.025   8.804   1.665
12477WAT     H137673   2.999   8.721   1.615
12477WAT     H237674   2.989   8.800   1.758
12478WAT      O37675   6.529   8.926   0.471
12478WAT     H137676   6.469   8.849   0.447
12478WAT     H237677   6.484   8.984   0.539
12479WAT      O37678   3.023   9.131   1.144
12479WAT     H137679   3.031   9.147   1.046
12479WAT     H237680   2.940   9.077   1.163
12480WAT      O37681   1.927   1.806   1.921
12480WAT     H137682   1.910   1.781   1.826
12480WAT     H237683   2.023   1.832   1.932
12481WAT      O37684   0.416   5.583   3.232
12481WAT     H137685   0.481   5.561   3.159
12481WAT     H237686   0.349   5.510   3.240
12482WAT      O37687   1.114   6.748   5.638
12482WAT     H137688   1.030   6.797   5.613
12482WAT     H237689   1.188   6.775   5.576
12483WAT      O37690   7.021   6.007   6.795
12483WAT     H137691   7.095   6.075   6.786
12483WAT     H237692   6.970   6.003   6.709
12484WAT      O37693   1.286   9.246   2.540
12484WAT     H137694   1.300   9.327   2.483
12484WAT     H237695   1.367   9.229   2.596
12485WAT      O37696   8.778   0.955   9.378
12485WAT     H137697   8.857   0.992   9.428
12485WAT     H237698   8.755   1.017   9.303
12486WAT      O37699   0.990   5.567   3.447
12486WAT     H137700   0.995   5.507   3.367
12486WAT     H237701   1.038   5.653   3.428
12487WAT      O37702   0.285   0.571   0.252
12487WAT     H137703   0.276   0.631   0.331
12487WAT     H237704   0.318   0.481   0.281
12488WAT      O37705   5.606   1.691   0.398
12488WAT     H137706   5.637   1.785   0.382
12488WAT     H237707   5.677   1.640   0.446
12489WAT      O37708   3.949   7.482   0.329
12489WAT     H137709   3.858   7.445   0.348
12489WAT     H237710   3.982   7.445   0.242
12490WAT      O37711   9.797   7.704   3.432
12490WAT     H137712   9.747   7.749   3.359
12490WAT     H237713   9.877   7.758   3.456
12491WAT      O37714   8.631   4.122   1.275
12491WAT     H137715   8.577   4.042   1.248
12491WAT     H237716   8.688   4.100   1.354
12492WAT      O37717   4.496   3.136   3.307
12492WAT     H137718   4.478   3.084   3.223
12492WAT     H237719   4.419   3.126   3.370
12493WAT      O37720   8.380   4.814   8.670
12493WAT     H137721   8.366   4.858   8.760
12493WAT     H237722   8.420   4.724   8.683
12494WAT      O37723   1.497   6.007   4.797
12494WAT     H137724   1.425   6.013   4.729
12494WAT     H237725   1.578   5.963   4.757
12495WAT      O37726   9.232   7.624   5.432
12495WAT     H137727   9.244   7.723   5.426
12495WAT     H237728   9.172   7.602   5.508
12496WAT      O37729   8.629   2.548   1.956
12496WAT     H137730   8.669   2.496   2.031
12496WAT     H237731   8.648   2.501   1.870
12497WAT      O37732   8.986   5.504   0.252
12497WAT     H137733   8.927   5.427   0.279
12497WAT     H237734   8.998   5.565   0.331
12498WAT      O37735   7.089   7.479   5.841
12498WAT     H137736   7.083   7.389   5.884
12498WAT     H237737   7.105   7.548   5.911
12499WAT      O37738   4.510   9.442   2.241
12499WAT     H137739   4.532   9.437   2.338
12499WAT     H237740   4.483   9.535   2.217
12500WAT      O37741   5.398   7.164   1.170
12500WAT     H137742   5.399   7.262   1.154
12500WAT     H237743   5.348   7.145   1.255
12501WAT      O37744   4.363   4.939   7.656
12501WAT     H137745   4.416   4.883   7.593
12501WAT     H237746   4.272   4.899   7.667
12502WAT      O37747   0.279   5.995   1.847
12502WAT     H137748   0.328   6.044   1.776
12502WAT     H237749   0.338   5.981   1.926
12503WAT      O37750   1.223   5.183   5.051
12503WAT     H137751   1.292   5.241   5.010
12503WAT     H237752   1.267   5.111   5.105
12504WAT      O37753   1.847   6.033   8.897
12504WAT     H137754   1.846   6.044   8.798
12504WAT     H237755   1.803   6.111   8.940
12505WAT      O37756   3.094   7.079   7.071
12505WAT     H137757   3.166   7.121   7.125
12505WAT     H237758   3.134   7.027   6.995
12506WAT      O37759   7.530   6.522   7.239
12506WAT     H137760   7.501   6.468   7.318
12506WAT     H237761   7.604   6.475   7.191
12507WAT      O37762   0.121   5.355   4.465
12507WAT     H137763   0.203   5.304   4.440
12507WAT     H237764   0.042   5.315   4.419
12508WAT      O37765   8.395   3.497   2.120
12508WAT     H137766   8.405   3.420   2.057
12508WAT     H237767   8.299   3.506   2.146
12509WAT      O37768   5.131   4.456   2.014
12509WAT     H137769   5.131   4.481   2.111
12509WAT     H237770   5.155   4.360   2.004
12510WAT      O37771   3.436   8.714   3.973
12510WAT     H137772   3.527   8.727   3.934
12510WAT     H237773   3.376   8.788   3.942
12511WAT      O37774   5.152   1.191   4.849
12511WAT     H137775   5.073   1.134   4.873
12511WAT     H237776   5.122   1.266   4.790
12512WAT      O37777   0.618   7.023   8.756
12512WAT     H137778   0.706   7.015   8.804
12512WAT     H237779   0.578   7.112   8.776
12513WAT      O37780   8.278   9.844   0.161
12513WAT     H137781   8.344   9.771   0.148
12513WAT     H237782   8.186   9.806   0.167
12514WAT      O37783   0.986   8.252   0.030
12514WAT     H137784   0.993   8.273  -0.067
12514WAT     H237785   1.067   8.286   0.078
12515WAT      O37786   6.506   2.130   3.886
12515WAT     H137787   6.552   2.090   3.965
12515WAT     H237788   6.407   2.117   3.895
12516WAT      O37789   7.685   7.786   5.499
12516WAT     H137790   7.699   7.855   5.570
12516WAT     H237791   7.633   7.709   5.537
12517WAT      O37792   9.099   5.847   4.674
12517WAT     H137793   9.000   5.845   4.686
12517WAT     H237794   9.124   5.791   4.595
12518WAT      O37795   7.864   9.667   2.704
12518WAT     H137796   7.859   9.604   2.626
12518WAT     H237797   7.826   9.622   2.785
12519WAT      O37798   9.014   1.097   0.048
12519WAT     H137799   9.024   1.067   0.143
12519WAT     H237800   9.062   1.184   0.035
12520WAT      O37801   6.569   0.316   1.468
12520WAT     H137802   6.662   0.314   1.504
12520WAT     H237803   6.569   0.354   1.375
12521WAT      O37804   2.856   0.326   6.642
12521WAT     H137805   2.817   0.393   6.705
12521WAT     H237806   2.865   0.367   6.551
12522WAT      O37807   0.364   0.729   6.586
12522WAT     H137808   0.404   0.808   6.632
12522WAT     H237809   0.285   0.697   6.638
12523WAT      O37810   7.165   8.953   4.682
12523WAT     H137811   7.157   8.854   4.670
12523WAT     H237812   7.208   8.994   4.602
12524WAT      O37813   9.811   0.760   9.605
12524WAT     H137814   9.888   0.734   9.663
12524WAT     H237815   9.738   0.800   9.661
12525WAT      O37816   2.269   7.195   2.256
12525WAT     H137817   2.247   7.098   2.264
12525WAT     H237818   2.284   7.219   2.160
12526WAT      O37819   0.161   9.263   0.527
12526WAT     H137820   0.230   9.334   0.543
12526WAT     H237821   0.153   9.247   0.428
12527WAT      O37822   6.704   2.765   1.197
12527WAT     H137823   6.710   2.758   1.296
12527WAT     H237824   6.758   2.843   1.165
12528WAT      O37825   0.053   2.786   6.230
12528WAT     H137826   0.056   2.874   6.183
12528WAT     H237827  -0.040   2.768   6.261
12529WAT      O37828   1.059   5.008   7.731
12529WAT     H137829   1.081   5.105   7.732
12529WAT     H237830   1.143   4.955   7.715
12530WAT      O37831   3.568   5.714   7.452
12530WAT     H137832   3.494   5.709   7.385
12530WAT     H237833   3.565   5.803   7.497
12531WAT      O37834   4.417   0.328   7.238
12531WAT     H137835   4.471   0.302   7.318
12531WAT     H237836   4.320   0.322   7.260
12532WAT      O37837   1.828   8.165   4.329
12532WAT     H137838   1.911   8.155   4.385
12532WAT     H237839   1.764   8.225   4.376
12533WAT      O37840   6.976   9.370   1.137
12533WAT     H137841   6.976   9.446   1.202
12533WAT     H237842   6.884   9.332   1.130
12534WAT      O37843   3.820   3.558   1.357
12534WAT     H137844   3.813   3.648   1.400
12534WAT     H237845   3.763   3.492   1.407
12535WAT      O37846   2.006   5.541   9.310
12535WAT     H137847   1.998   5.468   9.377
12535WAT     H237848   1.916   5.581   9.293
12536WAT      O37849   6.323   1.453   5.017
12536WAT     H137850   6.324   1.375   4.953
12536WAT     H237851   6.239   1.450   5.071
12537WAT      O37852   3.833   5.671   9.548
12537WAT     H137853   3.902   5.724   9.500
12537WAT     H237854   3.768   5.733   9.592
12538WAT      O37855   6.194   2.406   0.615
12538WAT     H137856   6.234   2.387   0.526
12538WAT     H237857   6.098   2.376   0.617
12539WAT      O37858   7.872   4.092   7.877
12539WAT     H137859   7.972   4.084   7.879
12539WAT     H237860   7.836   4.077   7.969
12540WAT      O37861   0.817   1.504   6.571
12540WAT     H137862   0.878   1.572   6.531
12540WAT     H237863   0.828   1.417   6.524
12541WAT      O37864   2.150   3.469   7.040
12541WAT     H137865   2.188   3.562   7.050
12541WAT     H237866   2.153   3.443   6.943
12542WAT      O37867   9.583   8.681   9.081
12542WAT     H137868   9.551   8.593   9.116
12542WAT     H237869   9.507   8.747   9.085
12543WAT      O37870   2.312   6.752   3.024
12543WAT     H137871   2.313   6.756   2.925
12543WAT     H237872   2.217   6.751   3.057
12544WAT      O37873   9.730   6.707   8.892
12544WAT     H137874   9.652   6.645   8.905
12544WAT     H237875   9.752   6.712   8.795
12545WAT      O37876   8.447   0.089   6.443
12545WAT     H137877   8.374   0.158   6.441
12545WAT     H237878   8.441   0.037   6.529
12546WAT      O37879   2.333   5.803   6.585
12546WAT     H137880   2.325   5.884   6.528
12546WAT     H237881   2.429   5.788   6.609
12547WAT      O37882   1.814   9.219   8.981
12547WAT     H137883   1.715   9.206   8.981
12547WAT     H237884   1.843   9.253   8.891
12548WAT      O37885   0.098   8.627   4.615
12548WAT     H137886   0.082   8.660   4.522
12548WAT     H237887   0.027   8.663   4.676
12549WAT      O37888   1.716   6.411   7.993
12549WAT     H137889   1.692   6.403   7.896
12549WAT     H237890   1.815   6.426   8.002
12550WAT      O37891   3.023   7.236   3.902
12550WAT     H137892   2.950   7.291   3.860
12550WAT     H237893   3.112   7.278   3.883
12551WAT      O37894   7.800   3.682   7.344
12551WAT     H137895   7.812   3.710   7.439
12551WAT     H237896   7.840   3.751   7.283
12552WAT      O37897   7.722   9.460   4.098
12552WAT     H137898   7.737   9.559   4.095
12552WAT     H237899   7.675   9.437   4.183
12553WAT      O37900   1.943   6.493   1.840
12553WAT     H137901   1.930   6.592   1.843
12553WAT     H237902   1.891   6.454   1.764
12554WAT      O37903   5.203   7.734   6.391
12554WAT     H137904   5.168   7.664   6.329
12554WAT     H237905   5.214   7.821   6.341
12555WAT      O37906   8.982   6.594   1.556
12555WAT     H137907   9.013   6.499   1.556
12555WAT     H237908   8.900   6.601   1.614
12556WAT      O37909   9.604   1.915   9.346
12556WAT     H137910   9.699   1.889   9.363
12556WAT     H237911   9.574   1.981   9.415
12557WAT      O37912   4.686   9.373   5.997
12557WAT     H137913   4.705   9.462   5.956
12557WAT     H237914   4.639   9.386   6.084
12558WAT      O37915   1.348   5.430   4.027
12558WAT     H137916   1.319   5.342   3.989
12558WAT     H237917   1.429   5.416   4.083
12559WAT      O37918   9.340   9.278   8.866
12559WAT     H137919   9.358   9.244   8.958
12559WAT     H237920   9.246   9.314   8.862
12560WAT      O37921   9.383   1.811   3.637
12560WAT     H137922   9.325   1.837   3.714
12560WAT     H237923   9.328   1.803   3.554
12561WAT      O37924   4.525   5.725   7.827
12561WAT     H137925   4.613   5.759   7.794
12561WAT     H237926   4.507   5.635   7.788
12562WAT      O37927   0.076   0.701   0.788
12562WAT     H137928   0.172   0.678   0.808
12562WAT     H237929   0.073   0.789   0.740
12563WAT      O37930   8.209   2.981   6.658
12563WAT     H137931   8.248   3.073   6.646
12563WAT     H237932   8.208   2.934   6.570
12564WAT      O37933   1.622   7.822   1.582
12564WAT     H137934   1.657   7.841   1.674
12564WAT     H237935   1.556   7.892   1.557
12565WAT      O37936   6.662   3.310   4.422
12565WAT     H137937   6.613   3.264   4.497
12565WAT     H237938   6.597   3.335   4.351
12566WAT      O37939   8.075   4.820   1.307
12566WAT     H137940   8.107   4.874   1.385
12566WAT     H237941   7.992   4.862   1.269
12567WAT      O37942   2.989   4.041   7.466
12567WAT     H137943   3.032   4.077   7.548
12567WAT     H237944   2.978   4.115   7.399
12568WAT      O37945   1.894   5.683   5.223
12568WAT     H137946   1.871   5.596   5.267
12568WAT     H237947   1.936   5.744   5.290
12569WAT      O37948   4.347   9.808   2.330
12569WAT     H137949   4.433   9.857   2.314
12569WAT     H237950   4.282   9.829   2.257
12570WAT      O37951   9.398   8.941   6.557
12570WAT     H137952   9.472   9.008   6.544
12570WAT     H237953   9.310   8.985   6.541
12571WAT      O37954   6.032   8.158   6.619
12571WAT     H137955   5.977   8.122   6.695
12571WAT     H237956   6.077   8.243   6.648
12572WAT      O37957   5.708   3.059   9.478
12572WAT     H137958   5.658   3.136   9.439
12572WAT     H237959   5.783   3.094   9.535
12573WAT      O37960   9.587   4.559   0.654
12573WAT     H137961   9.662   4.495   0.637
12573WAT     H237962   9.608   4.647   0.611
12574WAT      O37963   1.356   1.638   5.253
12574WAT     H137964   1.306   1.551   5.250
12574WAT     H237965   1.451   1.621   5.226
12575WAT      O37966   4.960   3.996   8.173
12575WAT     H137967   4.977   4.080   8.121
12575WAT     H237968   5.006   3.919   8.128
12576WAT      O37969   0.220   7.596   5.651
12576WAT     H137970   0.232   7.497   5.648
12576WAT     H237971   0.188   7.628   5.562
12577WAT      O37972   8.140   8.664   3.824
12577WAT     H137973   8.203   8.729   3.783
12577WAT     H237974   8.073   8.634   3.756
12578WAT      O37975   6.236   1.329   8.316
12578WAT     H137976   6.255   1.265   8.242
12578WAT     H237977   6.166   1.394   8.287
12579WAT      O37978   4.987   4.134   0.009
12579WAT     H137979   4.950   4.041   0.008
12579WAT     H237980   5.015   4.160  -0.083
12580WAT      O37981   8.180   1.698   8.005
12580WAT     H137982   8.189   1.628   7.935
12580WAT     H237983   8.124   1.663   8.080
12581WAT      O37984   2.585   0.120   9.091
12581WAT     H137985   2.537   0.179   9.027
12581WAT     H237986   2.682   0.143   9.091
12582WAT      O37987   0.886   3.320   2.816
12582WAT     H137988   0.933   3.335   2.729
12582WAT     H237989   0.953   3.318   2.890
12583WAT      O37990   2.800   1.866   3.736
12583WAT     H137991   2.814   1.845   3.640
12583WAT     H237992   2.703   1.855   3.759
12584WAT      O37993   6.991   2.309   1.495
12584WAT     H137994   7.066   2.368   1.464
12584WAT     H237995   7.007   2.282   1.590
12585WAT      O37996   4.276   2.310   0.941
12585WAT     H137997   4.251   2.217   0.967
12585WAT     H237998   4.338   2.349   1.010
12586WAT      O37999   6.757   3.037   5.962
12586WAT     H138000   6.761   2.939   5.981
12586WAT     H238001   6.760   3.052   5.863
12587WAT      O38002   0.221   1.359   6.452
12587WAT     H138003   0.265   1.434   6.501
12587WAT     H238004   0.186   1.291   6.517
12588WAT      O38005   2.483   6.911   4.939
12588WAT     H138006   2.521   6.838   4.882
12588WAT     H238007   2.527   6.997   4.915
12589WAT      O38008   2.780   1.396   6.363
12589WAT     H138009   2.728   1.481   6.361
12589WAT     H238010   2.852   1.399   6.293
12590WAT      O38011   3.507   1.439   3.924
12590WAT     H138012   3.583   1.374   3.934
12590WAT     H238013   3.496   1.462   3.827
12591WAT      O38014   6.626   0.723   9.276
12591WAT     H138015   6.567   0.751   9.352
12591WAT     H238016   6.722   0.732   9.303
12592WAT      O38017   2.957   1.975   5.470
12592WAT     H138018   2.996   2.025   5.393
12592WAT     H238019   2.877   2.024   5.505
12593WAT      O38020   7.892   7.369   6.085
12593WAT     H138021   7.831   7.319   6.146
12593WAT     H238022   7.986   7.362   6.118
12594WAT      O38023   1.806   8.006   9.195
12594WAT     H138024   1.742   7.929   9.191
12594WAT     H238025   1.875   7.996   9.123
12595WAT      O38026   5.292   0.860   5.484
12595WAT     H138027   5.310   0.770   5.442
12595WAT     H238028   5.235   0.914   5.422
12596WAT      O38029   5.835   1.855   5.229
12596WAT     H138030   5.828   1.897   5.320
12596WAT     H238031   5.766   1.783   5.220
12597WAT      O38032   6.371   6.003   2.361
12597WAT     H138033   6.385   6.013   2.459
12597WAT     H238034   6.392   6.089   2.315
12598WAT      O38035   5.343   3.350   5.527
12598WAT     H138036   5.276   3.422   5.543
12598WAT     H238037   5.433   3.391   5.513
12599WAT      O38038   7.251   5.338   4.643
12599WAT     H138039   7.257   5.401   4.721
12599WAT     H238040   7.216   5.386   4.563
12600WAT      O38041   3.832   9.476   6.776
12600WAT     H138042   3.827   9.475   6.876
12600WAT     H238043   3.928   9.471   6.748
12601WAT      O38044   0.914   9.645   6.664
12601WAT     H138045   0.869   9.563   6.700
12601WAT     H238046   0.913   9.717   6.733
12602WAT      O38047   3.242   1.268   3.971
12602WAT     H138048   3.331   1.314   3.971
12602WAT     H238049   3.196   1.285   4.059
12603WAT      O38050   7.773   8.647   3.131
12603WAT     H138051   7.692   8.589   3.141
12603WAT     H238052   7.825   8.618   3.050
12604WAT      O38053   0.479   9.135   1.531
12604WAT     H138054   0.544   9.192   1.581
12604WAT     H238055   0.397   9.122   1.585
12605WAT      O38056   6.667   5.765   9.813
12605WAT     H138057   6.577   5.735   9.782
12605WAT     H238058   6.679   5.862   9.793
12606WAT      O38059   8.178   0.683   5.608
12606WAT     H138060   8.236   0.720   5.681
12606WAT     H238061   8.165   0.585   5.622
12607WAT      O38062   8.465   5.833   7.450
12607WAT     H138063   8.440   5.906   7.386
12607WAT     H238064   8.440   5.861   7.543
12608WAT      O38065   1.998   2.238   4.444
12608WAT     H138066   1.973   2.141   4.450
12608WAT     H238067   1.922   2.290   4.406
12609WAT      O38068   8.983   6.863   6.702
12609WAT     H138069   9.082   6.850   6.693
12609WAT     H238070   8.942   6.870   6.612
12610WAT      O38071   2.944   1.941   5.081
12610WAT     H138072   2.986   1.873   5.020
12610WAT     H238073   2.856   1.906   5.114
12611WAT      O38074   1.600   7.079   7.781
12611WAT     H138075   1.556   6.989   7.779
12611WAT     H238076   1.668   7.085   7.708
12612WAT      O38077   4.457   0.402   5.140
12612WAT     H138078   4.434   0.466   5.213
12612WAT     H238079   4.446   0.446   5.051
12613WAT      O38080   7.951   8.147   0.518
12613WAT     H138081   7.901   8.092   0.585
12613WAT     H238082   7.982   8.088   0.443
12614WAT      O38083   9.745   7.347   3.125
12614WAT     H138084   9.807   7.284   3.079
12614WAT     H238085   9.762   7.440   3.094
12615WAT      O38086   2.009   1.955   6.662
12615WAT     H138087   2.102   1.920   6.677
12615WAT     H238088   1.991   1.959   6.564
12616WAT      O38089   3.405   2.703   7.846
12616WAT     H138090   3.329   2.705   7.780
12616WAT     H238091   3.424   2.795   7.878
12617WAT      O38092   3.409   3.980   7.916
12617WAT     H138093   3.393   3.930   7.831
12617WAT     H238094   3.323   3.988   7.967
12618WAT      O38095   7.639   9.089   9.286
12618WAT     H138096   7.641   9.047   9.377
12618WAT     H238097   7.707   9.046   9.228
12619WAT      O38098   3.368   2.113   5.160
12619WAT     H138099   3.369   2.212   5.172
12619WAT     H238100   3.368   2.090   5.063
12620WAT      O38101   1.531   2.389   0.593
12620WAT     H138102   1.499   2.441   0.514
12620WAT     H238103   1.572   2.452   0.659
12621WAT      O38104   3.256   4.086   9.667
12621WAT     H138105   3.256   3.990   9.637
12621WAT     H238106   3.211   4.143   9.598
12622WAT      O38107   4.932   4.722   2.114
12622WAT     H138108   4.978   4.750   2.198
12622WAT     H238109   4.910   4.625   2.118
12623WAT      O38110   3.456   3.706   0.315
12623WAT     H138111   3.356   3.696   0.311
12623WAT     H238112   3.499   3.619   0.292
12624WAT      O38113   5.010   6.358   4.565
12624WAT     H138114   4.917   6.367   4.601
12624WAT     H238115   5.054   6.279   4.607
12625WAT      O38116   4.887   0.148   6.065
12625WAT     H138117   4.880   0.075   6.134
12625WAT     H238118   4.966   0.131   6.006
12626WAT      O38119   2.555   0.314   2.705
12626WAT     H138120   2.525   0.265   2.787
12626WAT     H238121   2.478   0.367   2.668
12627WAT      O38122   8.914   9.117   9.323
12627WAT     H138123   8.942   9.066   9.404
12627WAT     H238124   8.995   9.142   9.269
12628WAT      O38125   9.148   9.679   9.375
12628WAT     H138126   9.126   9.632   9.461
12628WAT     H238127   9.097   9.765   9.370
12629WAT      O38128   3.089   0.686   8.566
12629WAT     H138129   3.068   0.781   8.541
12629WAT     H238130   3.157   0.685   8.639
12630WAT      O38131   0.228   0.677   4.057
12630WAT     H138132   0.291   0.672   3.979
12630WAT     H238133   0.167   0.755   4.046
12631WAT      O38134   3.588   0.670   8.548
12631WAT     H138135   3.678   0.660   8.507
12631WAT     H238136   3.519   0.632   8.486
12632WAT      O38137   2.164   6.340   5.969
12632WAT     H138138   2.223   6.267   6.002
12632WAT     H238139   2.213   6.427   5.974
12633WAT      O38140   0.855   7.878   1.107
12633WAT     H138141   0.822   7.965   1.144
12633WAT     H238142   0.784   7.838   1.049
12634WAT      O38143   3.696   9.374   5.138
12634WAT     H138144   3.694   9.275   5.125
12634WAT     H238145   3.617   9.402   5.194
12635WAT      O38146   5.834   2.185   6.727
12635WAT     H138147   5.839   2.086   6.712
12635WAT     H238148   5.922   2.217   6.761
12636WAT      O38149   0.609   1.735   0.771
12636WAT     H138150   0.677   1.697   0.834
12636WAT     H238151   0.530   1.673   0.766
12637WAT      O38152   1.965   5.918   4.823
12637WAT     H138153   1.958   5.995   4.760
12637WAT     H238154   1.995   5.951   4.912
12638WAT      O38155   6.729   7.578   3.628
12638WAT     H138156   6.652   7.544   3.574
12638WAT     H238157   6.779   7.647   3.575
12639WAT      O38158   9.681   2.064   2.014
12639WAT     H138159   9.750   2.136   2.011
12639WAT     H238160   9.616   2.077   1.940
12640WAT      O38161   2.995   9.484   8.159
12640WAT     H138162   3.011   9.515   8.065
12640WAT     H238163   3.080   9.493   8.212
12641WAT      O38164   2.055   0.991   2.321
12641WAT     H138165   2.099   0.906   2.292
12641WAT     H238166   1.973   0.970   2.374
12642WAT      O38167   7.003   8.606   7.466
12642WAT     H138168   7.097   8.625   7.493
12642WAT     H238169   7.002   8.558   7.378
12643WAT      O38170   6.168   2.092   2.095
12643WAT     H138171   6.179   2.057   2.002
12643WAT     H238172   6.116   2.177   2.092
12644WAT      O38173   6.738   6.691   9.197
12644WAT     H138174   6.741   6.789   9.174
12644WAT     H238175   6.809   6.643   9.145
12645WAT      O38176   6.426   7.874   0.633
12645WAT     H138177   6.329   7.855   0.651
12645WAT     H238178   6.454   7.825   0.551
12646WAT      O38179   0.593   2.812   5.463
12646WAT     H138180   0.674   2.787   5.410
12646WAT     H238181   0.621   2.850   5.551
12647WAT      O38182   1.465   8.416   4.672
12647WAT     H138183   1.426   8.506   4.691
12647WAT     H238184   1.457   8.397   4.574
12648WAT      O38185   6.929   9.407   7.700
12648WAT     H138186   6.930   9.420   7.601
12648WAT     H238187   6.936   9.310   7.722
12649WAT      O38188   8.284   7.026   0.652
12649WAT     H138189   8.186   7.031   0.632
12649WAT     H238190   8.329   7.109   0.618
12650WAT      O38191   3.221   7.963   2.417
12650WAT     H138192   3.227   7.869   2.384
12650WAT     H238193   3.149   7.969   2.486
12651WAT      O38194   8.735   9.497   3.204
12651WAT     H138195   8.710   9.405   3.233
12651WAT     H238196   8.672   9.528   3.133
12652WAT      O38197   1.888   1.377   1.840
12652WAT     H138198   1.887   1.277   1.848
12652WAT     H238199   1.796   1.410   1.820
12653WAT      O38200   4.663   0.396   1.164
12653WAT     H138201   4.566   0.421   1.173
12653WAT     H238202   4.693   0.349   1.247
12654WAT      O38203   2.635   5.942   9.536
12654WAT     H138204   2.539   5.940   9.565
12654WAT     H238205   2.640   5.931   9.437
12655WAT      O38206   2.093   8.905   3.128
12655WAT     H138207   2.026   8.845   3.084
12655WAT     H238208   2.064   9.000   3.118
12656WAT      O38209   9.518   1.663   9.453
12656WAT     H138210   9.484   1.607   9.377
12656WAT     H238211   9.545   1.752   9.418
12657WAT      O38212   0.908   7.481   8.509
12657WAT     H138213   0.866   7.448   8.424
12657WAT     H238214   0.968   7.409   8.546
12658WAT      O38215   3.943   7.764   0.295
12658WAT     H138216   3.927   7.666   0.310
12658WAT     H238217   3.994   7.801   0.372
12659WAT      O38218   1.405   7.745   9.665
12659WAT     H138219   1.308   7.733   9.645
12659WAT     H238220   1.415   7.805   9.744
12660WAT      O38221   4.452   0.240   5.853
12660WAT     H138222   4.510   0.223   5.774
12660WAT     H238223   4.367   0.284   5.824
12661WAT      O38224   7.626   7.478   2.620
12661WAT     H138225   7.528   7.460   2.626
12661WAT     H238226   7.672   7.436   2.699
12662WAT      O38227   3.113   9.052   6.374
12662WAT     H138228   3.015   9.070   6.383
12662WAT     H238229   3.127   8.980   6.306
12663WAT      O38230   4.185   3.372   3.196
12663WAT     H138231   4.209   3.277   3.176
12663WAT     H238232   4.207   3.429   3.117
12664WAT      O38233   8.870   5.024   5.779
12664WAT     H138234   8.907   4.944   5.827
12664WAT     H238235   8.944   5.072   5.733
12665WAT      O38236   4.753   1.451   5.647
12665WAT     H138237   4.707   1.423   5.731
12665WAT     H238238   4.839   1.401   5.637
12666WAT      O38239   1.651   2.365   8.527
12666WAT     H138240   1.576   2.431   8.537
12666WAT     H238241   1.737   2.408   8.554
12667WAT      O38242   8.429   8.654   8.340
12667WAT     H138243   8.458   8.715   8.413
12667WAT     H238244   8.475   8.678   8.255
12668WAT      O38245   6.295   6.670   2.698
12668WAT     H138246   6.312   6.755   2.648
12668WAT     H238247   6.199   6.669   2.729
12669WAT      O38248   0.514   6.372   2.657
12669WAT     H138249   0.444   6.430   2.698
12669WAT     H238250   0.488   6.276   2.668
12670WAT      O38251   1.086   2.526   9.042
12670WAT     H138252   1.022   2.450   9.043
12670WAT     H238253   1.180   2.491   9.036
12671WAT      O38254   4.140   2.389   5.061
12671WAT     H138255   4.072   2.458   5.086
12671WAT     H238256   4.208   2.429   5.000
12672WAT      O38257   6.079   2.829   1.750
12672WAT     H138258   5.981   2.851   1.747
12672WAT     H238259   6.096   2.745   1.698
12673WAT      O38260   5.722   1.775   7.472
12673WAT     H138261   5.626   1.764   7.494
12673WAT     H238262   5.732   1.798   7.375
12674WAT      O38263   6.427   3.456   4.260
12674WAT     H138264   6.395   3.490   4.348
12674WAT     H238265   6.487   3.524   4.218
12675WAT      O38266   6.584   7.954   0.131
12675WAT     H138267   6.561   8.044   0.097
12675WAT     H238268   6.582   7.954   0.231
12676WAT      O38269   3.564   2.151   0.708
12676WAT     H138270   3.661   2.170   0.715
12676WAT     H238271   3.512   2.231   0.741
12677WAT      O38272   2.535   9.429   8.891
12677WAT     H138273   2.502   9.417   8.797
12677WAT     H238274   2.584   9.516   8.898
12678WAT      O38275   1.004   6.029   9.737
12678WAT     H138276   0.974   5.934   9.738
12678WAT     H238277   1.012   6.062   9.643
12679WAT      O38278   0.681   4.113   1.527
12679WAT     H138279   0.680   4.213   1.537
12679WAT     H238280   0.746   4.074   1.592
12680WAT      O38281   6.885   0.291   5.550
12680WAT     H138282   6.943   0.210   5.559
12680WAT     H238283   6.938   0.366   5.511
12681WAT      O38284   9.676   9.355   1.046
12681WAT     H138285   9.730   9.396   1.120
12681WAT     H238286   9.592   9.408   1.032
12682WAT      O38287   0.320   1.117   1.135
12682WAT     H138288   0.302   1.018   1.136
12682WAT     H238289   0.283   1.157   1.051
12683WAT      O38290   7.716   7.123   0.797
12683WAT     H138291   7.795   7.133   0.736
12683WAT     H238292   7.745   7.138   0.892
12684WAT      O38293   8.286   6.182   9.262
12684WAT     H138294   8.364   6.125   9.288
12684WAT     H238295   8.264   6.167   9.166
12685WAT      O38296   7.526   5.513   0.748
12685WAT     H138297   7.613   5.562   0.750
12685WAT     H238298   7.539   5.423   0.705
12686WAT      O38299   9.634   9.787   5.490
12686WAT     H138300   9.544   9.749   5.470
12686WAT     H238301   9.660   9.851   5.418
12687WAT      O38302   3.954   3.741   4.681
12687WAT     H138303   4.013   3.674   4.636
12687WAT     H238304   4.009   3.819   4.710
12688WAT      O38305   5.870   3.806   6.984
12688WAT     H138306   5.776   3.774   6.970
12688WAT     H238307   5.933   3.728   6.985
12689WAT      O38308   5.241   7.497   7.690
12689WAT     H138309   5.322   7.556   7.689
12689WAT     H238310   5.159   7.554   7.695
12690WAT      O38311   9.735   3.029   9.006
12690WAT     H138312   9.714   2.944   9.055
12690WAT     H238313   9.710   3.020   8.910
12691WAT      O38314   2.058   0.267   9.530
12691WAT     H138315   2.142   0.322   9.533
12691WAT     H238316   2.014   0.271   9.620
12692WAT      O38317   7.017   4.846   5.088
12692WAT     H138318   7.071   4.765   5.107
12692WAT     H238319   7.068   4.908   5.029
12693WAT      O38320   6.507   6.576   2.504
12693WAT     H138321   6.434   6.511   2.524
12693WAT     H238322   6.595   6.528   2.501
12694WAT      O38323   4.212   1.350   2.006
12694WAT     H138324   4.168   1.283   1.946
12694WAT     H238325   4.144   1.413   2.042
12695WAT      O38326   7.622   4.139   1.568
12695WAT     H138327   7.659   4.110   1.480
12695WAT     H238328   7.665   4.226   1.595
12696WAT      O38329   6.893   7.110   8.512
12696WAT     H138330   6.931   7.172   8.444
12696WAT     H238331   6.913   7.015   8.486
12697WAT      O38332   8.767   4.381   5.215
12697WAT     H138333   8.701   4.441   5.261
12697WAT     H238334   8.773   4.294   5.263
12698WAT      O38335   8.976   4.819   5.948
12698WAT     H138336   8.967   4.876   6.030
12698WAT     H238337   9.032   4.739   5.969
12699WAT      O38338   8.202   8.143   5.852
12699WAT     H138339   8.130   8.081   5.822
12699WAT     H238340   8.177   8.237   5.829
12700WAT      O38341   1.958   2.464   7.228
12700WAT     H138342   1.879   2.430   7.177
12700WAT     H238343   2.011   2.526   7.170
12701WAT      O38344   1.057   8.132   3.680
12701WAT     H138345   0.991   8.136   3.756
12701WAT     H238346   1.138   8.186   3.703
12702WAT      O38347   5.037   2.213   1.835
12702WAT     H138348   5.013   2.261   1.919
12702WAT     H238349   4.953   2.178   1.792
12703WAT      O38350   4.676   9.605   7.616
12703WAT     H138351   4.657   9.675   7.548
12703WAT     H238352   4.766   9.566   7.601
12704WAT      O38353   7.284   3.384   1.711
12704WAT     H138354   7.289   3.476   1.670
12704WAT     H238355   7.363   3.370   1.770
12705WAT      O38356   0.258   9.140   3.580
12705WAT     H138357   0.282   9.064   3.520
12705WAT     H238358   0.298   9.225   3.544
12706WAT      O38359   3.676   5.837   5.069
12706WAT     H138360   3.753   5.781   5.101
12706WAT     H238361   3.712   5.917   5.022
12707WAT      O38362   1.421   3.414   5.453
12707WAT     H138363   1.517   3.440   5.439
12707WAT     H238364   1.394   3.349   5.382
12708WAT      O38365   9.079   2.836   5.655
12708WAT     H138366   9.083   2.930   5.688
12708WAT     H238367   9.031   2.779   5.722
12709WAT      O38368   2.280   1.814   7.704
12709WAT     H138369   2.201   1.753   7.715
12709WAT     H238370   2.273   1.862   7.617
12710WAT      O38371   5.125   1.927   9.633
12710WAT     H138372   5.029   1.939   9.656
12710WAT     H238373   5.167   2.016   9.615
12711WAT      O38374   7.736   3.720   1.102
12711WAT     H138375   7.738   3.806   1.052
12711WAT     H238376   7.829   3.686   1.113
12712WAT      O38377   2.613   1.241   9.530
12712WAT     H138378   2.608   1.236   9.430
12712WAT     H238379   2.601   1.150   9.569
12713WAT      O38380   3.171   7.708   3.249
12713WAT     H138381   3.203   7.626   3.201
12713WAT     H238382   3.223   7.787   3.217
12714WAT      O38383   5.053   9.014   6.400
12714WAT     H138384   5.130   9.043   6.457
12714WAT     H238385   5.011   9.095   6.357
12715WAT      O38386   2.674   9.481   7.311
12715WAT     H138387   2.598   9.465   7.375
12715WAT     H238388   2.760   9.487   7.362
12716WAT      O38389   5.569   9.549   2.608
12716WAT     H138390   5.561   9.647   2.623
12716WAT     H238391   5.484   9.504   2.633
12717WAT      O38392   8.897   9.846   5.069
12717WAT     H138393   8.894   9.851   4.969
12717WAT     H238394   8.962   9.776   5.098
12718WAT      O38395   0.130   0.516   8.157
12718WAT     H138396   0.131   0.469   8.246
12718WAT     H238397   0.035   0.531   8.129
12719WAT      O38398   6.072   2.967   2.720
12719WAT     H138399   6.134   2.985   2.796
12719WAT     H238400   6.037   3.054   2.684
12720WAT      O38401   8.855   0.100   5.385
12720WAT     H138402   8.783   0.166   5.364
12720WAT     H238403   8.814   0.009   5.396
12721WAT      O38404   1.745   2.854   6.550
12721WAT     H138405   1.799   2.938   6.554
12721WAT     H238406   1.696   2.842   6.636
12722WAT      O38407   9.750   2.792   6.990
12722WAT     H138408   9.808   2.720   6.950
12722WAT     H238409   9.806   2.873   7.008
12723WAT      O38410   1.436   6.398   4.552
12723WAT     H138411   1.440   6.476   4.489
12723WAT     H238412   1.486   6.421   4.636
12724WAT      O38413   2.077   5.105   4.284
12724WAT     H138414   2.078   5.049   4.367
12724WAT     H238415   2.141   5.067   4.218
12725WAT      O38416   2.123   9.598   5.332
12725WAT     H138417   2.108   9.693   5.304
12725WAT     H238418   2.211   9.566   5.298
12726WAT      O38419   3.627   0.900   2.403
12726WAT     H138420   3.682   0.819   2.378
12726WAT     H238421   3.684   0.982   2.395
12727WAT      O38422   7.476   8.883   3.161
12727WAT     H138423   7.398   8.827   3.188
12727WAT     H238424   7.454   8.979   3.176
12728WAT      O38425   6.120   2.322   7.063
12728WAT     H138426   6.112   2.274   7.150
12728WAT     H238427   6.159   2.413   7.078
12729WAT      O38428   1.302   6.717   2.344
12729WAT     H138429   1.337   6.783   2.278
12729WAT     H238430   1.246   6.765   2.412
12730WAT      O38431   1.584   1.776   9.479
12730WAT     H138432   1.660   1.829   9.515
12730WAT     H238433   1.547   1.717   9.551
12731WAT      O38434   2.424   5.401   0.817
12731WAT     H138435   2.482   5.320   0.819
12731WAT     H238436   2.355   5.390   0.745
12732WAT      O38437   4.079   0.698   3.261
12732WAT     H138438   4.098   0.756   3.340
12732WAT     H238439   4.079   0.753   3.178
12733WAT      O38440   5.213   4.610   9.418
12733WAT     H138441   5.182   4.595   9.325
12733WAT     H238442   5.204   4.707   9.441
12734WAT      O38443   2.438   2.831   9.428
12734WAT     H138444   2.481   2.833   9.518
12734WAT     H238445   2.362   2.766   9.428
12735WAT      O38446   9.694   6.469   7.454
12735WAT     H138447   9.765   6.482   7.523
12735WAT     H238448   9.632   6.397   7.484
12736WAT      O38449   9.533   5.762   6.264
12736WAT     H138450   9.560   5.858   6.277
12736WAT     H238451   9.554   5.735   6.170
12737WAT      O38452   7.946   4.632   8.701
12737WAT     H138453   8.012   4.573   8.656
12737WAT     H238454   7.958   4.625   8.800
12738WAT      O38455   1.705   9.574   0.807
12738WAT     H138456   1.803   9.578   0.786
12738WAT     H238457   1.673   9.480   0.797
12739WAT      O38458   2.759   3.085   7.462
12739WAT     H138459   2.829   3.087   7.534
12739WAT     H238460   2.719   2.994   7.456
12740WAT      O38461   9.472   7.092   1.042
12740WAT     H138462   9.409   7.163   1.009
12740WAT     H238463   9.537   7.069   0.969
12741WAT      O38464   3.517   4.746   1.322
12741WAT     H138465   3.499   4.747   1.223
12741WAT     H238466   3.568   4.827   1.348
12742WAT      O38467   1.015   5.457   8.671
12742WAT     H138468   1.045   5.362   8.685
12742WAT     H238469   1.087   5.508   8.625
12743WAT      O38470   6.580   5.323   4.496
12743WAT     H138471   6.673   5.327   4.532
12743WAT     H238472   6.547   5.229   4.501
12744WAT      O38473   4.787   1.487   9.330
12744WAT     H138474   4.838   1.481   9.244
12744WAT     H238475   4.825   1.561   9.386
12745WAT      O38476   8.506   7.210   5.462
12745WAT     H138477   8.571   7.183   5.534
12745WAT     H238478   8.544   7.187   5.373
12746WAT      O38479   5.681   4.467   2.198
12746WAT     H138480   5.652   4.386   2.249
12746WAT     H238481   5.781   4.470   2.194
12747WAT      O38482   1.570   4.244   8.179
12747WAT     H138483   1.577   4.319   8.244
12747WAT     H238484   1.493   4.185   8.202
12748WAT      O38485   6.958   8.407   5.247
12748WAT     H138486   6.967   8.484   5.183
12748WAT     H238487   6.896   8.339   5.208
12749WAT      O38488   4.643   7.470   7.443
12749WAT     H138489   4.587   7.450   7.363
12749WAT     H238490   4.585   7.475   7.524
12750WAT      O38491   2.458   4.698   6.130
12750WAT     H138492   2.397   4.641   6.186
12750WAT     H238493   2.440   4.794   6.149
12751WAT      O38494   5.094   1.271   0.327
12751WAT     H138495   5.018   1.213   0.356
12751WAT     H238496   5.059   1.363   0.307
12752WAT      O38497   5.211   7.798   1.106
12752WAT     H138498   5.175   7.885   1.141
12752WAT     H238499   5.225   7.804   1.008
12753WAT      O38500   1.191   3.983   2.432
12753WAT     H138501   1.099   4.004   2.399
12753WAT     H238502   1.250   4.062   2.417
12754WAT      O38503   9.288   8.971   7.598
12754WAT     H138504   9.300   9.015   7.509
12754WAT     H238505   9.291   9.040   7.670
12755WAT      O38506   9.452   1.181   2.338
12755WAT     H138507   9.393   1.255   2.373
12755WAT     H238508   9.547   1.211   2.342
12756WAT      O38509   5.280   3.492   0.485
12756WAT     H138510   5.187   3.471   0.515
12756WAT     H238511   5.325   3.409   0.452
12757WAT      O38512   0.076   0.507   0.515
12757WAT     H138513  -0.006   0.561   0.535
12757WAT     H238514   0.158   0.559   0.541
12758WAT      O38515   0.017   2.163   5.243
12758WAT     H138516  -0.061   2.108   5.272
12758WAT     H238517   0.005   2.257   5.275
12759WAT      O38518   0.648   2.363   2.770
12759WAT     H138519   0.641   2.271   2.730
12759WAT     H238520   0.558   2.406   2.772
12760WAT      O38521   0.438   3.287   6.454
12760WAT     H138522   0.398   3.284   6.546
12760WAT     H238523   0.379   3.342   6.394
12761WAT      O38524   1.876   3.283   8.764
12761WAT     H138525   1.889   3.229   8.847
12761WAT     H238526   1.815   3.234   8.701
12762WAT      O38527   6.120   8.795   8.271
12762WAT     H138528   6.166   8.710   8.299
12762WAT     H238529   6.072   8.834   8.349
12763WAT      O38530   1.482   0.238   0.763
12763WAT     H138531   1.554   0.306   0.748
12763WAT     H238532   1.518   0.146   0.751
12764WAT      O38533   3.407   7.222   5.045
12764WAT     H138534   3.440   7.162   5.118
12764WAT     H238535   3.478   7.289   5.022
12765WAT      O38536   0.803   0.417   8.786
12765WAT     H138537   0.766   0.355   8.855
12765WAT     H238538   0.886   0.376   8.746
12766WAT      O38539   5.649   2.055   0.635
12766WAT     H138540   5.683   2.014   0.550
12766WAT     H238541   5.638   2.154   0.622
12767WAT      O38542   5.211   4.571   4.927
12767WAT     H138543   5.292   4.562   4.985
12767WAT     H238544   5.208   4.662   4.887
12768WAT      O38545   5.675   8.467   0.434
12768WAT     H138546   5.767   8.441   0.405
12768WAT     H238547   5.619   8.385   0.446
12769WAT      O38548   6.190   6.909   9.593
12769WAT     H138549   6.208   6.833   9.531
12769WAT     H238550   6.264   6.976   9.585
12770WAT      O38551   7.537   9.388   8.726
12770WAT     H138552   7.560   9.308   8.781
12770WAT     H238553   7.506   9.359   8.635
12771WAT      O38554   9.026   7.163   8.511
12771WAT     H138555   9.006   7.234   8.443
12771WAT     H238556   9.070   7.205   8.591
12772WAT      O38557   0.511   5.284   6.562
12772WAT     H138558   0.557   5.207   6.605
12772WAT     H238559   0.469   5.255   6.476
12773WAT      O38560   3.614   2.877   0.030
12773WAT     H138561   3.647   2.900  -0.061
12773WAT     H238562   3.526   2.830   0.022
12774WAT      O38563   9.725   1.695   3.015
12774WAT     H138564   9.654   1.757   2.982
12774WAT     H238565   9.683   1.616   3.060
12775WAT      O38566   9.773   7.623   8.098
12775WAT     H138567   9.718   7.590   8.175
12775WAT     H238568   9.789   7.547   8.034
12776WAT      O38569   8.492   6.449   5.607
12776WAT     H138570   8.547   6.531   5.592
12776WAT     H238571   8.479   6.435   5.705
12777WAT      O38572   4.290   7.836   2.536
12777WAT     H138573   4.310   7.870   2.445
12777WAT     H238574   4.350   7.882   2.603
12778WAT      O38575   2.871   9.836   9.816
12778WAT     H138576   2.920   9.774   9.755
12778WAT     H238577   2.891   9.813   9.911
12779WAT      O38578   1.883   9.750   2.904
12779WAT     H138579   1.788   9.718   2.898
12779WAT     H238580   1.938   9.703   2.835
12780WAT      O38581   8.511   7.812   6.900
12780WAT     H138582   8.611   7.814   6.898
12780WAT     H238583   8.476   7.905   6.896
12781WAT      O38584   2.475   7.665   8.780
12781WAT     H138585   2.473   7.753   8.731
12781WAT     H238586   2.409   7.603   8.739
12782WAT      O38587   1.893   1.807   8.796
12782WAT     H138588   1.805   1.762   8.781
12782WAT     H238589   1.962   1.768   8.734
12783WAT      O38590   3.823   8.464   1.632
12783WAT     H138591   3.736   8.420   1.608
12783WAT     H238592   3.805   8.559   1.660
12784WAT      O38593   0.234   5.213   7.537
12784WAT     H138594   0.151   5.243   7.583
12784WAT     H238595   0.238   5.113   7.536
12785WAT      O38596   3.485   4.107   6.430
12785WAT     H138597   3.580   4.109   6.463
12785WAT     H238598   3.471   4.183   6.367
12786WAT      O38599   9.691   9.105   8.984
12786WAT     H138600   9.756   9.031   8.997
12786WAT     H238601   9.730   9.174   8.923
12787WAT      O38602   2.826   5.385   1.449
12787WAT     H138603   2.766   5.439   1.509
12787WAT     H238604   2.888   5.330   1.506
12788WAT      O38605   8.711   5.807   5.313
12788WAT     H138606   8.804   5.821   5.281
12788WAT     H238607   8.712   5.745   5.392
12789WAT      O38608   5.193   1.104   6.003
12789WAT     H138609   5.135   1.146   6.073
12789WAT     H238610   5.241   1.026   6.043
12790WAT      O38611   7.819   4.989   4.451
12790WAT     H138612   7.742   5.048   4.426
12790WAT     H238613   7.878   4.976   4.371
12791WAT      O38614   3.092   7.057   9.826
12791WAT     H138615   3.094   7.040   9.924
12791WAT     H238616   3.090   6.970   9.776
12792WAT      O38617   2.854   6.021   7.055
12792WAT     H138618   2.824   5.957   6.985
12792WAT     H238619   2.946   6.054   7.032
12793WAT      O38620   7.976   4.175   8.678
12793WAT     H138621   7.905   4.140   8.618
12793WAT     H238622   7.939   4.251   8.732
12794WAT      O38623   2.106   2.483   6.150
12794WAT     H138624   2.185   2.426   6.173
12794WAT     H238625   2.034   2.469   6.218
12795WAT      O38626   4.239   7.703   1.603
12795WAT     H138627   4.292   7.620   1.587
12795WAT     H238628   4.283   7.780   1.557
12796WAT      O38629   3.560   8.369   5.842
12796WAT     H138630   3.526   8.389   5.750
12796WAT     H238631   3.535   8.444   5.904
12797WAT      O38632   2.937   5.719   3.110
12797WAT     H138633   2.877   5.788   3.070
12797WAT     H238634   2.890   5.671   3.183
12798WAT      O38635   2.607   5.117   0.769
12798WAT     H138636   2.509   5.117   0.749
12798WAT     H238637   2.629   5.037   0.826
12799WAT      O38638   6.364   8.409   6.567
12799WAT     H138639   6.451   8.359   6.571
12799WAT     H238640   6.377   8.492   6.513
12800WAT      O38641   2.281   7.043   5.925
12800WAT     H138642   2.274   7.009   5.832
12800WAT     H238643   2.244   7.136   5.930
12801WAT      O38644   2.231   1.625   1.401
12801WAT     H138645   2.178   1.642   1.318
12801WAT     H238646   2.294   1.550   1.385
12802WAT      O38647   7.222   7.291   7.349
12802WAT     H138648   7.155   7.356   7.385
12802WAT     H238649   7.215   7.288   7.249
12803WAT      O38650   6.856   0.659   5.551
12803WAT     H138651   6.799   0.602   5.611
12803WAT     H238652   6.799   0.697   5.478
12804WAT      O38653   6.823   7.816   0.018
12804WAT     H138654   6.854   7.744   0.080
12804WAT     H238655   6.750   7.868   0.062
12805WAT      O38656   7.118   6.622   7.859
12805WAT     H138657   7.097   6.692   7.927
12805WAT     H238658   7.210   6.639   7.821
12806WAT      O38659   8.957   6.778   1.912
12806WAT     H138660   8.917   6.704   1.967
12806WAT     H238661   9.042   6.747   1.870
12807WAT      O38662   7.043   5.331   0.873
12807WAT     H138663   6.995   5.397   0.815
12807WAT     H238664   6.978   5.285   0.933
12808WAT      O38665   7.979   5.704   4.710
12808WAT     H138666   8.012   5.784   4.760
12808WAT     H238667   7.879   5.706   4.705
12809WAT      O38668   6.474   1.164   7.696
12809WAT     H138669   6.494   1.223   7.774
12809WAT     H238670   6.553   1.160   7.636
12810WAT      O38671   6.652   1.829   3.881
12810WAT     H138672   6.561   1.794   3.903
12810WAT     H238673   6.719   1.793   3.947
12811WAT      O38674   4.937   6.279   9.235
12811WAT     H138675   4.964   6.284   9.331
12811WAT     H238676   4.928   6.183   9.208
12812WAT      O38677   1.908   8.946   5.532
12812WAT     H138678   1.968   8.972   5.456
12812WAT     H238679   1.828   8.899   5.498
12813WAT      O38680   2.057   1.404   7.996
12813WAT     H138681   2.147   1.412   8.038
12813WAT     H238682   2.014   1.494   7.991
12814WAT      O38683   3.776   6.093   9.850
12814WAT     H138684   3.851   6.098   9.785
12814WAT     H238685   3.721   6.176   9.844
12815WAT      O38686   1.216   3.851   4.353
12815WAT     H138687   1.246   3.875   4.261
12815WAT     H238688   1.151   3.919   4.385
12816WAT      O38689   9.553   1.675   5.272
12816WAT     H138690   9.544   1.759   5.218
12816WAT     H238691   9.464   1.630   5.278
12817WAT      O38692   6.842   6.814   8.825
12817WAT     H138693   6.908   6.833   8.752
12817WAT     H238694   6.878   6.847   8.912
12818WAT      O38695   8.447   0.778   1.477
12818WAT     H138696   8.499   0.729   1.547
12818WAT     H238697   8.400   0.712   1.418
12819WAT      O38698   4.603   3.361   2.465
12819WAT     H138699   4.620   3.387   2.370
12819WAT     H238700   4.590   3.262   2.470
12820WAT      O38701   4.133   1.832   7.127
12820WAT     H138702   4.227   1.824   7.095
12820WAT     H238703   4.089   1.911   7.084
12821WAT      O38704   2.084   1.380   1.523
12821WAT     H138705   2.142   1.457   1.551
12821WAT     H238706   2.095   1.363   1.425
12822WAT      O38707   5.115   8.973   0.295
12822WAT     H138708   5.159   8.971   0.385
12822WAT     H238709   5.027   8.926   0.299
12823WAT      O38710   2.234   7.296   0.163
12823WAT     H138711   2.269   7.232   0.095
12823WAT     H238712   2.152   7.259   0.206
12824WAT      O38713   8.481   4.635   2.374
12824WAT     H138714   8.389   4.598   2.361
12824WAT     H238715   8.481   4.696   2.453
12825WAT      O38716   3.320   2.597   5.711
12825WAT     H138717   3.309   2.502   5.742
12825WAT     H238718   3.235   2.627   5.668
12826WAT      O38719   0.862   1.130   5.584
12826WAT     H138720   0.778   1.077   5.591
12826WAT     H238721   0.864   1.199   5.657
12827WAT      O38722   6.385   4.625   6.508
12827WAT     H138723   6.329   4.706   6.487
12827WAT     H238724   6.389   4.613   6.607
12828WAT      O38725   8.497   8.405   6.383
12828WAT     H138726   8.523   8.396   6.479
12828WAT     H238727   8.525   8.322   6.333
12829WAT      O38728   3.350   1.658   4.654
12829WAT     H138729   3.350   1.558   4.657
12829WAT     H238730   3.419   1.690   4.589
12830WAT      O38731   8.352   9.486   9.340
12830WAT     H138732   8.441   9.498   9.384
12830WAT     H238733   8.281   9.487   9.410
12831WAT      O38734   7.857   8.567   4.988
12831WAT     H138735   7.888   8.662   4.996
12831WAT     H238736   7.934   8.509   4.961
12832WAT      O38737   4.163   4.549   1.538
12832WAT     H138738   4.216   4.464   1.536
12832WAT     H238739   4.123   4.562   1.628
12833WAT      O38740   3.236   4.570   0.493
12833WAT     H138741   3.296   4.549   0.416
12833WAT     H238742   3.147   4.527   0.478
12834WAT      O38743   2.657   7.435   0.637
12834WAT     H138744   2.747   7.399   0.617
12834WAT     H238745   2.601   7.436   0.554
12835WAT      O38746   8.573   6.508   1.894
12835WAT     H138747   8.611   6.578   1.834
12835WAT     H238748   8.571   6.420   1.846
12836WAT      O38749   7.124   5.699   8.731
12836WAT     H138750   7.046   5.644   8.760
12836WAT     H238751   7.208   5.660   8.767
12837WAT      O38752   8.614   3.027   0.142
12837WAT     H138753   8.689   3.082   0.103
12837WAT     H238754   8.650   2.940   0.175
12838WAT      O38755   6.740   8.808   0.169
12838WAT     H138756   6.748   8.877   0.241
12838WAT     H238757   6.816   8.817   0.105
12839WAT      O38758   2.552   0.743   3.879
12839WAT     H138759   2.503   0.810   3.823
12839WAT     H238760   2.647   0.771   3.887
12840WAT      O38761   2.016   2.264   6.823
12840WAT     H138762   1.999   2.193   6.891
12840WAT     H238763   2.101   2.312   6.846
12841WAT      O38764   2.982   0.089   0.313
12841WAT     H138765   3.053   0.124   0.374
12841WAT     H238766   2.892   0.113   0.350
12842WAT      O38767   9.305   1.739   0.454
12842WAT     H138768   9.354   1.773   0.534
12842WAT     H238769   9.256   1.656   0.479
12843WAT      O38770   7.767   8.342   1.883
12843WAT     H138771   7.781   8.441   1.880
12843WAT     H238772   7.787   8.308   1.975
12844WAT      O38773   8.356   3.130   3.805
12844WAT     H138774   8.442   3.159   3.846
12844WAT     H238775   8.374   3.090   3.715
12845WAT      O38776   2.708   0.140   0.396
12845WAT     H138777   2.722   0.226   0.348
12845WAT     H238778   2.647   0.155   0.474
12846WAT      O38779   2.896   5.323   6.170
12846WAT     H138780   2.958   5.259   6.216
12846WAT     H238781   2.948   5.398   6.131
12847WAT      O38782   0.543   6.010   4.684
12847WAT     H138783   0.515   5.929   4.632
12847WAT     H238784   0.487   6.088   4.658
12848WAT      O38785   9.499   2.090   5.890
12848WAT     H138786   9.443   2.026   5.943
12848WAT     H238787   9.527   2.046   5.805
12849WAT      O38788   3.443   9.026   5.641
12849WAT     H138789   3.477   9.025   5.547
12849WAT     H238790   3.480   9.106   5.688
12850WAT      O38791   9.281   8.747   4.686
12850WAT     H138792   9.240   8.687   4.617
12850WAT     H238793   9.255   8.715   4.777
12851WAT      O38794   1.739   3.126   6.649
12851WAT     H138795   1.685   3.148   6.730
12851WAT     H238796   1.686   3.146   6.567
12852WAT      O38797   1.888   7.349   8.105
12852WAT     H138798   1.875   7.286   8.028
12852WAT     H238799   1.986   7.363   8.121
12853WAT      O38800   9.683   7.779   1.118
12853WAT     H138801   9.628   7.722   1.180
12853WAT     H238802   9.652   7.873   1.124
12854WAT      O38803   3.246   5.872   0.497
12854WAT     H138804   3.186   5.798   0.465
12854WAT     H238805   3.213   5.959   0.460
12855WAT      O38806   7.726   5.763   7.408
12855WAT     H138807   7.793   5.778   7.335
12855WAT     H238808   7.642   5.725   7.368
12856WAT      O38809   7.888   6.526   5.355
12856WAT     H138810   7.816   6.593   5.336
12856WAT     H238811   7.849   6.434   5.350
12857WAT      O38812   4.287   7.213   7.098
12857WAT     H138813   4.249   7.131   7.141
12857WAT     H238814   4.213   7.265   7.055
12858WAT      O38815   9.516   2.017   0.483
12858WAT     H138816   9.534   1.936   0.426
12858WAT     H238817   9.445   1.995   0.550
12859WAT      O38818   3.182   1.059   1.839
12859WAT     H138819   3.126   1.063   1.922
12859WAT     H238820   3.134   1.104   1.764
12860WAT      O38821   0.250   5.312   0.915
12860WAT     H138822   0.171   5.343   0.861
12860WAT     H238823   0.270   5.217   0.892
12861WAT      O38824   1.145   1.897   0.561
12861WAT     H138825   1.110   1.861   0.475
12861WAT     H238826   1.089   1.975   0.590
12862WAT      O38827   3.022   4.874   8.946
12862WAT     H138828   3.005   4.854   8.850
12862WAT     H238829   2.991   4.798   9.002
12863WAT      O38830   8.910   6.649   1.122
12863WAT     H138831   9.001   6.647   1.163
12863WAT     H238832   8.868   6.558   1.131
12864WAT      O38833   6.906   5.748   2.706
12864WAT     H138834   6.870   5.827   2.755
12864WAT     H238835   6.888   5.665   2.759
12865WAT      O38836   2.952   6.865   9.291
12865WAT     H138837   3.030   6.926   9.302
12865WAT     H238838   2.975   6.794   9.225
12866WAT      O38839   2.392   0.129   3.938
12866WAT     H138840   2.301   0.141   3.977
12866WAT     H238841   2.390   0.057   3.869
12867WAT      O38842   9.010   5.503   4.133
12867WAT     H138843   8.927   5.481   4.082
12867WAT     H238844   9.062   5.573   4.083
12868WAT      O38845   1.230   3.425   7.070
12868WAT     H138846   1.138   3.457   7.048
12868WAT     H238847   1.294   3.502   7.066
12869WAT      O38848   8.494   6.224   1.809
12869WAT     H138849   8.487   6.172   1.894
12869WAT     H238850   8.569   6.188   1.754
12870WAT      O38851   0.284   9.787   9.553
12870WAT     H138852   0.365   9.781   9.611
12870WAT     H238853   0.223   9.711   9.573
12871WAT      O38854   4.035   9.458   0.858
12871WAT     H138855   4.025   9.515   0.776
12871WAT     H238856   3.986   9.501   0.934
12872WAT      O38857   5.309   1.706   3.491
12872WAT     H138858   5.237   1.655   3.539
12872WAT     H238859   5.295   1.700   3.393
12873WAT      O38860   6.829   9.077   4.502
12873WAT     H138861   6.891   9.151   4.476
12873WAT     H238862   6.736   9.113   4.511
12874WAT      O38863   9.288   0.239   6.878
12874WAT     H138864   9.280   0.157   6.822
12874WAT     H238865   9.199   0.260   6.919
12875WAT      O38866   0.918   0.265   6.601
12875WAT     H138867   0.861   0.337   6.639
12875WAT     H238868   0.945   0.289   6.508
12876WAT      O38869   7.564   0.592   7.040
12876WAT     H138870   7.566   0.553   6.948
12876WAT     H238871   7.553   0.518   7.107
12877WAT      O38872   2.948   7.991   2.190
12877WAT     H138873   2.955   7.900   2.232
12877WAT     H238874   3.035   8.013   2.145
12878WAT      O38875   2.122   1.122   6.450
12878WAT     H138876   2.186   1.166   6.387
12878WAT     H238877   2.028   1.150   6.428
12879WAT      O38878   7.667   0.164   1.117
12879WAT     H138879   7.732   0.094   1.147
12879WAT     H238880   7.595   0.173   1.185
12880WAT      O38881   5.330   7.880   7.912
12880WAT     H138882   5.343   7.932   7.997
12880WAT     H238883   5.283   7.794   7.932
12881WAT      O38884   3.134   4.783   0.580
12881WAT     H138885   3.088   4.756   0.665
12881WAT     H238886   3.182   4.704   0.542
12882WAT      O38887   4.051   4.611   9.821
12882WAT     H138888   4.105   4.596   9.904
12882WAT     H238889   4.013   4.704   9.822
12883WAT      O38890   3.050   1.315   7.094
12883WAT     H138891   3.083   1.222   7.111
12883WAT     H238892   2.969   1.333   7.151
12884WAT      O38893   7.648   9.313   6.381
12884WAT     H138894   7.716   9.378   6.346
12884WAT     H238895   7.695   9.231   6.414
12885WAT      O38896   4.337   3.256   4.216
12885WAT     H138897   4.330   3.286   4.121
12885WAT     H238898   4.268   3.185   4.233
12886WAT      O38899   6.221   3.186   8.607
12886WAT     H138900   6.142   3.184   8.669
12886WAT     H238901   6.200   3.242   8.528
12887WAT      O38902   1.818   5.478   7.730
12887WAT     H138903   1.910   5.508   7.705
12887WAT     H238904   1.755   5.500   7.655
12888WAT      O38905   4.306   0.476   2.468
12888WAT     H138906   4.359   0.559   2.481
12888WAT     H238907   4.283   0.437   2.557
12889WAT      O38908   8.930   8.344   4.305
12889WAT     H138909   8.931   8.276   4.378
12889WAT     H238910   8.979   8.308   4.226
12890WAT      O38911   0.424   8.908   5.858
12890WAT     H138912   0.346   8.870   5.907
12890WAT     H238913   0.415   8.888   5.761
12891WAT      O38914   0.227   8.401   2.600
12891WAT     H138915   0.187   8.314   2.630
12891WAT     H238916   0.225   8.406   2.501
12892WAT      O38917   0.515   1.428   0.155
12892WAT     H138918   0.482   1.360   0.091
12892WAT     H238919   0.600   1.468   0.120
12893WAT      O38920   5.476   5.882   5.584
12893WAT     H138921   5.544   5.809   5.580
12893WAT     H238922   5.406   5.859   5.651
12894WAT      O38923   0.205   4.109   5.921
12894WAT     H138924   0.256   4.077   6.001
12894WAT     H238925   0.155   4.033   5.880
12895WAT      O38926   9.497   0.439   0.653
12895WAT     H138927   9.481   0.356   0.706
12895WAT     H238928   9.410   0.470   0.613
12896WAT      O38929   9.535   0.502   9.481
12896WAT     H138930   9.633   0.506   9.503
12896WAT     H238931   9.522   0.442   9.402
12897WAT      O38932   8.726   6.221   2.714
12897WAT     H138933   8.655   6.162   2.752
12897WAT     H238934   8.684   6.293   2.658
12898WAT      O38935   7.254   6.586   5.443
12898WAT     H138936   7.352   6.584   5.462
12898WAT     H238937   7.235   6.535   5.359
12899WAT      O38938   6.804   2.498   6.925
12899WAT     H138939   6.738   2.532   6.992
12899WAT     H238940   6.777   2.406   6.895
12900WAT      O38941   4.421   9.641   1.426
12900WAT     H138942   4.347   9.704   1.402
12900WAT     H238943   4.446   9.654   1.521
12901WAT      O38944   7.629   8.914   5.866
12901WAT     H138945   7.551   8.971   5.892
12901WAT     H238946   7.687   8.898   5.946
12902WAT      O38947   1.499   8.103   9.284
12902WAT     H138948   1.574   8.152   9.239
12902WAT     H238949   1.519   8.092   9.381
12903WAT      O38950   5.427   1.302   3.342
12903WAT     H138951   5.343   1.250   3.353
12903WAT     H238952   5.505   1.240   3.344
12904WAT      O38953   3.279   4.169   3.920
12904WAT     H138954   3.255   4.131   3.831
12904WAT     H238955   3.367   4.216   3.914
12905WAT      O38956   6.094   3.444   6.050
12905WAT     H138957   6.146   3.376   5.999
12905WAT     H238958   6.118   3.536   6.019
12906WAT      O38959   7.433   7.556   9.482
12906WAT     H138960   7.428   7.611   9.566
12906WAT     H238961   7.465   7.464   9.505
12907WAT      O38962   4.793   2.233   7.748
12907WAT     H138963   4.716   2.205   7.806
12907WAT     H238964   4.878   2.202   7.790
12908WAT      O38965   3.137   7.645   2.056
12908WAT     H138966   3.218   7.686   2.098
12908WAT     H238967   3.147   7.645   1.957
12909WAT      O38968   5.908   8.023   7.827
12909WAT     H138969   6.007   8.039   7.824
12909WAT     H238970   5.873   8.012   7.734
12910WAT      O38971   5.534   7.712   1.476
12910WAT     H138972   5.562   7.761   1.559
12910WAT     H238973   5.598   7.733   1.402
12911WAT      O38974   5.999   3.592   6.904
12911WAT     H138975   5.937   3.590   6.825
12911WAT     H238976   6.094   3.587   6.872
12912WAT      O38977   1.725   0.857   7.211
12912WAT     H138978   1.701   0.760   7.223
12912WAT     H238979   1.763   0.892   7.296
12913WAT      O38980   0.022   0.727   5.748
12913WAT     H138981   0.048   0.631   5.755
12913WAT     H238982  -0.024   0.756   5.832
12914WAT      O38983   2.890   2.854   0.891
12914WAT     H138984   2.888   2.935   0.833
12914WAT     H238985   2.984   2.836   0.920
12915WAT      O38986   0.875   6.355   8.880
12915WAT     H138987   0.937   6.356   8.801
12915WAT     H238988   0.922   6.314   8.958
12916WAT      O38989   7.173   7.233   9.337
12916WAT     H138990   7.174   7.285   9.422
12916WAT     H238991   7.266   7.227   9.300
12917WAT      O38992   1.075   1.667   0.044
12917WAT     H138993   1.119   1.686  -0.044
12917WAT     H238994   1.108   1.579   0.079
12918WAT      O38995   4.812   4.626   7.649
12918WAT     H138996   4.818   4.528   7.633
12918WAT     H238997   4.783   4.672   7.565
12919WAT      O38998   4.201   8.909   9.085
12919WAT     H138999   4.135   8.947   9.021
12919WAT     H239000   4.292   8.909   9.044
12920WAT      O39001   1.991   0.585   2.369
12920WAT     H139002   2.026   0.492   2.368
12920WAT     H239003   2.040   0.640   2.301
12921WAT      O39004   5.152   1.887   6.166
12921WAT     H139005   5.078   1.954   6.170
12921WAT     H239006   5.178   1.871   6.071
12922WAT      O39007   6.179   1.220   3.675
12922WAT     H139008   6.146   1.304   3.633
12922WAT     H239009   6.249   1.178   3.617
12923WAT      O39010   7.331   3.610   1.585
12923WAT     H139011   7.400   3.676   1.614
12923WAT     H239012   7.344   3.589   1.487
12924WAT      O39013   1.042   5.865   5.648
12924WAT     H139014   0.994   5.804   5.585
12924WAT     H239015   1.110   5.813   5.699
12925WAT      O39016   5.216   8.341   3.810
12925WAT     H139017   5.140   8.385   3.858
12925WAT     H239018   5.249   8.264   3.864
12926WAT      O39019   3.957   4.532   7.723
12926WAT     H139020   3.923   4.442   7.695
12926WAT     H239021   3.988   4.582   7.643
12927WAT      O39022   2.596   3.674   6.819
12927WAT     H139023   2.603   3.700   6.916
12927WAT     H239024   2.630   3.581   6.808
12928WAT      O39025   8.234   2.019   2.455
12928WAT     H139026   8.156   2.042   2.397
12928WAT     H239027   8.279   2.102   2.485
12929WAT      O39028   5.656   9.557   8.727
12929WAT     H139029   5.659   9.475   8.669
12929WAT     H239030   5.664   9.529   8.823
12930WAT      O39031   5.000   1.100   8.961
12930WAT     H139032   4.962   1.189   8.937
12930WAT     H239033   4.939   1.028   8.927
12931WAT      O39034   2.034   7.115   4.527
12931WAT     H139035   2.064   7.072   4.442
12931WAT     H239036   1.934   7.106   4.536
12932WAT      O39037   3.967   7.316   1.492
12932WAT     H139038   3.965   7.415   1.497
12932WAT     H239039   4.006   7.278   1.576
12933WAT      O39040   9.655   3.265   1.390
12933WAT     H139041   9.648   3.250   1.292
12933WAT     H239042   9.708   3.348   1.408
12934WAT      O39043   0.032   8.447   0.863
12934WAT     H139044   0.088   8.398   0.796
12934WAT     H239045   0.079   8.449   0.951
12935WAT      O39046   7.268   0.421   2.423
12935WAT     H139047   7.338   0.354   2.399
12935WAT     H239048   7.312   0.508   2.448
12936WAT      O39049   5.089   7.677   0.765
12936WAT     H139050   5.144   7.744   0.814
12936WAT     H239051   5.097   7.694   0.666
12937WAT      O39052   4.688   7.393   5.127
12937WAT     H139053   4.722   7.480   5.091
12937WAT     H239054   4.765   7.332   5.146
12938WAT      O39055   6.422   1.676   3.980
12938WAT     H139056   6.344   1.614   3.993
12938WAT     H239057   6.478   1.677   4.063
12939WAT      O39058   1.886   1.649   2.288
12939WAT     H139059   1.809   1.608   2.239
12939WAT     H239060   1.970   1.603   2.262
12940WAT      O39061   2.715   7.085   3.760
12940WAT     H139062   2.694   7.155   3.827
12940WAT     H239063   2.813   7.062   3.764
12941WAT      O39064   1.572   4.576   3.438
12941WAT     H139065   1.587   4.525   3.523
12941WAT     H239066   1.660   4.613   3.405
12942WAT      O39067   3.791   1.734   6.552
12942WAT     H139068   3.709   1.676   6.561
12942WAT     H239069   3.836   1.741   6.641
12943WAT      O39070   4.720   5.033   1.759
12943WAT     H139071   4.796   5.061   1.700
12943WAT     H239072   4.744   4.946   1.804
12944WAT      O39073   4.682   0.604   7.095
12944WAT     H139074   4.689   0.531   7.028
12944WAT     H239075   4.591   0.602   7.137
12945WAT      O39076   2.131   9.406   8.876
12945WAT     H139077   2.041   9.404   8.832
12945WAT     H239078   2.132   9.341   8.952
12946WAT      O39079   6.002   0.777   5.245
12946WAT     H139080   5.983   0.685   5.211
12946WAT     H239081   5.946   0.843   5.197
12947WAT      O39082   6.493   1.972   1.667
12947WAT     H139083   6.489   1.915   1.749
12947WAT     H239084   6.582   2.017   1.662
12948WAT      O39085   3.615   9.267   5.975
12948WAT     H139086   3.605   9.242   6.071
12948WAT     H239087   3.599   9.366   5.965
12949WAT      O39088   9.127   1.353   7.284
12949WAT     H139089   9.195   1.424   7.298
12949WAT     H239090   9.060   1.356   7.358
12950WAT      O39091   8.329   3.539   5.630
12950WAT     H139092   8.274   3.468   5.585
12950WAT     H239093   8.270   3.597   5.685
12951WAT      O39094   2.699   8.263   8.935
12951WAT     H139095   2.654   8.352   8.930
12951WAT     H239096   2.797   8.276   8.954
12952WAT      O39097   2.048   5.891   2.620
12952WAT     H139098   2.062   5.989   2.608
12952WAT     H239099   1.958   5.874   2.660
12953WAT      O39100   2.499   6.497   4.152
12953WAT     H139101   2.461   6.473   4.241
12953WAT     H239102   2.503   6.596   4.143
12954WAT      O39103   1.662   7.834   8.023
12954WAT     H139104   1.603   7.789   8.090
12954WAT     H239105   1.668   7.932   8.044
12955WAT      O39106   2.704   7.547   8.890
12955WAT     H139107   2.737   7.463   8.849
12955WAT     H239108   2.620   7.576   8.844
12956WAT      O39109   6.374   3.236   7.500
12956WAT     H139110   6.275   3.238   7.513
12956WAT     H239111   6.414   3.322   7.531
12957WAT      O39112   3.611   8.282   6.669
12957WAT     H139113   3.590   8.184   6.671
12957WAT     H239114   3.702   8.296   6.629
12958WAT      O39115   4.457   9.398   0.146
12958WAT     H139116   4.386   9.452   0.099
12958WAT     H239117   4.542   9.402   0.093
12959WAT      O39118   7.473   6.674   2.782
12959WAT     H139119   7.470   6.730   2.699
12959WAT     H239120   7.555   6.616   2.780
12960WAT      O39121   3.574   2.800   6.101
12960WAT     H139122   3.667   2.778   6.074
12960WAT     H239123   3.570   2.816   6.199
12961WAT      O39124   6.728   0.665   4.516
12961WAT     H139125   6.722   0.665   4.416
12961WAT     H239126   6.797   0.731   4.545
12962WAT      O39127   8.978   5.530   7.711
12962WAT     H139128   8.959   5.589   7.789
12962WAT     H239129   8.918   5.449   7.716
12963WAT      O39130   8.272   4.512   6.399
12963WAT     H139131   8.219   4.474   6.323
12963WAT     H239132   8.303   4.437   6.458
12964WAT      O39133   0.663   6.211   3.065
12964WAT     H139134   0.665   6.231   3.163
12964WAT     H239135   0.706   6.285   3.014
12965WAT      O39136   2.142   0.120   1.877
12965WAT     H139137   2.222   0.136   1.820
12965WAT     H239138   2.079   0.198   1.870
12966WAT      O39139   2.370   9.428   2.774
12966WAT     H139140   2.335   9.343   2.733
12966WAT     H239141   2.423   9.406   2.856
12967WAT      O39142   7.949   4.419   9.440
12967WAT     H139143   8.015   4.409   9.515
12967WAT     H239144   7.906   4.509   9.445
12968WAT      O39145   7.511   2.285   3.302
12968WAT     H139146   7.500   2.247   3.211
12968WAT     H239147   7.502   2.384   3.299
12969WAT      O39148   4.567   6.882   0.238
12969WAT     H139149   4.593   6.838   0.324
12969WAT     H239150   4.606   6.974   0.234
12970WAT      O39151   4.785   4.498   3.302
12970WAT     H139152   4.695   4.535   3.321
12970WAT     H239153   4.817   4.532   3.213
12971WAT      O39154   7.410   9.206   6.311
12971WAT     H139155   7.325   9.245   6.347
12971WAT     H239156   7.482   9.274   6.315
12972WAT      O39157   4.554   7.094   8.734
12972WAT     H139158   4.599   7.061   8.652
12972WAT     H239159   4.468   7.044   8.747
12973WAT      O39160   3.427   0.957   1.506
12973WAT     H139161   3.432   1.055   1.526
12973WAT     H239162   3.337   0.922   1.531
12974WAT      O39163   1.007   3.415   4.727
12974WAT     H139164   0.913   3.448   4.741
12974WAT     H239165   1.071   3.487   4.752
12975WAT      O39166   6.508   7.250   2.603
12975WAT     H139167   6.468   7.245   2.511
12975WAT     H239168   6.488   7.166   2.653
12976WAT      O39169   0.913   3.424   5.046
12976WAT     H139170   0.858   3.397   4.966
12976WAT     H239171   0.873   3.506   5.088
12977WAT      O39172   8.407   4.394   5.011
12977WAT     H139173   8.318   4.431   4.984
12977WAT     H239174   8.402   4.360   5.105
12978WAT      O39175   0.344   8.258   9.331
12978WAT     H139176   0.412   8.241   9.260
12978WAT     H239177   0.371   8.338   9.385
12979WAT      O39178   5.784   7.948   7.597
12979WAT     H139179   5.713   8.000   7.549
12979WAT     H239180   5.833   7.891   7.531
12980WAT      O39181   8.252   6.370   3.710
12980WAT     H139182   8.205   6.436   3.768
12980WAT     H239183   8.188   6.336   3.641
12981WAT      O39184   6.088   5.949   5.520
12981WAT     H139185   6.161   5.947   5.588
12981WAT     H239186   6.062   6.044   5.502
12982WAT      O39187   4.082   2.523   2.985
12982WAT     H139188   4.001   2.535   3.042
12982WAT     H239189   4.147   2.463   3.031
12983WAT      O39190   4.673   2.222   6.485
12983WAT     H139191   4.697   2.287   6.556
12983WAT     H239192   4.608   2.155   6.521
12984WAT      O39193   2.111   3.509   3.102
12984WAT     H139194   2.029   3.537   3.152
12984WAT     H239195   2.186   3.494   3.166
12985WAT      O39196   2.065   8.964   5.280
12985WAT     H139197   2.164   8.963   5.294
12985WAT     H239198   2.027   9.049   5.317
12986WAT      O39199   9.715   3.665   9.470
12986WAT     H139200   9.681   3.597   9.404
12986WAT     H239201   9.669   3.652   9.558
12987WAT      O39202   8.946   5.618   6.238
12987WAT     H139203   8.915   5.573   6.155
12987WAT     H239204   8.870   5.629   6.301
12988WAT      O39205   2.548   2.171   4.428
12988WAT     H139206   2.464   2.138   4.471
12988WAT     H239207   2.619   2.102   4.437
12989WAT      O39208   5.547   8.207   7.601
12989WAT     H139209   5.546   8.137   7.673
12989WAT     H239210   5.521   8.296   7.641
12990WAT      O39211   5.559   8.462   8.539
12990WAT     H139212   5.505   8.393   8.587
12990WAT     H239213   5.517   8.552   8.550
12991WAT      O39214   3.122   7.267   3.143
12991WAT     H139215   3.026   7.294   3.138
12991WAT     H239216   3.130   7.168   3.133
12992WAT      O39217   3.295   6.859   9.163
12992WAT     H139218   3.277   6.869   9.261
12992WAT     H239219   3.387   6.892   9.143
12993WAT      O39220   2.924   1.715   5.541
12993WAT     H139221   2.961   1.660   5.465
12993WAT     H239222   2.944   1.811   5.525
12994WAT      O39223   0.519   1.467   5.637
12994WAT     H139224   0.432   1.444   5.593
12994WAT     H239225   0.515   1.560   5.673
12995WAT      O39226   2.070   2.537   2.518
12995WAT     H139227   2.158   2.494   2.501
12995WAT     H239228   2.031   2.570   2.432
12996WAT      O39229   8.760   2.458   9.344
12996WAT     H139230   8.799   2.512   9.269
12996WAT     H239231   8.719   2.375   9.306
12997WAT      O39232   3.003   9.476   2.940
12997WAT     H139233   3.065   9.551   2.963
12997WAT     H239234   2.923   9.480   3.000
12998WAT      O39235   5.686   2.380   0.639
12998WAT     H139236   5.724   2.467   0.670
12998WAT     H239237   5.609   2.397   0.577
12999WAT      O39238   8.935   8.507   8.287
12999WAT     H139239   8.975   8.446   8.219
12999WAT     H239240   8.989   8.590   8.293
13000WAT      O39241   7.614   1.247   0.157
13000WAT     H139242   7.632   1.150   0.172
13000WAT     H239243   7.661   1.277   0.073
13001WAT      O39244   6.080   2.080   0.864
13001WAT     H139245   6.053   2.125   0.950
13001WAT     H239246   6.044   2.132   0.787
13002WAT      O39247   6.818   8.525   3.179
13002WAT     H139248   6.770   8.468   3.113
13002WAT     H239249   6.852   8.468   3.255
13003WAT      O39250   5.736   3.024   1.258
13003WAT     H139251   5.670   2.985   1.322
13003WAT     H239252   5.827   2.989   1.279
13004WAT      O39253   5.300   0.696   5.015
13004WAT     H139254   5.260   0.691   4.924
13004WAT     H239255   5.321   0.604   5.047
13005WAT      O39256   9.384   4.334   8.326
13005WAT     H139257   9.484   4.332   8.331
13005WAT     H239258   9.349   4.242   8.310
13006WAT      O39259   1.903   6.499   3.998
13006WAT     H139260   1.951   6.536   3.918
13006WAT     H239261   1.816   6.460   3.970
13007WAT      O39262   2.966   8.450   5.761
13007WAT     H139263   2.926   8.524   5.815
13007WAT     H239264   3.059   8.431   5.792
13008WAT      O39265   5.934   4.796   0.589
13008WAT     H139266   5.857   4.789   0.652
13008WAT     H239267   5.936   4.889   0.551
13009WAT      O39268   4.567   6.226   2.903
13009WAT     H139269   4.490   6.253   2.845
13009WAT     H239270   4.583   6.296   2.973
13010WAT      O39271   9.233   4.860   0.470
13010WAT     H139272   9.151   4.847   0.415
13010WAT     H239273   9.273   4.771   0.492
13011WAT      O39274   6.904   2.341   7.581
13011WAT     H139275   6.900   2.440   7.565
13011WAT     H239276   6.969   2.322   7.654
13012WAT      O39277   4.211   7.537   2.221
13012WAT     H139278   4.200   7.460   2.158
13012WAT     H239279   4.232   7.620   2.169
13013WAT      O39280   1.953   2.009   0.100
13013WAT     H139281   1.864   2.054   0.092
13013WAT     H239282   1.939   1.911   0.118
13014WAT      O39283   0.477   5.983   9.116
13014WAT     H139284   0.458   6.008   9.210
13014WAT     H239285   0.571   5.950   9.108
13015WAT      O39286   2.261   8.229   6.461
13015WAT     H139287   2.168   8.198   6.442
13015WAT     H239288   2.258   8.313   6.514
13016WAT      O39289   5.830   0.227   9.454
13016WAT     H139290   5.831   0.130   9.475
13016WAT     H239291   5.772   0.243   9.374
13017WAT      O39292   3.243   8.262   5.454
13017WAT     H139293   3.178   8.330   5.419
13017WAT     H239294   3.216   8.171   5.423
13018WAT      O39295   1.539   9.768   6.130
13018WAT     H139296   1.531   9.858   6.089
13018WAT     H239297   1.585   9.775   6.218
13019WAT      O39298   7.767   4.891   2.136
13019WAT     H139299   7.695   4.959   2.122
13019WAT     H239300   7.750   4.811   2.078
13020WAT      O39301   8.832   1.390   7.768
13020WAT     H139302   8.772   1.433   7.835
13020WAT     H239303   8.928   1.403   7.796
13021WAT      O39304   4.853   6.065   4.677
13021WAT     H139305   4.908   5.985   4.655
13021WAT     H239306   4.789   6.083   4.601
13022WAT      O39307   6.498   2.843   1.779
13022WAT     H139308   6.449   2.902   1.843
13022WAT     H239309   6.434   2.785   1.730
13023WAT      O39310   9.334   3.024   4.552
13023WAT     H139311   9.301   3.118   4.566
13023WAT     H239312   9.408   3.006   4.616
13024WAT      O39313   2.931   6.632   6.285
13024WAT     H139314   3.021   6.600   6.256
13024WAT     H239315   2.875   6.652   6.205
13025WAT      O39316   8.874   8.840   4.791
13025WAT     H139317   8.923   8.764   4.746
13025WAT     H239318   8.889   8.924   4.740
13026WAT      O39319   1.265   5.518   5.266
13026WAT     H139320   1.182   5.473   5.233
13026WAT     H239321   1.340   5.502   5.203
13027WAT      O39322   1.770   8.591   9.227
13027WAT     H139323   1.718   8.622   9.306
13027WAT     H239324   1.798   8.496   9.241
13028WAT      O39325   1.322   0.314   0.559
13028WAT     H139326   1.235   0.265   0.551
13028WAT     H239327   1.374   0.277   0.637
13029WAT      O39328   0.860   4.841   2.167
13029WAT     H139329   0.912   4.805   2.090
13029WAT     H239330   0.790   4.904   2.135
13030WAT      O39331   4.022   1.326   7.092
13030WAT     H139332   4.021   1.371   7.182
13030WAT     H239333   4.050   1.231   7.104
13031WAT      O39334   1.857   1.178   5.218
13031WAT     H139335   1.896   1.088   5.240
13031WAT     H239336   1.780   1.167   5.156
13032WAT      O39337   2.854   5.833   6.324
13032WAT     H139338   2.888   5.878   6.241
13032WAT     H239339   2.921   5.765   6.354
13033WAT      O39340   7.684   8.309   8.606
13033WAT     H139341   7.675   8.393   8.551
13033WAT     H239342   7.593   8.272   8.624
13034WAT      O39343   1.135   3.922   1.306
13034WAT     H139344   1.094   4.003   1.348
13034WAT     H239345   1.110   3.919   1.209
13035WAT      O39346   2.474   4.825   1.508
13035WAT     H139347   2.401   4.765   1.539
13035WAT     H239348   2.510   4.791   1.421
13036WAT      O39349   1.955   8.956   3.982
13036WAT     H139350   2.027   8.896   4.016
13036WAT     H239351   1.877   8.901   3.951
13037WAT      O39352   1.340   2.448   9.041
13037WAT     H139353   1.396   2.392   9.102
13037WAT     H239354   1.399   2.508   8.987
13038WAT      O39355   3.392   8.272   3.398
13038WAT     H139356   3.322   8.343   3.415
13038WAT     H239357   3.476   8.297   3.446
13039WAT      O39358   6.518   2.119   0.749
13039WAT     H139359   6.599   2.158   0.792
13039WAT     H239360   6.436   2.156   0.793
13040WAT      O39361   2.632   0.222   5.538
13040WAT     H139362   2.724   0.215   5.498
13040WAT     H239363   2.621   0.152   5.608
13041WAT      O39364   8.294   2.535   2.598
13041WAT     H139365   8.311   2.625   2.558
13041WAT     H239366   8.337   2.530   2.688
13042WAT      O39367   0.043   2.755   7.739
13042WAT     H139368   0.108   2.720   7.671
13042WAT     H239369   0.090   2.771   7.825
13043WAT      O39370   0.065   8.751   9.809
13043WAT     H139371   0.009   8.824   9.848
13043WAT     H239372   0.031   8.662   9.840
13044WAT      O39373   1.072   0.669   2.934
13044WAT     H139374   1.049   0.574   2.958
13044WAT     H239375   1.167   0.673   2.902
13045WAT      O39376   2.101   9.006   5.932
13045WAT     H139377   2.046   9.074   5.883
13045WAT     H239378   2.042   8.931   5.963
13046WAT      O39379   2.537   2.399   1.001
13046WAT     H139380   2.519   2.334   0.927
13046WAT     H239381   2.572   2.485   0.962
13047WAT      O39382   6.561   2.118   9.228
13047WAT     H139383   6.488   2.179   9.198
13047WAT     H239384   6.524   2.027   9.246
13048WAT      O39385   7.168   9.379   4.392
13048WAT     H139386   7.086   9.364   4.448
13048WAT     H239387   7.139   9.398   4.298
13049WAT      O39388   3.179   6.123   4.173
13049WAT     H139389   3.090   6.080   4.186
13049WAT     H239390   3.209   6.110   4.078
13050WAT      O39391   3.792   5.724   0.253
13050WAT     H139392   3.711   5.724   0.311
13050WAT     H239393   3.848   5.644   0.274
13051WAT      O39394   2.737   5.228   0.313
13051WAT     H139395   2.646   5.241   0.352
13051WAT     H239396   2.755   5.300   0.246
13052WAT      O39397   1.021   9.565   3.279
13052WAT     H139398   1.022   9.535   3.375
13052WAT     H239399   0.962   9.505   3.226
13053WAT      O39400   0.202   0.216   0.225
13053WAT     H139401   0.160   0.197   0.137
13053WAT     H239402   0.130   0.230   0.294
13054WAT      O39403   6.813   5.020   7.869
13054WAT     H139404   6.786   5.113   7.843
13054WAT     H239405   6.765   4.954   7.811
13055WAT      O39406   3.238   1.011   3.587
13055WAT     H139407   3.251   1.083   3.518
13055WAT     H239408   3.324   0.963   3.602
13056WAT      O39409   9.473   4.338   3.430
13056WAT     H139410   9.408   4.265   3.451
13056WAT     H239411   9.432   4.400   3.363
13057WAT      O39412   1.868   9.046   6.315
13057WAT     H139413   1.934   9.117   6.338
13057WAT     H239414   1.894   8.960   6.359
13058WAT      O39415   2.940   5.449   5.712
13058WAT     H139416   3.035   5.473   5.729
13058WAT     H239417   2.881   5.523   5.742
13059WAT      O39418   0.992   1.493   1.592
13059WAT     H139419   1.021   1.458   1.503
13059WAT     H239420   1.072   1.510   1.649
13060WAT      O39421   1.365   7.333   9.662
13060WAT     H139422   1.272   7.352   9.695
13060WAT     H239423   1.364   7.330   9.562
13061WAT      O39424   6.967   3.230   9.132
13061WAT     H139425   6.917   3.293   9.190
13061WAT     H239426   6.940   3.244   9.037
13062WAT      O39427   2.962   0.858   6.396
13062WAT     H139428   3.049   0.872   6.443
13062WAT     H239429   2.954   0.923   6.321
13063WAT      O39430   5.181   3.590   9.010
13063WAT     H139431   5.128   3.544   8.938
13063WAT     H239432   5.203   3.524   9.082
13064WAT      O39433   9.489   3.897   3.158
13064WAT     H139434   9.462   3.890   3.062
13064WAT     H239435   9.442   3.827   3.212
13065WAT      O39436   3.446   2.692   3.590
13065WAT     H139437   3.366   2.717   3.535
13065WAT     H239438   3.510   2.769   3.593
13066WAT      O39439   4.144   7.219   8.950
13066WAT     H139440   4.126   7.122   8.938
13066WAT     H239441   4.213   7.232   9.022
13067WAT      O39442   7.655   1.827   7.988
13067WAT     H139443   7.702   1.911   8.015
13067WAT     H239444   7.572   1.816   8.044
13068WAT      O39445   8.721   5.931   1.353
13068WAT     H139446   8.770   5.970   1.431
13068WAT     H239447   8.626   5.963   1.355
13069WAT      O39448   0.339   9.278   7.372
13069WAT     H139449   0.334   9.189   7.417
13069WAT     H239450   0.359   9.348   7.440
13070WAT      O39451   1.367   3.464   2.342
13070WAT     H139452   1.349   3.533   2.412
13070WAT     H239453   1.440   3.403   2.374
13071WAT      O39454   1.891   8.569   2.659
13071WAT     H139455   1.894   8.484   2.712
13071WAT     H239456   1.799   8.582   2.623
13072WAT      O39457   7.735   2.401   3.008
13072WAT     H139458   7.729   2.318   2.953
13072WAT     H239459   7.667   2.467   2.977
13073WAT      O39460   4.282   0.437   3.073
13073WAT     H139461   4.225   0.519   3.064
13073WAT     H239462   4.234   0.359   3.035
13074WAT      O39463   1.077   8.475   7.576
13074WAT     H139464   1.069   8.385   7.532
13074WAT     H239465   0.991   8.525   7.564
13075WAT      O39466   7.780   1.727   3.319
13075WAT     H139467   7.824   1.753   3.405
13075WAT     H239468   7.683   1.750   3.323
13076WAT      O39469   1.624   8.221   8.901
13076WAT     H139470   1.701   8.242   8.841
13076WAT     H239471   1.579   8.138   8.869
13077WAT      O39472   1.540   4.620   1.284
13077WAT     H139473   1.561   4.523   1.293
13077WAT     H239474   1.532   4.643   1.187
13078WAT      O39475   9.375   7.970   1.031
13078WAT     H139476   9.341   8.063   1.043
13078WAT     H239477   9.407   7.959   0.937
13079WAT      O39478   0.782   8.392   4.113
13079WAT     H139479   0.715   8.399   4.040
13079WAT     H239480   0.870   8.364   4.074
13080WAT      O39481   3.213   6.478   0.047
13080WAT     H139482   3.256   6.469   0.137
13080WAT     H239483   3.242   6.565   0.006
13081WAT      O39484   2.660   0.642   9.398
13081WAT     H139485   2.700   0.731   9.417
13081WAT     H239486   2.561   0.647   9.408
13082WAT      O39487   3.409   6.374   1.782
13082WAT     H139488   3.392   6.303   1.715
13082WAT     H239489   3.465   6.446   1.741
13083WAT      O39490   2.974   4.807   6.249
13083WAT     H139491   2.877   4.784   6.244
13083WAT     H239492   2.997   4.836   6.342
13084WAT      O39493   6.998   1.588   7.981
13084WAT     H139494   6.950   1.594   8.069
13084WAT     H239495   6.933   1.607   7.907
13085WAT      O39496   3.173   7.370   0.655
13085WAT     H139497   3.246   7.337   0.594
13085WAT     H239498   3.200   7.355   0.750
13086WAT      O39499   5.081   9.701   5.957
13086WAT     H139500   5.111   9.796   5.947
13086WAT     H239501   5.091   9.654   5.868
13087WAT      O39502   8.351   4.278   6.598
13087WAT     H139503   8.390   4.313   6.683
13087WAT     H239504   8.251   4.287   6.602
13088WAT      O39505   2.289   3.537   1.152
13088WAT     H139506   2.323   3.499   1.066
13088WAT     H239507   2.242   3.623   1.134
13089WAT      O39508   1.566   5.605   5.986
13089WAT     H139509   1.635   5.545   5.947
13089WAT     H239510   1.477   5.560   5.983
13090WAT      O39511   2.607   0.710   1.117
13090WAT     H139512   2.519   0.694   1.162
13090WAT     H239513   2.681   0.698   1.183
13091WAT      O39514   5.163   4.907   9.869
13091WAT     H139515   5.245   4.953   9.836
13091WAT     H239516   5.166   4.810   9.844
13092WAT      O39517   1.263   3.336   1.625
13092WAT     H139518   1.272   3.423   1.576
13092WAT     H239519   1.291   3.349   1.720
13093WAT      O39520   3.177   2.549   6.256
13093WAT     H139521   3.226   2.601   6.185
13093WAT     H239522   3.190   2.451   6.240
13094WAT      O39523   7.573   6.623   4.259
13094WAT     H139524   7.477   6.617   4.285
13094WAT     H239525   7.581   6.671   4.171
13095WAT      O39526   2.891   9.453   2.323
13095WAT     H139527   2.794   9.479   2.323
13095WAT     H239528   2.947   9.536   2.327
13096WAT      O39529   6.184   1.590   6.814
13096WAT     H139530   6.126   1.626   6.741
13096WAT     H239531   6.206   1.494   6.795
13097WAT      O39532   9.763   8.682   0.286
13097WAT     H139533   9.694   8.611   0.304
13097WAT     H239534   9.839   8.671   0.350
13098WAT      O39535   4.674   2.673   6.823
13098WAT     H139536   4.680   2.708   6.730
13098WAT     H239537   4.641   2.746   6.884
13099WAT      O39538   8.712   4.358   8.525
13099WAT     H139539   8.649   4.431   8.498
13099WAT     H239540   8.723   4.358   8.624
13100WAT      O39541   4.499   0.697   1.034
13100WAT     H139542   4.548   0.651   1.108
13100WAT     H239543   4.549   0.780   1.007
13101WAT      O39544   7.987   1.011   2.968
13101WAT     H139545   7.971   1.007   3.067
13101WAT     H239546   7.936   1.088   2.930
13102WAT      O39547   3.728   9.413   9.207
13102WAT     H139548   3.693   9.418   9.113
13102WAT     H239549   3.785   9.332   9.217
13103WAT      O39550   6.033   2.200   3.502
13103WAT     H139551   6.116   2.153   3.533
13103WAT     H239552   5.966   2.132   3.471
13104WAT      O39553   7.988   6.943   0.422
13104WAT     H139554   8.071   6.930   0.368
13104WAT     H239555   7.929   6.863   0.412
13105WAT      O39556   4.247   3.789   7.834
13105WAT     H139557   4.262   3.803   7.736
13105WAT     H239558   4.164   3.735   7.847
13106WAT      O39559   3.791   7.325   0.986
13106WAT     H139560   3.878   7.349   0.941
13106WAT     H239561   3.776   7.226   0.978
13107WAT      O39562   4.680   6.985   7.098
13107WAT     H139563   4.584   6.964   7.079
13107WAT     H239564   4.694   6.986   7.197
13108WAT      O39565   3.809   5.168   1.302
13108WAT     H139566   3.846   5.076   1.299
13108WAT     H239567   3.815   5.210   1.212
13109WAT      O39568   3.326   7.711   7.736
13109WAT     H139569   3.362   7.624   7.771
13109WAT     H239570   3.234   7.725   7.770
13110WAT      O39571   8.571   1.347   3.200
13110WAT     H139572   8.609   1.275   3.258
13110WAT     H239573   8.607   1.338   3.107
13111WAT      O39574   8.961   6.050   3.343
13111WAT     H139575   8.918   6.036   3.254
13111WAT     H239576   8.894   6.089   3.406
13112WAT      O39577   2.391   2.343   5.902
13112WAT     H139578   2.328   2.336   5.980
13112WAT     H239579   2.479   2.380   5.934
13113WAT      O39580   6.363   1.389   6.458
13113WAT     H139581   6.426   1.329   6.408
13113WAT     H239582   6.412   1.471   6.488
13114WAT      O39583   4.925   6.535   5.870
13114WAT     H139584   4.899   6.480   5.790
13114WAT     H239585   4.873   6.503   5.950
13115WAT      O39586   9.506   0.384   6.978
13115WAT     H139587   9.438   0.330   6.929
13115WAT     H239588   9.537   0.334   7.059
13116WAT      O39589   2.204   5.383   4.225
13116WAT     H139590   2.172   5.478   4.235
13116WAT     H239591   2.126   5.321   4.229
13117WAT      O39592   4.702   4.192   5.328
13117WAT     H139593   4.649   4.262   5.377
13117WAT     H239594   4.794   4.186   5.367
13118WAT      O39595   1.720   8.474   3.866
13118WAT     H139596   1.691   8.423   3.785
13118WAT     H239597   1.696   8.423   3.948
13119WAT      O39598   1.710   0.357   2.850
13119WAT     H139599   1.792   0.394   2.805
13119WAT     H239600   1.647   0.431   2.870
13120WAT      O39601   8.349   2.714   8.496
13120WAT     H139602   8.392   2.741   8.582
13120WAT     H239603   8.283   2.784   8.469
13121WAT      O39604   0.579   7.403   6.529
13121WAT     H139605   0.557   7.476   6.594
13121WAT     H239606   0.657   7.431   6.473
13122WAT      O39607   5.591   9.189   8.646
13122WAT     H139608   5.516   9.233   8.696
13122WAT     H239609   5.657   9.259   8.618
13123WAT      O39610   8.012   3.597   3.324
13123WAT     H139611   8.098   3.634   3.289
13123WAT     H239612   7.959   3.561   3.247
13124WAT      O39613   2.042   5.444   3.825
13124WAT     H139614   2.063   5.539   3.801
13124WAT     H239615   2.106   5.383   3.778
13125WAT      O39616   3.403   3.567   4.194
13125WAT     H139617   3.356   3.612   4.270
13125WAT     H239618   3.496   3.604   4.185
13126WAT      O39619   5.069   2.994   6.980
13126WAT     H139620   5.060   3.089   6.949
13126WAT     H239621   5.026   2.984   7.070
13127WAT      O39622   4.318   7.405   0.285
13127WAT     H139623   4.291   7.463   0.361
13127WAT     H239624   4.414   7.420   0.263
13128WAT      O39625   7.041   1.522   4.761
13128WAT     H139626   7.068   1.526   4.857
13128WAT     H239627   7.106   1.574   4.706
13129WAT      O39628   8.136   1.663   0.752
13129WAT     H139629   8.158   1.577   0.705
13129WAT     H239630   8.212   1.727   0.740
13130WAT      O39631   5.249   6.226   7.237
13130WAT     H139632   5.154   6.216   7.266
13130WAT     H239633   5.296   6.288   7.300
13131WAT      O39634   2.171   1.878   9.274
13131WAT     H139635   2.112   1.867   9.194
13131WAT     H239636   2.164   1.796   9.331
13132WAT      O39637   8.400   7.577   1.520
13132WAT     H139638   8.399   7.494   1.464
13132WAT     H239639   8.457   7.561   1.601
13133WAT      O39640   3.332   3.370   0.050
13133WAT     H139641   3.285   3.315   0.119
13133WAT     H239642   3.273   3.444   0.020
13134WAT      O39643   2.841   8.486   4.247
13134WAT     H139644   2.819   8.453   4.155
13134WAT     H239645   2.890   8.414   4.297
13135WAT      O39646   0.666   5.983   9.733
13135WAT     H139647   0.690   6.048   9.660
13135WAT     H239648   0.619   6.032   9.806
13136WAT      O39649   2.444   7.218   3.199
13136WAT     H139650   2.349   7.205   3.171
13136WAT     H239651   2.461   7.168   3.284
13137WAT      O39652   6.004   3.591   4.723
13137WAT     H139653   6.022   3.498   4.693
13137WAT     H239654   5.998   3.594   4.823
13138WAT      O39655   4.163   8.848   2.058
13138WAT     H139656   4.121   8.848   1.967
13138WAT     H239657   4.159   8.940   2.097
13139WAT      O39658   4.489   8.410   0.310
13139WAT     H139659   4.478   8.311   0.315
13139WAT     H239660   4.553   8.440   0.381
13140WAT      O39661   1.566   8.234   3.331
13140WAT     H139662   1.532   8.185   3.411
13140WAT     H239663   1.545   8.181   3.248
13141WAT      O39664   6.150   0.497   0.250
13141WAT     H139665   6.114   0.530   0.338
13141WAT     H239666   6.144   0.569   0.182
13142WAT      O39667   7.678   2.457   9.450
13142WAT     H139668   7.669   2.415   9.540
13142WAT     H239669   7.628   2.543   9.448
13143WAT      O39670   9.521   1.202   0.534
13143WAT     H139671   9.463   1.131   0.574
13143WAT     H239672   9.481   1.234   0.448
13144WAT      O39673   2.375   1.620   3.596
13144WAT     H139674   2.461   1.570   3.589
13144WAT     H239675   2.304   1.559   3.632
13145WAT      O39676   4.531   2.937   8.887
13145WAT     H139677   4.607   3.003   8.891
13145WAT     H239678   4.456   2.977   8.834
13146WAT      O39679   2.227   5.954   1.809
13146WAT     H139680   2.286   5.890   1.759
13146WAT     H239681   2.273   5.982   1.894
13147WAT      O39682   8.231   1.459   2.495
13147WAT     H139683   8.160   1.415   2.440
13147WAT     H239684   8.199   1.548   2.527
13148WAT      O39685   9.304   8.829   7.287
13148WAT     H139686   9.365   8.761   7.245
13148WAT     H239687   9.256   8.880   7.215
13149WAT      O39688   5.985   0.456   2.403
13149WAT     H139689   6.083   0.467   2.422
13149WAT     H239690   5.952   0.373   2.447
13150WAT      O39691   0.086   1.248   0.918
13150WAT     H139692   0.030   1.235   1.000
13150WAT     H239693   0.127   1.161   0.891
13151WAT      O39694   9.816   7.394   7.965
13151WAT     H139695   9.860   7.307   7.987
13151WAT     H239696   9.825   7.412   7.867
13152WAT      O39697   6.112   4.201   4.750
13152WAT     H139698   6.204   4.239   4.751
13152WAT     H239699   6.110   4.115   4.802
13153WAT      O39700   0.817   4.597   5.597
13153WAT     H139701   0.772   4.637   5.677
13153WAT     H239702   0.893   4.539   5.626
13154WAT      O39703   9.189   0.790   8.086
13154WAT     H139704   9.281   0.825   8.104
13154WAT     H239705   9.156   0.827   7.999
13155WAT      O39706   5.372   4.199   7.728
13155WAT     H139707   5.424   4.121   7.763
13155WAT     H239708   5.414   4.232   7.643
13156WAT      O39709   3.970   5.093   8.076
13156WAT     H139710   4.027   5.061   8.001
13156WAT     H239711   4.018   5.167   8.124
13157WAT      O39712   6.560   9.012   8.813
13157WAT     H139713   6.505   9.086   8.851
13157WAT     H239714   6.654   9.021   8.843
13158WAT      O39715   9.579   6.822   0.174
13158WAT     H139716   9.587   6.914   0.137
13158WAT     H239717   9.505   6.773   0.128
13159WAT      O39718   7.065   0.080   5.573
13159WAT     H139719   7.016   0.028   5.503
13159WAT     H239720   7.163   0.068   5.561
13160WAT      O39721   3.987   5.591   0.944
13160WAT     H139722   3.984   5.690   0.935
13160WAT     H239723   3.947   5.564   1.032
13161WAT      O39724   9.625   6.701   1.610
13161WAT     H139725   9.642   6.670   1.516
13161WAT     H239726   9.563   6.779   1.608
13162WAT      O39727   6.471   9.654   4.427
13162WAT     H139728   6.422   9.583   4.377
13162WAT     H239729   6.406   9.719   4.466
13163WAT      O39730   2.258   1.580   4.129
13163WAT     H139731   2.189   1.520   4.169
13163WAT     H239732   2.346   1.532   4.126
13164WAT      O39733   5.639   1.084   3.624
13164WAT     H139734   5.626   0.986   3.635
13164WAT     H239735   5.729   1.110   3.659
13165WAT      O39736   1.736   7.544   0.364
13165WAT     H139737   1.808   7.477   0.382
13165WAT     H239738   1.648   7.507   0.394
13166WAT      O39739   5.326   7.619   7.997
13166WAT     H139740   5.424   7.603   7.983
13166WAT     H239741   5.274   7.542   7.959
13167WAT      O39742   6.679   1.108   7.515
13167WAT     H139743   6.662   1.169   7.438
13167WAT     H239744   6.736   1.032   7.486
13168WAT      O39745   3.692   2.494   5.814
13168WAT     H139746   3.695   2.585   5.855
13168WAT     H239747   3.656   2.501   5.721
13169WAT      O39748   7.543   5.687   8.636
13169WAT     H139749   7.517   5.782   8.649
13169WAT     H239750   7.608   5.680   8.560
13170WAT      O39751   2.871   6.018   8.679
13170WAT     H139752   2.779   6.011   8.641
13170WAT     H239753   2.902   5.927   8.706
13171WAT      O39754   8.534   7.275   8.291
13171WAT     H139755   8.439   7.278   8.322
13171WAT     H239756   8.593   7.247   8.367
13172WAT      O39757   8.886   3.164   4.571
13172WAT     H139758   8.935   3.237   4.523
13172WAT     H239759   8.822   3.204   4.637
13173WAT      O39760   5.787   4.816   1.195
13173WAT     H139761   5.851   4.777   1.129
13173WAT     H239762   5.763   4.748   1.263
13174WAT      O39763   3.206   9.779   8.989
13174WAT     H139764   3.242   9.844   8.923
13174WAT     H239765   3.175   9.828   9.071
13175WAT      O39766   1.500   4.764   7.110
13175WAT     H139767   1.414   4.728   7.073
13175WAT     H239768   1.534   4.836   7.050
13176WAT      O39769   3.352   4.693   5.184
13176WAT     H139770   3.452   4.687   5.181
13176WAT     H239771   3.316   4.693   5.091
13177WAT      O39772   2.321   8.589   8.958
13177WAT     H139773   2.278   8.570   9.047
13177WAT     H239774   2.266   8.657   8.909
13178WAT      O39775   8.440   7.895   4.512
13178WAT     H139776   8.385   7.938   4.583
13178WAT     H239777   8.459   7.800   4.538
13179WAT      O39778   5.748   3.035   5.398
13179WAT     H139779   5.670   3.096   5.386
13179WAT     H239780   5.753   3.005   5.493
13180WAT      O39781   0.128   9.576   6.500
13180WAT     H139782   0.082   9.489   6.490
13180WAT     H239783   0.172   9.580   6.590
13181WAT      O39784   7.543   0.625   1.754
13181WAT     H139785   7.602   0.668   1.822
13181WAT     H239786   7.542   0.681   1.671
13182WAT      O39787   2.567   9.376   0.220
13182WAT     H139788   2.546   9.472   0.202
13182WAT     H239789   2.495   9.337   0.277
13183WAT      O39790   4.422   2.550   6.499
13183WAT     H139791   4.328   2.568   6.527
13183WAT     H239792   4.460   2.476   6.554
13184WAT      O39793   5.044   1.624   6.239
13184WAT     H139794   5.030   1.589   6.146
13184WAT     H239795   5.082   1.716   6.234
13185WAT      O39796   7.434   4.942   4.281
13185WAT     H139797   7.500   5.015   4.301
13185WAT     H239798   7.374   4.929   4.359
13186WAT      O39799   0.420   2.391   2.021
13186WAT     H139800   0.384   2.341   2.099
13186WAT     H239801   0.467   2.473   2.052
13187WAT      O39802   0.609   7.804   6.598
13187WAT     H139803   0.614   7.796   6.499
13187WAT     H239804   0.609   7.901   6.624
13188WAT      O39805   8.475   0.018   3.554
13188WAT     H139806   8.525   0.087   3.501
13188WAT     H239807   8.471  -0.068   3.502
13189WAT      O39808   0.101   2.154   7.325
13189WAT     H139809   0.049   2.236   7.349
13189WAT     H239810   0.197   2.167   7.352
13190WAT      O39811   8.056   5.576   3.831
13190WAT     H139812   8.040   5.569   3.929
13190WAT     H239813   8.131   5.516   3.805
13191WAT      O39814   0.604   4.788   0.662
13191WAT     H139815   0.613   4.882   0.693
13191WAT     H239816   0.693   4.743   0.662
13192WAT      O39817   2.077   0.926   8.531
13192WAT     H139818   2.034   0.967   8.451
13192WAT     H239819   2.122   0.841   8.505
13193WAT      O39820   0.029   6.087   9.683
13193WAT     H139821   0.020   6.184   9.657
13193WAT     H239822  -0.007   6.030   9.609
13194WAT      O39823   5.548   6.024   0.668
13194WAT     H139824   5.589   5.940   0.632
13194WAT     H239825   5.501   6.004   0.753
13195WAT      O39826   7.925   4.927   7.435
13195WAT     H139827   7.969   5.007   7.394
13195WAT     H239828   7.973   4.901   7.519
13196WAT      O39829   1.402   8.951   5.997
13196WAT     H139830   1.500   8.970   5.994
13196WAT     H239831   1.371   8.950   6.093
13197WAT      O39832   8.964   1.735   0.403
13197WAT     H139833   9.002   1.824   0.429
13197WAT     H239834   8.894   1.748   0.333
13198WAT      O39835   7.879   0.026   2.860
13198WAT     H139836   7.851   0.117   2.830
13198WAT     H239837   7.882  -0.035   2.780
13199WAT      O39838   3.287   0.039   8.576
13199WAT     H139839   3.217  -0.016   8.531
13199WAT     H239840   3.374  -0.011   8.576
13200WAT      O39841   2.964   0.129   3.946
13200WAT     H139842   3.043   0.180   3.910
13200WAT     H239843   2.986   0.095   4.037
13201WAT      O39844   9.533   8.849   8.059
13201WAT     H139845   9.508   8.904   8.139
13201WAT     H239846   9.617   8.887   8.018
13202WAT      O39847   9.383   6.683   0.040
13202WAT     H139848   9.296   6.674  -0.008
13202WAT     H239849   9.428   6.593   0.043
13203WAT      O39850   7.295   4.868   1.960
13203WAT     H139851   7.243   4.926   1.898
13203WAT     H239852   7.362   4.814   1.908
13204WAT      O39853   7.823   8.628   1.894
13204WAT     H139854   7.859   8.693   1.826
13204WAT     H239855   7.810   8.676   1.981
13205WAT      O39856   0.092   3.207   7.551
13205WAT     H139857   0.025   3.132   7.558
13205WAT     H239858   0.182   3.173   7.578
13206WAT      O39859   4.424   2.954   5.159
13206WAT     H139860   4.406   3.004   5.074
13206WAT     H239861   4.419   3.017   5.237
13207WAT      O39862   4.783   1.664   9.896
13207WAT     H139863   4.877   1.697   9.900
13207WAT     H239864   4.778   1.585   9.836
13208WAT      O39865   0.424   4.970   3.180
13208WAT     H139866   0.372   4.913   3.116
13208WAT     H239867   0.512   4.927   3.199
13209WAT      O39868   2.882   2.883   9.164
13209WAT     H139869   2.939   2.807   9.132
13209WAT     H239870   2.795   2.848   9.198
13210WAT      O39871   8.364   2.473   2.006
13210WAT     H139872   8.425   2.393   2.004
13210WAT     H239873   8.418   2.556   1.992
13211WAT      O39874   2.719   3.773   0.168
13211WAT     H139875   2.645   3.746   0.106
13211WAT     H239876   2.786   3.827   0.117
13212WAT      O39877   6.872   2.021   5.344
13212WAT     H139878   6.785   2.014   5.392
13212WAT     H239879   6.930   1.944   5.370
13213WAT      O39880   0.262   1.061   0.443
13213WAT     H139881   0.358   1.032   0.441
13213WAT     H239882   0.256   1.158   0.419
13214WAT      O39883   6.576   6.448   5.103
13214WAT     H139884   6.509   6.522   5.107
13214WAT     H239885   6.572   6.395   5.188
13215WAT      O39886   0.021   4.000   4.781
13215WAT     H139887   0.017   4.046   4.692
13215WAT     H239888   0.087   4.046   4.840
13216WAT      O39889   1.511   6.120   7.272
13216WAT     H139890   1.542   6.157   7.360
13216WAT     H239891   1.527   6.187   7.200
13217WAT      O39892   5.596   0.307   8.234
13217WAT     H139893   5.648   0.279   8.153
13217WAT     H239894   5.533   0.234   8.260
13218WAT      O39895   4.273   6.814   1.291
13218WAT     H139896   4.312   6.900   1.257
13218WAT     H239897   4.338   6.739   1.275
13219WAT      O39898   5.133   1.249   2.285
13219WAT     H139899   5.046   1.249   2.335
13219WAT     H239900   5.170   1.157   2.282
13220WAT      O39901   3.972   4.499   2.226
13220WAT     H139902   4.006   4.450   2.306
13220WAT     H239903   4.041   4.495   2.153
13221WAT      O39904   7.090   3.016   4.145
13221WAT     H139905   7.067   3.047   4.053
13221WAT     H239906   7.182   2.976   4.145
13222WAT      O39907   8.798   5.624   9.629
13222WAT     H139908   8.808   5.537   9.581
13222WAT     H239909   8.795   5.607   9.728
13223WAT      O39910   7.966   6.886   7.357
13223WAT     H139911   8.022   6.812   7.319
13223WAT     H239912   7.971   6.884   7.456
13224WAT      O39913   9.140   0.785   6.271
13224WAT     H139914   9.061   0.793   6.211
13224WAT     H239915   9.224   0.784   6.216
13225WAT      O39916   3.651   4.179   2.433
13225WAT     H139917   3.552   4.177   2.447
13225WAT     H239918   3.680   4.273   2.414
13226WAT      O39919   5.540   5.387   7.757
13226WAT     H139920   5.574   5.317   7.820
13226WAT     H239921   5.468   5.349   7.700
13227WAT      O39922   3.207   6.043   7.473
13227WAT     H139923   3.148   6.001   7.403
13227WAT     H239924   3.209   5.985   7.554
13228WAT      O39925   6.893   8.757   1.586
13228WAT     H139926   6.978   8.788   1.627
13228WAT     H239927   6.830   8.726   1.658
13229WAT      O39928   8.092   6.487   3.118
13229WAT     H139929   8.118   6.553   3.047
13229WAT     H239930   8.084   6.534   3.206
13230WAT      O39931   3.666   6.559   5.172
13230WAT     H139932   3.575   6.592   5.151
13230WAT     H239933   3.661   6.487   5.241
13231WAT      O39934   8.179   7.016   8.617
13231WAT     H139935   8.135   7.081   8.555
13231WAT     H239936   8.130   7.014   8.703
13232WAT      O39937   5.860   9.583   9.477
13232WAT     H139938   5.863   9.493   9.521
13232WAT     H239939   5.866   9.572   9.378
13233WAT      O39940   0.227   8.770   3.105
13233WAT     H139941   0.158   8.838   3.077
13233WAT     H239942   0.281   8.742   3.026
13234WAT      O39943   3.583   2.730   7.428
13234WAT     H139944   3.544   2.818   7.454
13234WAT     H239945   3.525   2.656   7.461
13235WAT      O39946   3.606   7.399   7.019
13235WAT     H139947   3.586   7.457   7.098
13235WAT     H239948   3.670   7.446   6.959
13236WAT      O39949   9.368   8.650   6.581
13236WAT     H139950   9.381   8.621   6.485
13236WAT     H239951   9.384   8.748   6.589
13237WAT      O39952   4.379   3.935   8.932
13237WAT     H139953   4.320   4.013   8.910
13237WAT     H239954   4.333   3.850   8.908
13238WAT      O39955   0.530   0.355   6.617
13238WAT     H139956   0.545   0.268   6.570
13238WAT     H239957   0.490   0.421   6.554
13239WAT      O39958   2.706   7.893   6.068
13239WAT     H139959   2.628   7.928   6.017
13239WAT     H239960   2.674   7.844   6.149
13240WAT      O39961   9.879   1.412   0.243
13240WAT     H139962   9.964   1.400   0.192
13240WAT     H239963   9.835   1.323   0.258
13241WAT      O39964   6.176   6.957   5.621
13241WAT     H139965   6.190   7.054   5.606
13241WAT     H239966   6.261   6.907   5.602
13242WAT      O39967   0.365   3.721   9.642
13242WAT     H139968   0.353   3.802   9.585
13242WAT     H239969   0.387   3.749   9.736
13243WAT      O39970   1.660   4.458   1.008
13243WAT     H139971   1.609   4.432   0.926
13243WAT     H239972   1.644   4.391   1.080
13244WAT      O39973   4.768   9.091   4.967
13244WAT     H139974   4.674   9.125   4.958
13244WAT     H239975   4.811   9.135   5.046
13245WAT      O39976   9.560   4.809   1.545
13245WAT     H139977   9.503   4.890   1.531
13245WAT     H239978   9.656   4.833   1.534
13246WAT      O39979   9.593   3.070   2.288
13246WAT     H139980   9.520   3.001   2.287
13246WAT     H239981   9.559   3.153   2.331
13247WAT      O39982   3.779   1.588   7.063
13247WAT     H139983   3.721   1.514   7.029
13247WAT     H239984   3.731   1.675   7.056
13248WAT      O39985   8.531   7.491   5.262
13248WAT     H139986   8.578   7.568   5.305
13248WAT     H239987   8.593   7.412   5.259
13249WAT      O39988   5.601   1.000   9.195
13249WAT     H139989   5.606   0.967   9.101
13249WAT     H239990   5.673   0.956   9.249
13250WAT      O39991   6.899   2.951   3.708
13250WAT     H139992   6.901   2.927   3.611
13250WAT     H239993   6.944   2.880   3.761
13251WAT      O39994   1.418   7.547   8.859
13251WAT     H139995   1.335   7.501   8.830
13251WAT     H239996   1.475   7.567   8.779
13252WAT      O39997   7.031   6.645   3.477
13252WAT     H139998   7.126   6.640   3.448
13252WAT     H239999   6.989   6.555   3.472
13253WAT      O40000   5.463   9.056   7.007
13253WAT     H140001   5.405   9.047   7.089
13253WAT     H240002   5.452   9.147   6.969
13254WAT      O40003   3.955   5.020   1.601
13254WAT     H140004   3.981   5.010   1.697
13254WAT     H240005   4.019   4.967   1.544
13255WAT      O40006   7.784   8.438   7.204
13255WAT     H140007   7.806   8.435   7.107
13255WAT     H240008   7.685   8.451   7.215
13256WAT      O40009   6.086   9.704   0.393
13256WAT     H140010   6.074   9.608   0.367
13256WAT     H240011   6.083   9.762   0.312
13257WAT      O40012   2.214   5.841   8.373
13257WAT     H140013   2.272   5.789   8.310
13257WAT     H240014   2.211   5.937   8.345
13258WAT      O40015   9.191   7.380   1.650
13258WAT     H140016   9.191   7.292   1.696
13258WAT     H240017   9.272   7.388   1.593
13259WAT      O40018   4.178   6.975   7.516
13259WAT     H140019   4.249   7.038   7.548
13259WAT     H240020   4.220   6.891   7.484
13260WAT      O40021   3.765   6.870   4.175
13260WAT     H140022   3.725   6.806   4.109
13260WAT     H240023   3.788   6.821   4.259
13261WAT      O40024   4.003   2.507   2.603
13261WAT     H140025   4.066   2.471   2.671
13261WAT     H240026   3.909   2.501   2.637
13262WAT      O40027   1.983   7.427   7.810
13262WAT     H140028   1.952   7.498   7.873
13262WAT     H240029   1.924   7.346   7.820
13263WAT      O40030   8.724   3.183   9.498
13263WAT     H140031   8.823   3.192   9.498
13263WAT     H240032   8.684   3.259   9.446
13264WAT      O40033   4.548   6.640   7.246
13264WAT     H140034   4.491   6.630   7.164
13264WAT     H240035   4.617   6.711   7.230
13265WAT      O40036   4.621   1.798   7.190
13265WAT     H140037   4.565   1.854   7.252
13265WAT     H240038   4.622   1.704   7.223
13266WAT      O40039   8.388   8.320   3.681
13266WAT     H140040   8.453   8.290   3.611
13266WAT     H240041   8.300   8.343   3.637
13267WAT      O40042   1.263   4.223   0.242
13267WAT     H140043   1.292   4.134   0.275
13267WAT     H240044   1.178   4.214   0.191
13268WAT      O40045   3.331   7.034   5.713
13268WAT     H140046   3.366   7.021   5.806
13268WAT     H240047   3.243   7.081   5.717
13269WAT      O40048   5.078   3.078   6.473
13269WAT     H140049   5.057   2.995   6.422
13269WAT     H240050   5.167   3.113   6.444
13270WAT      O40051   1.437   6.502   2.285
13270WAT     H140052   1.531   6.482   2.314
13270WAT     H240053   1.408   6.589   2.324
13271WAT      O40054   5.762   8.684   9.675
13271WAT     H140055   5.815   8.690   9.590
13271WAT     H240056   5.720   8.594   9.682
13272WAT      O40057   6.490   1.892   1.926
13272WAT     H140058   6.539   1.852   2.003
13272WAT     H240059   6.391   1.889   1.943
13273WAT      O40060   9.391   7.633   4.442
13273WAT     H140061   9.293   7.640   4.463
13273WAT     H240062   9.403   7.611   4.346
13274WAT      O40063   5.066   9.206   5.511
13274WAT     H140064   5.035   9.286   5.461
13274WAT     H240065   5.018   9.124   5.478
13275WAT      O40066   2.054   2.869   6.757
13275WAT     H140067   2.005   2.902   6.677
13275WAT     H240068   2.077   2.946   6.816
13276WAT      O40069   6.075   2.673   8.260
13276WAT     H140070   6.089   2.584   8.216
13276WAT     H240071   5.993   2.716   8.222
13277WAT      O40072   2.704   4.812   9.184
13277WAT     H140073   2.678   4.891   9.128
13277WAT     H240074   2.720   4.733   9.124
13278WAT      O40075   3.657   5.423   4.282
13278WAT     H140076   3.620   5.504   4.237
13278WAT     H240077   3.587   5.382   4.340
13279WAT      O40078   4.330   0.549   7.651
13279WAT     H140079   4.248   0.565   7.706
13279WAT     H240080   4.306   0.553   7.554
13280WAT      O40081   8.321   0.760   4.782
13280WAT     H140082   8.279   0.707   4.709
13280WAT     H240083   8.333   0.854   4.753
13281WAT      O40084   6.191   2.809   3.569
13281WAT     H140085   6.156   2.828   3.478
13281WAT     H240086   6.291   2.803   3.566
13282WAT      O40087   4.611   8.149   2.309
13282WAT     H140088   4.548   8.220   2.277
13282WAT     H240089   4.634   8.166   2.405
13283WAT      O40090   3.807   3.839   3.688
13283WAT     H140091   3.811   3.850   3.589
13283WAT     H240092   3.822   3.743   3.712
13284WAT      O40093   0.811   9.162   7.435
13284WAT     H140094   0.754   9.218   7.496
13284WAT     H240095   0.820   9.070   7.474
13285WAT      O40096   5.285   5.603   7.414
13285WAT     H140097   5.260   5.681   7.357
13285WAT     H240098   5.379   5.612   7.445
13286WAT      O40099   6.575   1.277   4.729
13286WAT     H140100   6.626   1.234   4.655
13286WAT     H240101   6.619   1.363   4.754
13287WAT      O40102   0.926   4.006   7.101
13287WAT     H140103   0.848   3.995   7.040
13287WAT     H240104   1.002   3.951   7.067
13288WAT      O40105   2.053   3.812   1.167
13288WAT     H140106   2.103   3.758   1.100
13288WAT     H240107   2.104   3.895   1.188
13289WAT      O40108   7.847   2.077   3.621
13289WAT     H140109   7.795   2.028   3.691
13289WAT     H240110   7.789   2.092   3.541
13290WAT      O40111   7.115   1.284   1.977
13290WAT     H140112   7.162   1.260   2.062
13290WAT     H240113   7.181   1.318   1.910
13291WAT      O40114   3.841   9.676   3.622
13291WAT     H140115   3.795   9.675   3.534
13291WAT     H240116   3.824   9.764   3.668
13292WAT      O40117   8.435   9.747   3.808
13292WAT     H140118   8.435   9.789   3.718
13292WAT     H240119   8.415   9.816   3.877
13293WAT      O40120   1.513   6.108   8.921
13293WAT     H140121   1.526   6.036   8.990
13293WAT     H240122   1.586   6.175   8.929
13294WAT      O40123   6.629   5.888   7.908
13294WAT     H140124   6.532   5.865   7.907
13294WAT     H240125   6.644   5.972   7.960
13295WAT      O40126   3.875   0.476   8.257
13295WAT     H140127   3.833   0.562   8.226
13295WAT     H240128   3.947   0.496   8.323
13296WAT      O40129   8.171   3.891   9.305
13296WAT     H140130   8.238   3.877   9.378
13296WAT     H240131   8.191   3.828   9.229
13297WAT      O40132   3.033   3.231   1.351
13297WAT     H140133   3.007   3.152   1.295
13297WAT     H240134   3.120   3.213   1.396
13298WAT      O40135   9.715   2.530   9.128
13298WAT     H140136   9.674   2.527   9.037
13298WAT     H240137   9.760   2.619   9.142
13299WAT      O40138   3.773   6.751   2.295
13299WAT     H140139   3.766   6.833   2.240
13299WAT     H240140   3.772   6.776   2.392
13300WAT      O40141   6.178   0.063   7.482
13300WAT     H140142   6.161   0.011   7.398
13300WAT     H240143   6.198  -0.001   7.557
13301WAT      O40144   9.256   0.210   3.346
13301WAT     H140145   9.207   0.123   3.339
13301WAT     H240146   9.350   0.192   3.376
13302WAT      O40147   1.518   6.794   7.810
13302WAT     H140148   1.551   6.731   7.739
13302WAT     H240149   1.595   6.821   7.868
13303WAT      O40150   5.813   1.424   4.504
13303WAT     H140151   5.857   1.504   4.543
13303WAT     H240152   5.782   1.444   4.411
13304WAT      O40153   7.378   3.460   2.119
13304WAT     H140154   7.383   3.555   2.149
13304WAT     H240155   7.295   3.418   2.156
13305WAT      O40156   2.321   8.646   6.990
13305WAT     H140157   2.224   8.638   6.970
13305WAT     H240158   2.343   8.596   7.074
13306WAT      O40159   3.125   0.059   9.222
13306WAT     H140160   3.198   0.099   9.278
13306WAT     H240161   3.067   0.001   9.279
13307WAT      O40162   6.636   5.880   2.434
13307WAT     H140163   6.538   5.879   2.415
13307WAT     H240164   6.671   5.786   2.435
13308WAT      O40165   3.892   2.674   2.186
13308WAT     H140166   3.796   2.702   2.185
13308WAT     H240167   3.900   2.578   2.159
13309WAT      O40168   5.037   3.291   4.711
13309WAT     H140169   5.069   3.299   4.617
13309WAT     H240170   5.104   3.239   4.764
13310WAT      O40171   9.360   0.657   4.850
13310WAT     H140172   9.407   0.610   4.925
13310WAT     H240173   9.262   0.653   4.864
13311WAT      O40174   5.936   0.591   8.185
13311WAT     H140175   5.919   0.578   8.088
13311WAT     H240176   5.990   0.673   8.199
13312WAT      O40177   0.403   3.348   8.167
13312WAT     H140178   0.332   3.294   8.213
13312WAT     H240179   0.484   3.351   8.225
13313WAT      O40180   1.516   6.443   0.019
13313WAT     H140181   1.511   6.525  -0.038
13313WAT     H240182   1.439   6.382  -0.003
13314WAT      O40183   8.992   2.577   2.375
13314WAT     H140184   8.977   2.675   2.393
13314WAT     H240185   9.085   2.552   2.403
13315WAT      O40186   3.221   0.449   0.048
13315WAT     H140187   3.231   0.391   0.129
13315WAT     H240188   3.306   0.500   0.033
13316WAT      O40189   3.624   0.618   2.793
13316WAT     H140190   3.615   0.559   2.872
13316WAT     H240191   3.536   0.626   2.747
13317WAT      O40192   0.239   7.756   9.432
13317WAT     H140193   0.326   7.741   9.384
13317WAT     H240194   0.218   7.854   9.434
13318WAT      O40195   6.906   2.718   2.700
13318WAT     H140196   6.840   2.645   2.718
13318WAT     H240197   6.945   2.751   2.786
13319WAT      O40198   3.699   2.669   1.891
13319WAT     H140199   3.788   2.624   1.897
13319WAT     H240200   3.677   2.713   1.977
13320WAT      O40201   2.857   9.389   7.833
13320WAT     H140202   2.762   9.395   7.861
13320WAT     H240203   2.873   9.303   7.785
13321WAT      O40204   6.975   7.528   8.334
13321WAT     H140205   7.009   7.575   8.417
13321WAT     H240206   7.016   7.571   8.253
13322WAT      O40207   1.988   2.646   9.512
13322WAT     H140208   1.916   2.618   9.576
13322WAT     H240209   1.946   2.677   9.427
13323WAT      O40210   7.633   2.781   7.166
13323WAT     H140211   7.546   2.800   7.212
13323WAT     H240212   7.619   2.707   7.100
13324WAT      O40213   5.254   7.770   7.085
13324WAT     H140214   5.230   7.703   7.155
13324WAT     H240215   5.194   7.850   7.093
13325WAT      O40216   3.757   9.072   9.593
13325WAT     H140217   3.804   8.986   9.572
13325WAT     H240218   3.665   9.070   9.552
13326WAT      O40219   2.170   9.226   8.475
13326WAT     H140220   2.215   9.244   8.562
13326WAT     H240221   2.209   9.286   8.405
13327WAT      O40222   2.447   2.056   1.317
13327WAT     H140223   2.500   2.138   1.340
13327WAT     H240224   2.365   2.083   1.265
13328WAT      O40225   7.977   9.253   5.063
13328WAT     H140226   7.906   9.242   5.132
13328WAT     H240227   7.993   9.166   5.017
13329WAT      O40228   5.126   7.153   9.606
13329WAT     H140229   5.148   7.077   9.544
13329WAT     H240230   5.042   7.132   9.656
13330WAT      O40231   6.553   8.382   6.918
13330WAT     H140232   6.461   8.374   6.956
13330WAT     H240233   6.566   8.315   6.845
13331WAT      O40234   7.940   5.692   5.516
13331WAT     H140235   7.850   5.654   5.537
13331WAT     H240236   8.004   5.666   5.587
13332WAT      O40237   0.294   5.124   0.615
13332WAT     H140238   0.359   5.136   0.539
13332WAT     H240239   0.276   5.026   0.628
13333WAT      O40240   2.436   6.616   8.906
13333WAT     H140241   2.517   6.656   8.864
13333WAT     H240242   2.441   6.516   8.901
13334WAT      O40243   7.741   3.303   4.658
13334WAT     H140244   7.655   3.256   4.638
13334WAT     H240245   7.816   3.237   4.662
13335WAT      O40246   8.167   2.616   5.854
13335WAT     H140247   8.188   2.619   5.756
13335WAT     H240248   8.072   2.645   5.868
13336WAT      O40249   3.849   4.623   5.597
13336WAT     H140250   3.850   4.574   5.684
13336WAT     H240251   3.843   4.557   5.522
13337WAT      O40252   2.179   6.272   2.168
13337WAT     H140253   2.268   6.273   2.214
13337WAT     H240254   2.177   6.346   2.100
13338WAT      O40255   3.921   2.362   4.529
13338WAT     H140256   3.905   2.335   4.434
13338WAT     H240257   3.986   2.298   4.570
13339WAT      O40258   2.901   4.843   1.629
13339WAT     H140259   2.877   4.897   1.548
13339WAT     H240260   2.894   4.745   1.607
13340WAT      O40261   9.017   0.441   2.633
13340WAT     H140262   8.979   0.407   2.719
13340WAT     H240263   8.944   0.481   2.578
13341WAT      O40264   4.864   5.567   1.246
13341WAT     H140265   4.836   5.483   1.199
13341WAT     H240266   4.837   5.562   1.342
13342WAT      O40267   2.542   1.401   3.548
13342WAT     H140268   2.555   1.356   3.460
13342WAT     H240269   2.520   1.333   3.618
13343WAT      O40270   1.369   7.769   7.172
13343WAT     H140271   1.420   7.774   7.257
13343WAT     H240272   1.432   7.754   7.096
13344WAT      O40273   3.030   9.353   4.396
13344WAT     H140274   3.021   9.388   4.303
13344WAT     H240275   3.005   9.256   4.398
13345WAT      O40276   4.528   3.118   0.190
13345WAT     H140277   4.456   3.144   0.126
13345WAT     H240278   4.591   3.054   0.146
13346WAT      O40279   0.635   3.203   5.091
13346WAT     H140280   0.594   3.183   5.002
13346WAT     H240281   0.604   3.292   5.123
13347WAT      O40282   9.390   6.362   5.249
13347WAT     H140283   9.335   6.317   5.179
13347WAT     H240284   9.478   6.390   5.210
13348WAT      O40285   4.827   4.727   9.500
13348WAT     H140286   4.782   4.806   9.541
13348WAT     H240287   4.925   4.743   9.496
13349WAT      O40288   9.013   7.157   2.395
13349WAT     H140289   8.961   7.157   2.481
13349WAT     H240290   9.094   7.215   2.405
13350WAT      O40291   3.314   1.421   2.948
13350WAT     H140292   3.311   1.491   3.019
13350WAT     H240293   3.368   1.343   2.981
13351WAT      O40294   7.656   7.447   8.434
13351WAT     H140295   7.645   7.454   8.335
13351WAT     H240296   7.576   7.403   8.474
13352WAT      O40297   2.251   4.592   1.033
13352WAT     H140298   2.171   4.621   1.084
13352WAT     H240299   2.263   4.493   1.043
13353WAT      O40300   6.212   4.465   7.987
13353WAT     H140301   6.274   4.396   8.026
13353WAT     H240302   6.143   4.419   7.931
13354WAT      O40303   4.469   7.887   2.948
13354WAT     H140304   4.509   7.803   2.983
13354WAT     H240305   4.369   7.885   2.961
13355WAT      O40306   5.110   7.530   1.232
13355WAT     H140307   5.041   7.585   1.279
13355WAT     H240308   5.156   7.585   1.163
13356WAT      O40309   2.400   2.696   8.838
13356WAT     H140310   2.406   2.773   8.775
13356WAT     H240311   2.404   2.730   8.933
13357WAT      O40312   6.133   5.882   2.632
13357WAT     H140313   6.079   5.941   2.571
13357WAT     H240314   6.176   5.810   2.577
13358WAT      O40315   1.467   2.165   2.125
13358WAT     H140316   1.439   2.233   2.193
13358WAT     H240317   1.533   2.207   2.062
13359WAT      O40318   7.825   2.795   7.705
13359WAT     H140319   7.837   2.804   7.606
13359WAT     H240320   7.740   2.747   7.724
13360WAT      O40321   4.293   4.771   8.869
13360WAT     H140322   4.368   4.804   8.926
13360WAT     H240323   4.329   4.713   8.796
13361WAT      O40324   7.288   2.309   4.848
13361WAT     H140325   7.249   2.281   4.760
13361WAT     H240326   7.231   2.273   4.922
13362WAT      O40327   9.684   3.237   9.170
13362WAT     H140328   9.642   3.299   9.104
13362WAT     H240329   9.707   3.150   9.125
13363WAT      O40330   8.921   1.098   1.051
13363WAT     H140331   9.011   1.110   1.008
13363WAT     H240332   8.916   1.152   1.135
13364WAT      O40333   6.623   8.877   5.642
13364WAT     H140334   6.674   8.806   5.691
13364WAT     H240335   6.651   8.967   5.677
13365WAT      O40336   2.417   2.096   2.610
13365WAT     H140337   2.366   2.148   2.541
13365WAT     H240338   2.374   2.007   2.624
13366WAT      O40339   2.751   2.877   0.504
13366WAT     H140340   2.833   2.934   0.508
13366WAT     H240341   2.777   2.783   0.486
13367WAT      O40342   0.030   6.703   0.435
13367WAT     H140343   0.051   6.760   0.514
13367WAT     H240344  -0.049   6.741   0.387
13368WAT      O40345   0.246   5.178   6.632
13368WAT     H140346   0.155   5.219   6.631
13368WAT     H240347   0.296   5.210   6.712
13369WAT      O40348   9.007   5.026   8.751
13369WAT     H140349   8.996   5.003   8.847
13369WAT     H240350   9.039   5.121   8.742
13370WAT      O40351   9.781   1.868   5.129
13370WAT     H140352   9.767   1.943   5.194
13370WAT     H240353   9.845   1.802   5.169
13371WAT      O40354   4.595   0.084   6.359
13371WAT     H140355   4.618   0.169   6.405
13371WAT     H240356   4.506   0.093   6.313
13372WAT      O40357   9.738   2.360   3.369
13372WAT     H140358   9.726   2.324   3.461
13372WAT     H240359   9.728   2.286   3.303
13373WAT      O40360   0.743   3.710   6.349
13373WAT     H140361   0.644   3.698   6.337
13373WAT     H240362   0.777   3.773   6.279
13374WAT      O40363   5.365   3.458   6.801
13374WAT     H140364   5.404   3.445   6.892
13374WAT     H240365   5.290   3.524   6.806
13375WAT      O40366   8.216   7.647   2.142
13375WAT     H140367   8.151   7.575   2.166
13375WAT     H240368   8.234   7.645   2.044
13376WAT      O40369   8.277   0.696   2.330
13376WAT     H140370   8.241   0.620   2.384
13376WAT     H240371   8.247   0.687   2.235
13377WAT      O40372   9.596   8.126   9.608
13377WAT     H140373   9.507   8.162   9.637
13377WAT     H240374   9.592   8.027   9.603
13378WAT      O40375   8.504   8.501   5.262
13378WAT     H140376   8.466   8.589   5.292
13378WAT     H240377   8.517   8.441   5.341
13379WAT      O40378   1.607   3.827   3.769
13379WAT     H140379   1.644   3.918   3.749
13379WAT     H240380   1.548   3.797   3.695
13380WAT      O40381   8.106   8.066   4.178
13380WAT     H140382   8.184   8.076   4.240
13380WAT     H240383   8.053   7.985   4.205
13381WAT      O40384   2.250   6.076   2.777
13381WAT     H140385   2.300   6.160   2.756
13381WAT     H240386   2.312   6.009   2.817
13382WAT      O40387   3.510   5.896   0.544
13382WAT     H140388   3.525   5.894   0.643
13382WAT     H240389   3.412   5.892   0.526
13383WAT      O40390   5.815   4.661   7.822
13383WAT     H140391   5.851   4.637   7.913
13383WAT     H240392   5.743   4.596   7.798
13384WAT      O40393   0.181   0.063   8.396
13384WAT     H140394   0.164   0.127   8.471
13384WAT     H240395   0.274   0.028   8.402
13385WAT      O40396   7.561   2.111   2.488
13385WAT     H140397   7.561   2.176   2.412
13385WAT     H240398   7.493   2.138   2.556
13386WAT      O40399   5.097   0.735   2.945
13386WAT     H140400   4.997   0.740   2.944
13386WAT     H240401   5.133   0.810   3.000
13387WAT      O40402   7.421   7.157   1.871
13387WAT     H140403   7.482   7.157   1.950
13387WAT     H240404   7.353   7.230   1.882
13388WAT      O40405   2.189   2.409   3.236
13388WAT     H140406   2.234   2.346   3.299
13388WAT     H240407   2.092   2.415   3.259
13389WAT      O40408   2.702   2.509   6.458
13389WAT     H140409   2.640   2.551   6.392
13389WAT     H240410   2.780   2.570   6.474
13390WAT      O40411   4.956   5.697   5.442
13390WAT     H140412   4.897   5.735   5.370
13390WAT     H240413   4.993   5.772   5.497
13391WAT      O40414   8.412   2.878   8.975
13391WAT     H140415   8.349   2.847   9.045
13391WAT     H240416   8.503   2.890   9.014
13392WAT      O40417   5.052   6.233   5.865
13392WAT     H140418   5.049   6.326   5.831
13392WAT     H240419   5.055   6.169   5.788
13393WAT      O40420   8.123   7.206   3.529
13393WAT     H140421   8.115   7.268   3.606
13393WAT     H240422   8.035   7.200   3.481
13394WAT      O40423   4.720   8.801   5.367
13394WAT     H140424   4.649   8.870   5.383
13394WAT     H240425   4.677   8.711   5.362
13395WAT      O40426   5.722   5.474   8.190
13395WAT     H140427   5.747   5.449   8.283
13395WAT     H240428   5.801   5.464   8.130
13396WAT      O40429   2.586   2.362   9.436
13396WAT     H140430   2.549   2.295   9.500
13396WAT     H240431   2.612   2.445   9.487
13397WAT      O40432   7.818   0.803   5.942
13397WAT     H140433   7.748   0.864   5.907
13397WAT     H240434   7.790   0.708   5.930
13398WAT      O40435   1.022   0.754   8.503
13398WAT     H140436   0.925   0.743   8.524
13398WAT     H240437   1.035   0.755   8.404
13399WAT      O40438   6.287   7.245   1.086
13399WAT     H140439   6.199   7.264   1.042
13399WAT     H240440   6.340   7.183   1.029
13400WAT      O40441   9.185   9.068   0.068
13400WAT     H140442   9.191   9.034   0.161
13400WAT     H240443   9.088   9.075   0.042
13401WAT      O40444   6.376   0.406   3.349
13401WAT     H140445   6.451   0.363   3.299
13401WAT     H240446   6.404   0.421   3.444
13402WAT      O40447   8.156   6.128   6.077
13402WAT     H140448   8.058   6.147   6.064
13402WAT     H240449   8.209   6.208   6.052
13403WAT      O40450   7.245   9.791   9.188
13403WAT     H140451   7.302   9.798   9.106
13403WAT     H240452   7.272   9.861   9.254
13404WAT      O40453   8.517   9.848   9.142
13404WAT     H140454   8.474   9.758   9.142
13404WAT     H240455   8.594   9.848   9.206
13405WAT      O40456   2.737   9.800   8.690
13405WAT     H140457   2.785   9.720   8.652
13405WAT     H240458   2.667   9.830   8.626
13406WAT      O40459   7.797   1.376   5.769
13406WAT     H140460   7.829   1.452   5.713
13406WAT     H240461   7.814   1.395   5.865
13407WAT      O40462   9.870   1.040   7.673
13407WAT     H140463   9.839   1.114   7.734
13407WAT     H240464   9.855   1.066   7.578
13408WAT      O40465   9.168   3.260   1.302
13408WAT     H140466   9.194   3.195   1.230
13408WAT     H240467   9.245   3.272   1.365
13409WAT      O40468   4.365   7.211   7.507
13409WAT     H140469   4.418   7.295   7.524
13409WAT     H240470   4.386   7.177   7.416
13410WAT      O40471   0.696   8.081   8.440
13410WAT     H140472   0.748   8.042   8.516
13410WAT     H240473   0.606   8.037   8.435
13411WAT      O40474   4.302   4.860   3.732
13411WAT     H140475   4.379   4.872   3.669
13411WAT     H240476   4.317   4.915   3.814
13412WAT      O40477   7.862   7.189   0.366
13412WAT     H140478   7.907   7.109   0.407
13412WAT     H240479   7.766   7.168   0.349
13413WAT      O40480   1.082   9.791   5.942
13413WAT     H140481   1.178   9.766   5.926
13413WAT     H240482   1.038   9.720   5.997
13414WAT      O40483   6.356   7.167   5.519
13414WAT     H140484   6.355   7.230   5.597
13414WAT     H240485   6.339   7.219   5.435
13415WAT      O40486   6.446   2.823   3.644
13415WAT     H140487   6.490   2.911   3.625
13415WAT     H240488   6.400   2.826   3.733
13416WAT      O40489   2.885   2.159   4.847
13416WAT     H140490   2.816   2.134   4.915
13416WAT     H240491   2.888   2.090   4.775
13417WAT      O40492   3.028   5.950   2.218
13417WAT     H140493   3.028   5.851   2.227
13417WAT     H240494   3.048   5.976   2.123
13418WAT      O40495   4.890   5.507   2.978
13418WAT     H140496   4.834   5.494   2.897
13418WAT     H240497   4.833   5.543   3.052
13419WAT      O40498   2.498   6.611   2.524
13419WAT     H140499   2.576   6.600   2.586
13419WAT     H240500   2.528   6.602   2.430
13420WAT      O40501   8.185   9.327   3.311
13420WAT     H140502   8.102   9.294   3.267
13420WAT     H240503   8.195   9.282   3.400
13421WAT      O40504   3.751   2.444   8.609
13421WAT     H140505   3.685   2.451   8.684
13421WAT     H240506   3.741   2.355   8.565
13422WAT      O40507   1.983   8.120   3.135
13422WAT     H140508   1.981   8.051   3.063
13422WAT     H240509   2.022   8.081   3.218
13423WAT      O40510   2.935   5.870   3.562
13423WAT     H140511   2.986   5.842   3.481
13423WAT     H240512   2.948   5.968   3.577
13424WAT      O40513   6.000   1.122   4.885
13424WAT     H140514   6.073   1.189   4.879
13424WAT     H240515   5.949   1.120   4.799
13425WAT      O40516   5.119   0.152   1.247
13425WAT     H140517   5.118   0.252   1.257
13425WAT     H240518   5.049   0.125   1.182
13426WAT      O40519   2.534   7.790   1.930
13426WAT     H140520   2.459   7.848   1.963
13426WAT     H240521   2.548   7.807   1.832
13427WAT      O40522   9.241   7.238   7.104
13427WAT     H140523   9.204   7.331   7.110
13427WAT     H240524   9.241   7.196   7.195
13428WAT      O40525   2.813   5.401   2.380
13428WAT     H140526   2.768   5.320   2.343
13428WAT     H240527   2.744   5.465   2.413
13429WAT      O40528   2.943   4.588   3.543
13429WAT     H140529   2.888   4.609   3.463
13429WAT     H240530   3.031   4.636   3.538
13430WAT      O40531   0.550   7.458   7.899
13430WAT     H140532   0.451   7.447   7.889
13430WAT     H240533   0.591   7.370   7.921
13431WAT      O40534   7.953   4.221   5.478
13431WAT     H140535   7.957   4.146   5.412
13431WAT     H240536   7.910   4.301   5.436
13432WAT      O40537   1.466   1.713   1.754
13432WAT     H140538   1.489   1.645   1.684
13432WAT     H240539   1.368   1.732   1.751
13433WAT      O40540   6.866   3.530   0.939
13433WAT     H140541   6.945   3.539   0.999
13433WAT     H240542   6.857   3.435   0.909
13434WAT      O40543   3.702   9.647   8.203
13434WAT     H140544   3.648   9.717   8.156
13434WAT     H240545   3.697   9.561   8.153
13435WAT      O40546   9.326   2.401   6.768
13435WAT     H140547   9.346   2.404   6.866
13435WAT     H240548   9.265   2.325   6.748
13436WAT      O40549   1.593   9.333   0.693
13436WAT     H140550   1.663   9.308   0.626
13436WAT     H240551   1.515   9.374   0.647
13437WAT      O40552   9.374   9.155   7.795
13437WAT     H140553   9.380   9.129   7.891
13437WAT     H240554   9.340   9.249   7.788
13438WAT      O40555   1.772   9.154   3.255
13438WAT     H140556   1.755   9.118   3.347
13438WAT     H240557   1.848   9.219   3.259
13439WAT      O40558   1.063   1.496   9.150
13439WAT     H140559   1.147   1.516   9.200
13439WAT     H240560   1.075   1.520   9.054
13440WAT      O40561   0.176   4.008   0.760
13440WAT     H140562   0.247   4.028   0.828
13440WAT     H240563   0.096   3.969   0.806
13441WAT      O40564   8.361   4.375   5.738
13441WAT     H140565   8.281   4.333   5.695
13441WAT     H240566   8.444   4.337   5.697
13442WAT      O40567   5.569   7.274   8.278
13442WAT     H140568   5.642   7.332   8.244
13442WAT     H240569   5.594   7.237   8.367
13443WAT      O40570   2.020   7.742   3.548
13443WAT     H140571   2.091   7.693   3.598
13443WAT     H240572   1.943   7.760   3.609
13444WAT      O40573   9.561   6.903   3.937
13444WAT     H140574   9.643   6.955   3.960
13444WAT     H240575   9.569   6.810   3.971
13445WAT      O40576   7.803   6.242   4.214
13445WAT     H140577   7.813   6.256   4.312
13445WAT     H240578   7.877   6.288   4.166
13446WAT      O40579   2.154   4.835   7.969
13446WAT     H140580   2.088   4.838   7.893
13446WAT     H240581   2.161   4.741   8.002
13447WAT      O40582   9.674   4.408   1.249
13447WAT     H140583   9.603   4.474   1.227
13447WAT     H240584   9.689   4.405   1.348
13448WAT      O40585   8.959   7.111   4.633
13448WAT     H140586   9.000   7.197   4.663
13448WAT     H240587   9.030   7.052   4.594
13449WAT      O40588   6.900   5.844   6.969
13449WAT     H140589   6.938   5.892   6.890
13449WAT     H240590   6.822   5.896   7.006
13450WAT      O40591   3.601   8.671   8.427
13450WAT     H140592   3.578   8.583   8.386
13450WAT     H240593   3.528   8.737   8.409
13451WAT      O40594   8.049   1.893   6.634
13451WAT     H140595   7.987   1.858   6.563
13451WAT     H240596   8.055   1.993   6.626
13452WAT      O40597   7.622   3.106   9.064
13452WAT     H140598   7.538   3.144   9.027
13452WAT     H240599   7.658   3.036   9.001
13453WAT      O40600   7.476   1.651   5.861
13453WAT     H140601   7.455   1.737   5.908
13453WAT     H240602   7.547   1.602   5.913
13454WAT      O40603   5.084   4.889   0.232
13454WAT     H140604   5.121   4.917   0.144
13454WAT     H240605   5.013   4.820   0.218
13455WAT      O40606   8.510   6.019   9.272
13455WAT     H140607   8.603   6.057   9.270
13455WAT     H240608   8.482   5.996   9.178
13456WAT      O40609   8.013   0.342   1.976
13456WAT     H140610   8.097   0.306   2.019
13456WAT     H240611   8.007   0.440   1.992
13457WAT      O40612   1.450   9.230   4.840
13457WAT     H140613   1.504   9.206   4.920
13457WAT     H240614   1.463   9.326   4.819
13458WAT      O40615   9.421   1.303   5.392
13458WAT     H140616   9.416   1.237   5.467
13458WAT     H240617   9.517   1.321   5.370
13459WAT      O40618   4.603   7.663   3.958
13459WAT     H140619   4.561   7.620   4.037
13459WAT     H240620   4.700   7.638   3.953
13460WAT      O40621   1.329   9.468   8.944
13460WAT     H140622   1.337   9.564   8.916
13460WAT     H240623   1.415   9.420   8.923
13461WAT      O40624   0.639   5.265   8.615
13461WAT     H140625   0.550   5.281   8.573
13461WAT     H240626   0.700   5.341   8.593
13462WAT      O40627   2.126   8.995   2.744
13462WAT     H140628   2.061   9.069   2.760
13462WAT     H240629   2.080   8.907   2.759
13463WAT      O40630   0.495   1.597   8.948
13463WAT     H140631   0.398   1.586   8.970
13463WAT     H240632   0.525   1.689   8.973
13464WAT      O40633   7.528   0.753   7.350
13464WAT     H140634   7.543   0.795   7.261
13464WAT     H240635   7.511   0.824   7.418
13465WAT      O40636   8.790   8.729   3.909
13465WAT     H140637   8.849   8.799   3.867
13465WAT     H240638   8.847   8.660   3.954
13466WAT      O40639   4.930   0.628   2.335
13466WAT     H140640   4.962   0.651   2.427
13466WAT     H240641   4.979   0.548   2.301
13467WAT      O40642   0.030   7.718   0.203
13467WAT     H140643   0.056   7.625   0.229
13467WAT     H240644  -0.056   7.716   0.152
13468WAT      O40645   7.292   1.280   4.963
13468WAT     H140646   7.236   1.361   4.949
13468WAT     H240647   7.252   1.224   5.036
13469WAT      O40648   4.957   0.084   9.157
13469WAT     H140649   4.950   0.061   9.060
13469WAT     H240650   4.890   0.031   9.209
13470WAT      O40651   7.776   2.984   2.130
13470WAT     H140652   7.868   3.022   2.123
13470WAT     H240653   7.728   3.028   2.206
13471WAT      O40654   9.855   9.121   3.556
13471WAT     H140655   9.947   9.157   3.540
13471WAT     H240656   9.830   9.136   3.652
13472WAT      O40657   2.102   7.225   1.983
13472WAT     H140658   2.146   7.135   1.980
13472WAT     H240659   2.030   7.225   2.052
13473WAT      O40660   9.051   6.139   0.902
13473WAT     H140661   8.968   6.158   0.848
13473WAT     H240662   9.116   6.215   0.890
13474WAT      O40663   3.274   6.857   9.466
13474WAT     H140664   3.303   6.761   9.457
13474WAT     H240665   3.355   6.915   9.474
13475WAT      O40666   9.581   8.178   7.746
13475WAT     H140667   9.613   8.092   7.785
13475WAT     H240668   9.563   8.165   7.648
13476WAT      O40669   7.835   5.179   8.071
13476WAT     H140670   7.893   5.236   8.012
13476WAT     H240671   7.888   5.102   8.106
13477WAT      O40672   5.806   4.185   0.102
13477WAT     H140673   5.853   4.262   0.145
13477WAT     H240674   5.733   4.153   0.162
13478WAT      O40675   8.324   6.729   0.488
13478WAT     H140676   8.318   6.826   0.465
13478WAT     H240677   8.405   6.689   0.446
13479WAT      O40678   9.251   5.718   4.232
13479WAT     H140679   9.178   5.752   4.173
13479WAT     H240680   9.335   5.768   4.213
13480WAT      O40681   8.638   7.943   1.380
13480WAT     H140682   8.671   7.888   1.457
13480WAT     H240683   8.645   8.040   1.403
13481WAT      O40684   7.527   3.654   8.260
13481WAT     H140685   7.500   3.562   8.291
13481WAT     H240686   7.473   3.679   8.180
13482WAT      O40687   3.491   7.023   8.416
13482WAT     H140688   3.501   7.111   8.371
13482WAT     H240689   3.419   6.970   8.371
13483WAT      O40690   7.024   7.953   7.786
13483WAT     H140691   7.016   7.976   7.689
13483WAT     H240692   7.035   8.037   7.839
13484WAT      O40693   2.325   7.718   7.337
13484WAT     H140694   2.323   7.786   7.410
13484WAT     H240695   2.239   7.667   7.337
13485WAT      O40696   9.376   1.450   8.469
13485WAT     H140697   9.424   1.535   8.448
13485WAT     H240698   9.279   1.460   8.445
13486WAT      O40699   4.050   5.766   7.659
13486WAT     H140700   3.993   5.807   7.730
13486WAT     H240701   3.991   5.729   7.587
13487WAT      O40702   4.606   5.462   0.787
13487WAT     H140703   4.681   5.454   0.853
13487WAT     H240704   4.533   5.398   0.813
13488WAT      O40705   2.886   4.104   8.668
13488WAT     H140706   2.811   4.050   8.706
13488WAT     H240707   2.880   4.198   8.700
13489WAT      O40708   9.277   4.609   5.411
13489WAT     H140709   9.323   4.587   5.497
13489WAT     H240710   9.257   4.525   5.361
13490WAT      O40711   6.140   6.813   4.307
13490WAT     H140712   6.091   6.732   4.276
13490WAT     H240713   6.199   6.788   4.384
13491WAT      O40714   8.841   7.707   6.551
13491WAT     H140715   8.820   7.803   6.568
13491WAT     H240716   8.885   7.667   6.632
13492WAT      O40717   0.310   7.445   1.005
13492WAT     H140718   0.241   7.498   0.955
13492WAT     H240719   0.393   7.500   1.016
13493WAT      O40720   8.319   9.755   9.637
13493WAT     H140721   8.302   9.827   9.570
13493WAT     H240722   8.232   9.725   9.676
13494WAT      O40723   2.783   6.196   4.630
13494WAT     H140724   2.776   6.171   4.534
13494WAT     H240725   2.866   6.251   4.645
13495WAT      O40726   6.658   0.589   9.664
13495WAT     H140727   6.683   0.524   9.592
13495WAT     H240728   6.563   0.573   9.691
13496WAT      O40729   6.250   5.872   3.500
13496WAT     H140730   6.272   5.951   3.557
13496WAT     H240731   6.153   5.850   3.511
13497WAT      O40732   2.534   5.496   1.270
13497WAT     H140733   2.445   5.494   1.224
13497WAT     H240734   2.546   5.411   1.322
13498WAT      O40735   7.298   5.500   1.210
13498WAT     H140736   7.361   5.566   1.251
13498WAT     H240737   7.207   5.513   1.248
13499WAT      O40738   1.248   4.876   7.476
13499WAT     H140739   1.157   4.893   7.438
13499WAT     H240740   1.250   4.785   7.518
13500WAT      O40741   0.175   5.403   9.776
13500WAT     H140742   0.192   5.386   9.679
13500WAT     H240743   0.076   5.408   9.792
13501WAT      O40744   5.301   0.221   6.257
13501WAT     H140745   5.264   0.149   6.315
13501WAT     H240746   5.280   0.311   6.296
13502WAT      O40747   0.828   8.298   6.038
13502WAT     H140748   0.732   8.296   6.009
13502WAT     H240749   0.878   8.365   5.984
13503WAT      O40750   2.214   8.490   8.555
13503WAT     H140751   2.142   8.508   8.623
13503WAT     H240752   2.219   8.567   8.491
13504WAT      O40753   5.172   7.797   4.938
13504WAT     H140754   5.186   7.825   4.843
13504WAT     H240755   5.165   7.698   4.943
13505WAT      O40756   2.000   1.384   1.233
13505WAT     H140757   1.992   1.358   1.137
13505WAT     H240758   2.031   1.479   1.240
13506WAT      O40759   5.369   8.392   2.116
13506WAT     H140760   5.399   8.376   2.022
13506WAT     H240761   5.429   8.341   2.179
13507WAT      O40762   3.667   0.195   1.777
13507WAT     H140763   3.589   0.242   1.735
13507WAT     H240764   3.669   0.100   1.746
13508WAT      O40765   8.089   1.081   4.588
13508WAT     H140766   8.017   1.067   4.656
13508WAT     H240767   8.178   1.070   4.633
13509WAT      O40768   2.782   6.954   6.853
13509WAT     H140769   2.791   7.045   6.893
13509WAT     H240770   2.772   6.886   6.926
13510WAT      O40771   0.880   7.027   3.673
13510WAT     H140772   0.873   7.112   3.724
13510WAT     H240773   0.913   7.046   3.580
13511WAT      O40774   6.617   0.321   3.216
13511WAT     H140775   6.555   0.295   3.141
13511WAT     H240776   6.711   0.301   3.189
13512WAT      O40777   0.477   4.219   9.409
13512WAT     H140778   0.389   4.240   9.366
13512WAT     H240779   0.546   4.205   9.337
13513WAT      O40780   9.215   7.046   4.827
13513WAT     H140781   9.229   6.956   4.869
13513WAT     H240782   9.178   7.109   4.896
13514WAT      O40783   2.386   3.409   0.917
13514WAT     H140784   2.318   3.427   0.845
13514WAT     H240785   2.478   3.415   0.878
13515WAT      O40786   7.991   7.059   0.687
13515WAT     H140787   7.974   7.016   0.599
13515WAT     H240788   8.000   7.158   0.675
13516WAT      O40789   5.019   5.885   6.593
13516WAT     H140790   4.990   5.972   6.633
13516WAT     H240791   4.999   5.811   6.657
13517WAT      O40792   0.441   1.120   5.763
13517WAT     H140793   0.466   1.205   5.809
13517WAT     H240794   0.370   1.073   5.816
13518WAT      O40795   0.764   1.510   4.186
13518WAT     H140796   0.695   1.439   4.172
13518WAT     H240797   0.770   1.567   4.104
13519WAT      O40798   7.816   3.327   3.154
13519WAT     H140799   7.852   3.234   3.148
13519WAT     H240800   7.716   3.324   3.148
13520WAT      O40801   9.486   5.900   3.945
13520WAT     H140802   9.559   5.833   3.934
13520WAT     H240803   9.501   5.976   3.882
13521WAT      O40804   9.837   9.719   9.448
13521WAT     H140805   9.881   9.801   9.412
13521WAT     H240806   9.900   9.641   9.440
13522WAT      O40807   3.843   8.792   9.108
13522WAT     H140808   3.846   8.714   9.044
13522WAT     H240809   3.819   8.759   9.199
13523WAT      O40810   9.886   4.329   7.042
13523WAT     H140811   9.810   4.342   6.978
13523WAT     H240812   9.913   4.233   7.043
13524WAT      O40813   2.988   3.574   9.152
13524WAT     H140814   2.951   3.610   9.067
13524WAT     H240815   2.916   3.569   9.221
13525WAT      O40816   3.326   5.169   4.921
13525WAT     H140817   3.335   5.093   4.986
13525WAT     H240818   3.236   5.213   4.934
13526WAT      O40819   5.571   9.130   3.878
13526WAT     H140820   5.526   9.054   3.831
13526WAT     H240821   5.583   9.106   3.975
13527WAT      O40822   9.013   1.189   6.747
13527WAT     H140823   8.947   1.202   6.672
13527WAT     H240824   8.981   1.118   6.809
13528WAT      O40825   4.899   2.059   2.928
13528WAT     H140826   4.903   2.144   2.876
13528WAT     H240827   4.910   1.981   2.866
13529WAT      O40828   2.007   2.192   2.917
13529WAT     H140829   2.087   2.252   2.930
13529WAT     H240830   1.927   2.247   2.895
13530WAT      O40831   2.367   2.390   9.244
13530WAT     H140832   2.346   2.301   9.204
13530WAT     H240833   2.457   2.386   9.288
13531WAT      O40834   1.390   6.614   9.450
13531WAT     H140835   1.410   6.516   9.448
13531WAT     H240836   1.366   6.641   9.543
13532WAT      O40837   7.137   5.578   5.940
13532WAT     H140838   7.061   5.516   5.922
13532WAT     H240839   7.102   5.666   5.972
13533WAT      O40840   5.117   7.115   8.297
13533WAT     H140841   5.194   7.063   8.261
13533WAT     H240842   5.148   7.170   8.375
13534WAT      O40843   8.912   7.077   9.427
13534WAT     H140844   8.968   7.155   9.454
13534WAT     H240845   8.818   7.092   9.459
13535WAT      O40846   0.126   3.005   4.003
13535WAT     H140847   0.120   3.075   3.932
13535WAT     H240848   0.076   3.036   4.084
13536WAT      O40849   5.984   4.971   2.239
13536WAT     H140850   5.996   4.930   2.330
13536WAT     H240851   6.001   5.070   2.244
13537WAT      O40852   5.540   1.791   9.762
13537WAT     H140853   5.595   1.865   9.723
13537WAT     H240854   5.451   1.828   9.791
13538WAT      O40855   2.238   0.105   0.915
13538WAT     H140856   2.242   0.144   1.007
13538WAT     H240857   2.198   0.014   0.919
13539WAT      O40858   9.748   7.488   9.784
13539WAT     H140859   9.766   7.499   9.686
13539WAT     H240860   9.809   7.417   9.821
13540WAT      O40861   2.580   1.061   8.321
13540WAT     H140862   2.493   1.090   8.360
13540WAT     H240863   2.567   1.038   8.224
13541WAT      O40864   4.935   5.006   7.775
13541WAT     H140865   4.985   4.940   7.717
13541WAT     H240866   4.913   5.087   7.721
13542WAT      O40867   9.661   0.132   2.707
13542WAT     H140868   9.722   0.141   2.786
13542WAT     H240869   9.614   0.044   2.711
13543WAT      O40870   7.571   8.048   5.900
13543WAT     H140871   7.580   8.125   5.964
13543WAT     H240872   7.482   8.052   5.855
13544WAT      O40873   3.095   3.796   5.637
13544WAT     H140874   3.054   3.725   5.580
13544WAT     H240875   3.186   3.767   5.665
13545WAT      O40876   5.256   1.157   4.126
13545WAT     H140877   5.211   1.141   4.213
13545WAT     H240878   5.205   1.226   4.074
13546WAT      O40879   2.978   9.046   0.527
13546WAT     H140880   2.925   9.089   0.600
13546WAT     H240881   3.076   9.052   0.549
13547WAT      O40882   9.399   8.417   3.380
13547WAT     H140883   9.308   8.377   3.390
13547WAT     H240884   9.395   8.514   3.405
13548WAT      O40885   9.701   7.593   7.471
13548WAT     H140886   9.725   7.535   7.393
13548WAT     H240887   9.625   7.552   7.521
13549WAT      O40888   6.392   2.541   0.069
13549WAT     H140889   6.382   2.626   0.121
13549WAT     H240890   6.433   2.471   0.127
13550WAT      O40891   0.070   1.958   2.412
13550WAT     H140892   0.144   2.022   2.432
13550WAT     H240893   0.038   1.917   2.498
13551WAT      O40894   8.213   6.688   2.976
13551WAT     H140895   8.250   6.729   3.059
13551WAT     H240896   8.156   6.755   2.928
13552WAT      O40897   4.078   6.848   6.078
13552WAT     H140898   4.086   6.938   6.035
13552WAT     H240899   4.141   6.784   6.033
13553WAT      O40900   8.815   9.653   3.593
13553WAT     H140901   8.848   9.736   3.638
13553WAT     H240902   8.738   9.615   3.644
13554WAT      O40903   1.583   8.144   0.548
13554WAT     H140904   1.567   8.096   0.461
13554WAT     H240905   1.630   8.230   0.530
13555WAT      O40906   0.523   9.315   2.251
13555WAT     H140907   0.454   9.250   2.219
13555WAT     H240908   0.541   9.299   2.348
13556WAT      O40909   3.766   0.081   3.681
13556WAT     H140910   3.675   0.101   3.644
13556WAT     H240911   3.835   0.131   3.628
13557WAT      O40912   7.033   7.757   7.039
13557WAT     H140913   7.126   7.790   7.022
13557WAT     H240914   7.038   7.666   7.080
13558WAT      O40915   5.590   6.727   8.214
13558WAT     H140916   5.578   6.716   8.312
13558WAT     H240917   5.606   6.823   8.192
13559WAT      O40918   2.076   2.618   7.001
13559WAT     H140919   2.135   2.549   6.960
13559WAT     H240920   2.090   2.706   6.955
13560WAT      O40921   3.258   7.817   7.433
13560WAT     H140922   3.167   7.778   7.420
13560WAT     H240923   3.318   7.788   7.358
13561WAT      O40924   1.890   3.400   9.745
13561WAT     H140925   1.846   3.350   9.671
13561WAT     H240926   1.951   3.470   9.707
13562WAT      O40927   0.176   3.427   8.678
13562WAT     H140928   0.193   3.400   8.773
13562WAT     H240929   0.113   3.361   8.636
13563WAT      O40930   9.658   6.449   8.693
13563WAT     H140931   9.643   6.367   8.749
13563WAT     H240932   9.751   6.482   8.709
13564WAT      O40933   5.101   3.351   4.414
13564WAT     H140934   5.086   3.444   4.447
13564WAT     H240935   5.016   3.316   4.373
13565WAT      O40936   2.643   6.761   1.012
13565WAT     H140937   2.623   6.859   1.020
13565WAT     H240938   2.626   6.732   0.918
13566WAT      O40939   0.342   9.272   7.094
13566WAT     H140940   0.356   9.304   7.188
13566WAT     H240941   0.418   9.302   7.037
13567WAT      O40942   5.433   5.697   9.884
13567WAT     H140943   5.463   5.750   9.963
13567WAT     H240944   5.504   5.701   9.813
13568WAT      O40945   9.798   2.686   4.058
13568WAT     H140946   9.846   2.652   4.140
13568WAT     H240947   9.725   2.623   4.034
13569WAT      O40948   6.660   1.203   9.696
13569WAT     H140949   6.561   1.219   9.702
13569WAT     H240950   6.677   1.110   9.666
13570WAT      O40951   3.978   3.481   1.922
13570WAT     H140952   3.968   3.541   2.002
13570WAT     H240953   4.072   3.449   1.916
13571WAT      O40954   9.856   8.954   0.721
13571WAT     H140955   9.814   8.864   0.727
13571WAT     H240956   9.923   8.955   0.647
13572WAT      O40957   6.833   4.155   7.294
13572WAT     H140958   6.849   4.231   7.231
13572WAT     H240959   6.819   4.191   7.386
13573WAT      O40960   8.678   8.481   1.521
13573WAT     H140961   8.617   8.470   1.600
13573WAT     H240962   8.747   8.409   1.521
13574WAT      O40963   6.253   4.454   3.589
13574WAT     H140964   6.224   4.394   3.514
13574WAT     H240965   6.347   4.432   3.614
13575WAT      O40966   6.002   2.049   4.788
13575WAT     H140967   5.913   2.068   4.747
13575WAT     H240968   6.046   1.974   4.739
13576WAT      O40969   0.553   1.900   9.640
13576WAT     H140970   0.638   1.943   9.612
13576WAT     H240971   0.561   1.801   9.629
13577WAT      O40972   5.481   9.002   3.652
13577WAT     H140973   5.415   9.077   3.651
13577WAT     H240974   5.571   9.038   3.626
13578WAT      O40975   6.485   1.341   2.157
13578WAT     H140976   6.501   1.242   2.155
13578WAT     H240977   6.453   1.371   2.067
13579WAT      O40978   3.717   9.508   2.476
13579WAT     H140979   3.712   9.480   2.572
13579WAT     H240980   3.724   9.607   2.471
13580WAT      O40981   5.716   4.623   3.902
13580WAT     H140982   5.790   4.559   3.919
13580WAT     H240983   5.673   4.648   3.990
13581WAT      O40984   1.721   5.086   8.037
13581WAT     H140985   1.690   5.001   7.994
13581WAT     H240986   1.793   5.127   7.981
13582WAT      O40987   8.027   2.896   5.516
13582WAT     H140988   8.006   2.804   5.551
13582WAT     H240989   7.946   2.953   5.521
13583WAT      O40990   4.120   5.157   4.080
13583WAT     H140991   4.204   5.187   4.034
13583WAT     H240992   4.106   5.213   4.162
13584WAT      O40993   8.243   1.930   7.630
13584WAT     H140994   8.240   2.012   7.687
13584WAT     H240995   8.335   1.890   7.634
13585WAT      O40996   1.853   8.392   9.777
13585WAT     H140997   1.877   8.465   9.713
13585WAT     H240998   1.873   8.304   9.734
13586WAT      O40999   1.613   8.001   6.957
13586WAT     H141000   1.580   7.918   6.913
13586WAT     H241001   1.582   8.003   7.052
13587WAT      O41002   6.997   5.068   9.639
13587WAT     H141003   7.028   5.000   9.705
13587WAT     H241004   7.072   5.130   9.617
13588WAT      O41005   0.654   6.549   6.162
13588WAT     H141006   0.724   6.588   6.103
13588WAT     H241007   0.693   6.534   6.254
13589WAT      O41008   3.858   2.835   4.165
13589WAT     H141009   3.899   2.775   4.233
13589WAT     H241010   3.760   2.845   4.184
13590WAT      O41011   7.234   4.348   0.763
13590WAT     H141012   7.220   4.258   0.805
13590WAT     H241013   7.192   4.349   0.672
13591WAT      O41014   2.540   4.168   5.702
13591WAT     H141015   2.600   4.089   5.690
13591WAT     H241016   2.469   4.166   5.631
13592WAT      O41017   3.782   5.404   9.519
13592WAT     H141018   3.870   5.357   9.520
13592WAT     H241019   3.796   5.502   9.529
13593WAT      O41020   5.260   3.325   3.164
13593WAT     H141021   5.193   3.344   3.235
13593WAT     H241022   5.214   3.292   3.082
13594WAT      O41023   5.894   3.549   7.468
13594WAT     H141024   5.988   3.529   7.498
13594WAT     H241025   5.830   3.488   7.515
13595WAT      O41026   5.882   4.387   5.270
13595WAT     H141027   5.856   4.425   5.181
13595WAT     H241028   5.799   4.356   5.318
13596WAT      O41029   6.019   5.289   9.781
13596WAT     H141030   6.004   5.349   9.859
13596WAT     H241031   6.007   5.194   9.809
13597WAT      O41032   3.977   3.324   8.062
13597WAT     H141033   4.021   3.252   8.008
13597WAT     H241034   3.879   3.322   8.047
13598WAT      O41035   9.574   9.827   6.723
13598WAT     H141036   9.656   9.823   6.665
13598WAT     H241037   9.516   9.904   6.694
13599WAT      O41038   8.195   4.859   2.759
13599WAT     H141039   8.285   4.831   2.794
13599WAT     H241040   8.163   4.939   2.810
13600WAT      O41041   9.440   0.215   6.622
13600WAT     H141042   9.384   0.265   6.688
13600WAT     H241043   9.491   0.280   6.565
13601WAT      O41044   2.943   7.064   7.814
13601WAT     H141045   3.028   7.049   7.763
13601WAT     H241046   2.899   6.976   7.832
13602WAT      O41047   0.454   4.632   9.504
13602WAT     H141048   0.437   4.609   9.408
13602WAT     H241049   0.517   4.710   9.508
13603WAT      O41050   7.457   0.523   8.728
13603WAT     H141051   7.429   0.472   8.647
13603WAT     H241052   7.523   0.594   8.701
13604WAT      O41053   6.367   8.808   3.206
13604WAT     H141054   6.323   8.874   3.145
13604WAT     H241055   6.441   8.852   3.256
13605WAT      O41056   3.745   4.963   5.320
13605WAT     H141057   3.701   5.027   5.257
13605WAT     H241058   3.814   5.011   5.374
13606WAT      O41059   9.518   1.394   2.680
13606WAT     H141060   9.502   1.361   2.773
13606WAT     H241061   9.432   1.422   2.639
13607WAT      O41062   7.004   5.045   0.146
13607WAT     H141063   7.037   5.136   0.171
13607WAT     H241064   6.972   4.997   0.228
13608WAT      O41065   3.048   9.044   9.728
13608WAT     H141066   3.012   9.017   9.818
13608WAT     H241067   3.016   9.136   9.706
13609WAT      O41068   6.060   8.397   7.735
13609WAT     H141069   6.012   8.478   7.771
13609WAT     H241070   6.017   8.315   7.771
13610WAT      O41071   0.657   7.267   6.181
13610WAT     H141072   0.575   7.216   6.206
13610WAT     H241073   0.664   7.271   6.082
13611WAT      O41074   4.666   9.374   5.609
13611WAT     H141075   4.744   9.343   5.663
13611WAT     H241076   4.584   9.324   5.638
13612WAT      O41077   3.687   3.620   2.615
13612WAT     H141078   3.707   3.591   2.709
13612WAT     H241079   3.597   3.587   2.588
13613WAT      O41080   2.080   1.225   0.190
13613WAT     H141081   2.025   1.143   0.206
13613WAT     H241082   2.084   1.243   0.092
13614WAT      O41083   3.521   3.469   8.257
13614WAT     H141084   3.572   3.512   8.332
13614WAT     H241085   3.507   3.536   8.184
13615WAT      O41086   1.112   8.331   0.574
13615WAT     H141087   1.135   8.236   0.550
13615WAT     H241088   1.162   8.394   0.515
13616WAT      O41089   3.549   9.789   7.356
13616WAT     H141090   3.525   9.844   7.276
13616WAT     H241091   3.534   9.692   7.335
13617WAT      O41092   3.521   9.158   5.401
13617WAT     H141093   3.610   9.118   5.420
13617WAT     H241094   3.460   9.088   5.365
13618WAT      O41095   8.686   1.153   0.203
13618WAT     H141096   8.714   1.151   0.107
13618WAT     H241097   8.587   1.143   0.209
13619WAT      O41098   7.330   4.499   3.784
13619WAT     H141099   7.263   4.472   3.715
13619WAT     H241100   7.282   4.528   3.867
13620WAT      O41101   0.343   9.560   3.023
13620WAT     H141102   0.362   9.494   2.950
13620WAT     H241103   0.281   9.519   3.090
13621WAT      O41104   0.433   6.310   3.320
13621WAT     H141105   0.424   6.211   3.329
13621WAT     H241106   0.529   6.336   3.321
13622WAT      O41107   6.803   5.128   2.929
13622WAT     H141108   6.829   5.042   2.973
13622WAT     H241109   6.885   5.180   2.907
13623WAT      O41110   0.134   9.716   0.330
13623WAT     H141111   0.119   9.743   0.425
13623WAT     H241112   0.215   9.762   0.294
13624WAT      O41113   6.350   6.087   3.642
13624WAT     H141114   6.393   6.116   3.727
13624WAT     H241115   6.409   6.110   3.565
13625WAT      O41116   1.689   9.584   8.335
13625WAT     H141117   1.739   9.602   8.419
13625WAT     H241118   1.753   9.564   8.261
13626WAT      O41119   9.383   2.378   1.908
13626WAT     H141120   9.386   2.388   1.808
13626WAT     H241121   9.290   2.353   1.936
13627WAT      O41122   4.128   5.810   8.012
13627WAT     H141123   4.043   5.803   7.959
13627WAT     H241124   4.113   5.870   8.091
13628WAT      O41125   6.725   0.026   4.886
13628WAT     H141126   6.692  -0.032   4.961
13628WAT     H241127   6.776   0.103   4.924
13629WAT      O41128   9.478   1.684   9.722
13629WAT     H141129   9.480   1.783   9.739
13629WAT     H241130   9.493   1.668   9.624
13630WAT      O41131   0.306   3.341   7.843
13630WAT     H141132   0.255   3.288   7.912
13630WAT     H241133   0.387   3.381   7.885
13631WAT      O41134   1.062   4.610   8.419
13631WAT     H141135   1.013   4.533   8.380
13631WAT     H241136   0.999   4.687   8.432
13632WAT      O41137   1.778   3.143   2.575
13632WAT     H141138   1.729   3.135   2.662
13632WAT     H241139   1.727   3.204   2.514
13633WAT      O41140   2.808   5.801   5.137
13633WAT     H141141   2.854   5.857   5.207
13633WAT     H241142   2.725   5.847   5.107
13634WAT      O41143   2.705   8.346   9.690
13634WAT     H141144   2.619   8.325   9.644
13634WAT     H241145   2.731   8.441   9.670
13635WAT      O41146   2.547   0.526   9.831
13635WAT     H141147   2.533   0.494   9.925
13635WAT     H241148   2.645   0.526   9.811
13636WAT      O41149   2.616   1.599   7.953
13636WAT     H141150   2.619   1.596   7.853
13636WAT     H241151   2.663   1.519   7.990
13637WAT      O41152   1.153   3.417   1.220
13637WAT     H141153   1.232   3.371   1.263
13637WAT     H241154   1.175   3.513   1.206
13638WAT      O41155   2.039   8.361   4.540
13638WAT     H141156   2.000   8.284   4.590
13638WAT     H241157   2.139   8.355   4.541
13639WAT      O41158   0.067   3.573   3.135
13639WAT     H141159  -0.013   3.633   3.138
13639WAT     H241160   0.144   3.617   3.182
13640WAT      O41161   8.305   3.831   7.074
13640WAT     H141162   8.392   3.798   7.037
13640WAT     H241163   8.250   3.753   7.103
13641WAT      O41164   5.296   2.220   2.087
13641WAT     H141165   5.216   2.181   2.040
13641WAT     H241166   5.373   2.225   2.023
13642WAT      O41167   6.152   4.351   2.643
13642WAT     H141168   6.235   4.405   2.655
13642WAT     H241169   6.083   4.382   2.708
13643WAT      O41170   5.769   4.728   8.565
13643WAT     H141171   5.810   4.646   8.607
13643WAT     H241172   5.727   4.784   8.635
13644WAT      O41173   6.877   8.583   0.357
13644WAT     H141174   6.803   8.641   0.321
13644WAT     H241175   6.839   8.510   0.413
13645WAT      O41176   1.979   6.987   3.651
13645WAT     H141177   1.952   6.975   3.746
13645WAT     H241178   1.936   6.916   3.594
13646WAT      O41179   2.004   5.273   8.809
13646WAT     H141180   1.989   5.188   8.759
13646WAT     H241181   2.052   5.338   8.751
13647WAT      O41182   3.553   6.957   4.346
13647WAT     H141183   3.611   6.932   4.268
13647WAT     H241184   3.587   6.911   4.428
13648WAT      O41185   2.166   8.541   6.160
13648WAT     H141186   2.233   8.595   6.210
13648WAT     H241187   2.117   8.481   6.223
13649WAT      O41188   2.028   0.407   4.278
13649WAT     H141189   1.965   0.411   4.355
13649WAT     H241190   2.077   0.494   4.271
13650WAT      O41191   8.784   4.377   0.662
13650WAT     H141192   8.717   4.451   0.654
13650WAT     H241193   8.774   4.333   0.751
13651WAT      O41194   5.098   6.770   6.660
13651WAT     H141195   5.177   6.740   6.713
13651WAT     H241196   5.066   6.859   6.694
13652WAT      O41197   8.842   5.740   4.448
13652WAT     H141198   8.856   5.641   4.434
13652WAT     H241199   8.815   5.756   4.543
13653WAT      O41200   9.749   0.439   9.815
13653WAT     H141201   9.653   0.465   9.821
13653WAT     H241202   9.803   0.498   9.875
13654WAT      O41203   1.580   0.050   4.093
13654WAT     H141204   1.660   0.109   4.107
13654WAT     H241205   1.507   0.079   4.154
13655WAT      O41206   2.556   7.340   1.300
13655WAT     H141207   2.499   7.259   1.291
13655WAT     H241208   2.501   7.422   1.284
13656WAT      O41209   2.537   0.743   2.455
13656WAT     H141210   2.532   0.842   2.470
13656WAT     H241211   2.588   0.725   2.371
13657WAT      O41212   9.128   3.894   3.848
13657WAT     H141213   9.085   3.856   3.930
13657WAT     H241214   9.202   3.833   3.819
13658WAT      O41215   6.237   6.732   3.799
13658WAT     H141216   6.313   6.762   3.740
13658WAT     H241217   6.183   6.663   3.750
13659WAT      O41218   5.462   9.449   6.007
13659WAT     H141219   5.400   9.434   6.084
13659WAT     H241220   5.457   9.544   5.978
13660WAT      O41221   4.766   6.870   6.099
13660WAT     H141222   4.796   6.920   6.180
13660WAT     H241223   4.840   6.809   6.069
13661WAT      O41224   3.135   4.914   3.041
13661WAT     H141225   3.155   4.816   3.040
13661WAT     H241226   3.180   4.958   2.963
13662WAT      O41227   9.851   5.172   4.320
13662WAT     H141228   9.790   5.247   4.296
13662WAT     H241229   9.797   5.097   4.359
13663WAT      O41230   9.029   0.650   2.159
13663WAT     H141231   8.933   0.621   2.149
13663WAT     H241232   9.038   0.704   2.243
13664WAT      O41233   5.542   8.451   1.704
13664WAT     H141234   5.463   8.406   1.744
13664WAT     H241235   5.514   8.537   1.660
13665WAT      O41236   3.726   1.149   3.511
13665WAT     H141237   3.669   1.085   3.561
13665WAT     H241238   3.814   1.106   3.490
13666WAT      O41239   4.906   2.916   4.654
13666WAT     H141240   4.997   2.949   4.628
13666WAT     H241241   4.836   2.971   4.608
13667WAT      O41242   0.194   4.634   8.344
13667WAT     H141243   0.242   4.582   8.415
13667WAT     H241244   0.142   4.571   8.286
13668WAT      O41245   8.309   6.059   7.970
13668WAT     H141246   8.240   6.092   8.035
13668WAT     H241247   8.386   6.122   7.968
13669WAT      O41248   8.696   2.371   4.809
13669WAT     H141249   8.652   2.290   4.769
13669WAT     H241250   8.669   2.453   4.758
13670WAT      O41251   9.224   8.706   2.249
13670WAT     H141252   9.259   8.622   2.207
13670WAT     H241253   9.301   8.759   2.285
13671WAT      O41254   7.804   6.320   0.450
13671WAT     H141255   7.758   6.405   0.424
13671WAT     H241256   7.817   6.263   0.369
13672WAT      O41257   3.617   8.461   7.849
13672WAT     H141258   3.545   8.475   7.781
13672WAT     H241259   3.688   8.402   7.810
13673WAT      O41260   8.238   9.145   7.442
13673WAT     H141261   8.320   9.088   7.454
13673WAT     H241262   8.245   9.195   7.356
13674WAT      O41263   6.009   6.249   9.149
13674WAT     H141264   5.949   6.240   9.069
13674WAT     H241265   5.953   6.246   9.233
13675WAT      O41266   0.516   0.759   9.119
13675WAT     H141267   0.567   0.689   9.169
13675WAT     H241268   0.496   0.726   9.027
13676WAT      O41269   2.752   3.172   5.035
13676WAT     H141270   2.819   3.172   5.110
13676WAT     H241271   2.696   3.089   5.041
13677WAT      O41272   9.617   3.498   7.416
13677WAT     H141273   9.613   3.557   7.497
13677WAT     H241274   9.529   3.452   7.404
13678WAT      O41275   7.368   6.304   5.412
13678WAT     H141276   7.306   6.300   5.490
13678WAT     H241277   7.330   6.248   5.338
13679WAT      O41278   2.646   7.124   0.008
13679WAT     H141279   2.733   7.128  -0.042
13679WAT     H241280   2.662   7.147   0.104
13680WAT      O41281   7.406   6.412   0.480
13680WAT     H141282   7.404   6.318   0.446
13680WAT     H241283   7.458   6.469   0.416
13681WAT      O41284   0.361   6.738   7.224
13681WAT     H141285   0.337   6.644   7.199
13681WAT     H241286   0.302   6.802   7.175
13682WAT      O41287   7.367   6.672   1.197
13682WAT     H141288   7.293   6.699   1.259
13682WAT     H241289   7.328   6.642   1.110
13683WAT      O41290   0.281   6.181   4.837
13683WAT     H141291   0.268   6.176   4.738
13683WAT     H241292   0.292   6.089   4.874
13684WAT      O41293   3.708   9.388   4.605
13684WAT     H141294   3.719   9.470   4.549
13684WAT     H241295   3.787   9.379   4.667
13685WAT      O41296   7.613   6.178   2.419
13685WAT     H141297   7.565   6.096   2.388
13685WAT     H241298   7.711   6.157   2.428
13686WAT      O41299   7.857   0.121   6.279
13686WAT     H141300   7.885   0.185   6.350
13686WAT     H241301   7.935   0.098   6.221
13687WAT      O41302   7.508   7.050   9.653
13687WAT     H141303   7.463   6.976   9.603
13687WAT     H241304   7.497   7.036   9.751
13688WAT      O41305   4.295   4.612   4.542
13688WAT     H141306   4.251   4.526   4.565
13688WAT     H241307   4.256   4.685   4.598
13689WAT      O41308   3.126   1.688   2.571
13689WAT     H141309   3.157   1.601   2.611
13689WAT     H241310   3.163   1.697   2.478
13690WAT      O41311   1.996   5.089   9.864
13690WAT     H141312   1.981   5.188   9.869
13690WAT     H241313   1.936   5.042   9.929
13691WAT      O41314   5.184   2.936   2.161
13691WAT     H141315   5.202   2.925   2.259
13691WAT     H241316   5.126   2.861   2.129
13692WAT      O41317   1.760   5.242   4.491
13692WAT     H141318   1.848   5.261   4.534
13692WAT     H241319   1.750   5.143   4.476
13693WAT      O41320   8.616   2.809   1.883
13693WAT     H141321   8.597   2.712   1.894
13693WAT     H241322   8.533   2.856   1.852
13694WAT      O41323   2.662   0.612   6.101
13694WAT     H141324   2.748   0.626   6.151
13694WAT     H241325   2.678   0.621   6.003
13695WAT      O41326   3.841   6.099   7.958
13695WAT     H141327   3.850   6.098   8.057
13695WAT     H241328   3.905   6.166   7.920
13696WAT      O41329   8.543   6.268   4.592
13696WAT     H141330   8.583   6.303   4.508
13696WAT     H241331   8.528   6.343   4.657
13697WAT      O41332   0.894   4.604   5.323
13697WAT     H141333   0.819   4.583   5.259
13697WAT     H241334   0.857   4.613   5.415
13698WAT      O41335   7.157   8.539   9.629
13698WAT     H141336   7.255   8.551   9.614
13698WAT     H241337   7.130   8.446   9.603
13699WAT      O41338   1.457   3.140   2.528
13699WAT     H141339   1.516   3.215   2.497
13699WAT     H241340   1.439   3.079   2.451
13700WAT      O41341   4.581   0.621   1.328
13700WAT     H141342   4.519   0.695   1.356
13700WAT     H241343   4.664   0.625   1.384
13701WAT      O41344   3.391   5.431   8.193
13701WAT     H141345   3.377   5.332   8.183
13701WAT     H241346   3.379   5.457   8.289
13702WAT      O41347   0.054   0.374   1.039
13702WAT     H141348   0.009   0.386   0.951
13702WAT     H241349   0.075   0.463   1.079
13703WAT      O41350   3.407   9.594   4.397
13703WAT     H141351   3.357   9.661   4.342
13703WAT     H241352   3.496   9.576   4.354
13704WAT      O41353   5.366   7.423   1.125
13704WAT     H141354   5.280   7.446   1.080
13704WAT     H241355   5.431   7.497   1.113
13705WAT      O41356   3.041   7.292   7.324
13705WAT     H141357   3.072   7.360   7.258
13705WAT     H241358   3.118   7.267   7.383
13706WAT      O41359   1.518   6.002   9.626
13706WAT     H141360   1.596   6.033   9.680
13706WAT     H241361   1.449   6.075   9.624
13707WAT      O41362   7.811   9.698   5.231
13707WAT     H141363   7.886   9.765   5.232
13707WAT     H241364   7.776   9.690   5.138
13708WAT      O41365   9.716   1.297   2.313
13708WAT     H141366   9.684   1.384   2.275
13708WAT     H241367   9.795   1.265   2.260
13709WAT      O41368   1.275   4.981   1.144
13709WAT     H141369   1.288   4.901   1.202
13709WAT     H241370   1.346   5.048   1.163
13710WAT      O41371   7.308   4.609   6.773
13710WAT     H141372   7.347   4.679   6.714
13710WAT     H241373   7.281   4.530   6.719
13711WAT      O41374   7.534   7.519   4.432
13711WAT     H141375   7.522   7.572   4.516
13711WAT     H241376   7.534   7.581   4.354
13712WAT      O41377   9.508   5.834   9.421
13712WAT     H141378   9.447   5.785   9.484
13712WAT     H241379   9.515   5.784   9.335
13713WAT      O41380   8.298   7.590   0.689
13713WAT     H141381   8.301   7.548   0.598
13713WAT     H241382   8.215   7.562   0.737
13714WAT      O41383   2.242   0.231   2.197
13714WAT     H141384   2.212   0.156   2.139
13714WAT     H241385   2.342   0.235   2.197
13715WAT      O41386   5.514   8.149   3.075
13715WAT     H141387   5.549   8.138   3.169
13715WAT     H241388   5.471   8.239   3.066
13716WAT      O41389   1.696   2.311   5.749
13716WAT     H141390   1.691   2.322   5.848
13716WAT     H241391   1.678   2.399   5.705
13717WAT      O41392   6.472   9.730   5.014
13717WAT     H141393   6.471   9.631   5.002
13717WAT     H241394   6.437   9.774   4.931
13718WAT      O41395   2.843   1.500   3.465
13718WAT     H141396   2.811   1.448   3.385
13718WAT     H241397   2.778   1.486   3.541
13719WAT      O41398   4.648   3.946   7.567
13719WAT     H141399   4.566   3.902   7.603
13719WAT     H241400   4.629   4.043   7.552
13720WAT      O41401   8.263   9.269   9.670
13720WAT     H141402   8.259   9.234   9.577
13720WAT     H241403   8.317   9.207   9.727
13721WAT      O41404   3.722   1.925   7.099
13721WAT     H141405   3.696   1.879   7.184
13721WAT     H241406   3.672   1.885   7.022
13722WAT      O41407   7.981   7.164   5.729
13722WAT     H141408   7.989   7.087   5.792
13722WAT     H241409   7.987   7.130   5.635
13723WAT      O41410   1.544   0.405   8.383
13723WAT     H141411   1.536   0.378   8.479
13723WAT     H241412   1.488   0.486   8.366
13724WAT      O41413   1.013   1.176   3.343
13724WAT     H141414   1.014   1.261   3.397
13724WAT     H241415   0.957   1.189   3.262
13725WAT      O41416   5.574   7.044   4.566
13725WAT     H141417   5.550   7.057   4.470
13725WAT     H241418   5.637   7.117   4.595
13726WAT      O41419   0.337   7.855   8.767
13726WAT     H141420   0.329   7.941   8.718
13726WAT     H241421   0.247   7.827   8.800
13727WAT      O41422   8.921   8.818   8.658
13727WAT     H141423   9.020   8.809   8.643
13727WAT     H241424   8.906   8.861   8.747
13728WAT      O41425   0.271   8.474   1.461
13728WAT     H141426   0.300   8.563   1.497
13728WAT     H241427   0.310   8.401   1.517
13729WAT      O41428   4.754   7.562   7.159
13729WAT     H141429   4.804   7.640   7.197
13729WAT     H241430   4.789   7.478   7.199
13730WAT      O41431   6.368   6.659   5.989
13730WAT     H141432   6.333   6.608   6.068
13730WAT     H241433   6.306   6.734   5.968
13731WAT      O41434   7.754   9.765   6.514
13731WAT     H141435   7.707   9.839   6.464
13731WAT     H241436   7.689   9.720   6.575
13732WAT      O41437   7.731   1.014   8.183
13732WAT     H141438   7.745   0.995   8.280
13732WAT     H241439   7.694   0.932   8.139
13733WAT      O41440   7.475   3.990   6.076
13733WAT     H141441   7.573   4.003   6.060
13733WAT     H241442   7.441   3.918   6.015
13734WAT      O41443   3.291   3.374   0.883
13734WAT     H141444   3.351   3.369   0.804
13734WAT     H241445   3.346   3.375   0.967
13735WAT      O41446   5.056   8.246   7.451
13735WAT     H141447   5.156   8.240   7.456
13735WAT     H241448   5.030   8.335   7.412
13736WAT      O41449   3.321   6.291   7.468
13736WAT     H141450   3.278   6.201   7.473
13736WAT     H241451   3.398   6.294   7.533
13737WAT      O41452   1.066   9.122   4.495
13737WAT     H141453   1.036   9.027   4.487
13737WAT     H241454   1.115   9.135   4.581
13738WAT      O41455   7.012   1.788   5.390
13738WAT     H141456   7.036   1.850   5.464
13738WAT     H241457   7.095   1.750   5.350
13739WAT      O41458   6.409   2.124   6.251
13739WAT     H141459   6.310   2.117   6.264
13739WAT     H241460   6.455   2.124   6.340
13740WAT      O41461   2.884   3.175   9.810
13740WAT     H141462   2.968   3.120   9.807
13740WAT     H241463   2.809   3.123   9.770
13741WAT      O41464   1.808   2.754   4.252
13741WAT     H141465   1.741   2.745   4.326
13741WAT     H241466   1.814   2.667   4.203
13742WAT      O41467   6.710   1.241   1.652
13742WAT     H141468   6.664   1.217   1.566
13742WAT     H241469   6.808   1.250   1.635
13743WAT      O41470   1.162   1.010   8.213
13743WAT     H141471   1.120   0.921   8.230
13743WAT     H241472   1.168   1.026   8.115
13744WAT      O41473   7.894   4.686   7.302
13744WAT     H141474   7.940   4.619   7.361
13744WAT     H241475   7.906   4.778   7.340
13745WAT      O41476   3.231   3.431   2.338
13745WAT     H141477   3.185   3.342   2.338
13745WAT     H241478   3.328   3.419   2.318
13746WAT      O41479   0.560   0.749   5.530
13746WAT     H141480   0.610   0.663   5.542
13746WAT     H241481   0.468   0.740   5.569
13747WAT      O41482   3.704   8.617   2.010
13747WAT     H141483   3.629   8.557   1.982
13747WAT     H241484   3.784   8.561   2.032
13748WAT      O41485   7.825   4.336   3.312
13748WAT     H141486   7.916   4.329   3.273
13748WAT     H241487   7.799   4.248   3.352
13749WAT      O41488   6.556   7.882   7.337
13749WAT     H141489   6.602   7.801   7.300
13749WAT     H241490   6.579   7.961   7.281
13750WAT      O41491   9.171   3.314   8.500
13750WAT     H141492   9.175   3.412   8.520
13750WAT     H241493   9.196   3.299   8.404
13751WAT      O41494   3.331   5.668   6.201
13751WAT     H141495   3.415   5.679   6.148
13751WAT     H241496   3.337   5.586   6.257
13752WAT      O41497   3.922   8.477   2.129
13752WAT     H141498   3.900   8.387   2.093
13752WAT     H241499   3.880   8.488   2.219
13753WAT      O41500   6.857   4.208   8.632
13753WAT     H141501   6.851   4.125   8.687
13753WAT     H241502   6.793   4.202   8.555
13754WAT      O41503   4.038   7.495   2.456
13754WAT     H141504   4.094   7.508   2.374
13754WAT     H241505   4.044   7.400   2.486
13755WAT      O41506   1.330   3.460   8.749
13755WAT     H141507   1.296   3.541   8.700
13755WAT     H241508   1.358   3.486   8.842
13756WAT      O41509   0.848   0.447   0.305
13756WAT     H141510   0.790   0.509   0.357
13756WAT     H241511   0.791   0.384   0.253
13757WAT      O41512   9.558   8.430   3.150
13757WAT     H141513   9.497   8.418   3.228
13757WAT     H241514   9.650   8.400   3.175
13758WAT      O41515   4.613   3.564   9.691
13758WAT     H141516   4.651   3.475   9.667
13758WAT     H241517   4.680   3.636   9.674
13759WAT      O41518   7.134   7.747   9.623
13759WAT     H141519   7.214   7.717   9.676
13759WAT     H241520   7.052   7.741   9.681
13760WAT      O41521   1.267   9.712   6.210
13760WAT     H141522   1.359   9.742   6.188
13760WAT     H241523   1.240   9.638   6.149
13761WAT      O41524   9.459   3.461   4.606
13761WAT     H141525   9.481   3.480   4.510
13761WAT     H241526   9.469   3.546   4.659
13762WAT      O41527   0.810   9.394   5.760
13762WAT     H141528   0.747   9.392   5.837
13762WAT     H241529   0.789   9.472   5.702
13763WAT      O41530   8.735   8.148   8.951
13763WAT     H141531   8.709   8.235   8.991
13763WAT     H241532   8.795   8.098   9.015
13764WAT      O41533   9.255   8.726   8.946
13764WAT     H141534   9.291   8.802   8.892
13764WAT     H241535   9.230   8.651   8.886
13765WAT      O41536   5.403   6.568   4.334
13765WAT     H141537   5.470   6.546   4.405
13765WAT     H241538   5.312   6.539   4.364
13766WAT      O41539   5.902   8.365   4.429
13766WAT     H141540   5.959   8.394   4.352
13766WAT     H241541   5.891   8.442   4.492
13767WAT      O41542   2.974   8.289   3.187
13767WAT     H141543   2.888   8.242   3.210
13767WAT     H241544   2.960   8.388   3.193
13768WAT      O41545   0.788   8.312   8.256
13768WAT     H141546   0.762   8.279   8.347
13768WAT     H241547   0.726   8.273   8.188
13769WAT      O41548   4.731   3.119   4.018
13769WAT     H141549   4.709   3.209   4.055
13769WAT     H241550   4.720   3.121   3.918
13770WAT      O41551   3.901   9.069   3.502
13770WAT     H141552   3.851   9.094   3.419
13770WAT     H241553   3.998   9.091   3.491
13771WAT      O41554   9.803   7.474   7.236
13771WAT     H141555   9.853   7.512   7.158
13771WAT     H241556   9.867   7.421   7.293
13772WAT      O41557   2.160   8.866   4.284
13772WAT     H141558   2.212   8.781   4.283
13772WAT     H241559   2.213   8.939   4.242
13773WAT      O41560   4.539   4.372   5.504
13773WAT     H141561   4.599   4.434   5.555
13773WAT     H241562   4.487   4.425   5.436
13774WAT      O41563   3.713   0.849   6.486
13774WAT     H141564   3.645   0.910   6.445
13774WAT     H241565   3.764   0.898   6.556
13775WAT      O41566   3.109   5.650   7.615
13775WAT     H141567   3.082   5.556   7.639
13775WAT     H241568   3.085   5.711   7.690
13776WAT      O41569   4.804   7.440   4.303
13776WAT     H141570   4.888   7.462   4.253
13776WAT     H241571   4.802   7.342   4.322
13777WAT      O41572   1.176   7.741   9.069
13777WAT     H141573   1.163   7.744   9.168
13777WAT     H241574   1.180   7.646   9.039
13778WAT      O41575   5.913   2.371   7.972
13778WAT     H141576   5.836   2.427   7.941
13778WAT     H241577   5.943   2.312   7.898
13779WAT      O41578   4.313   0.522   4.523
13779WAT     H141579   4.309   0.460   4.445
13779WAT     H241580   4.380   0.488   4.589
13780WAT      O41581   8.720   0.912   0.644
13780WAT     H141582   8.641   0.938   0.588
13780WAT     H241583   8.798   0.969   0.621
13781WAT      O41584   6.572   3.989   6.343
13781WAT     H141585   6.580   4.085   6.369
13781WAT     H241586   6.506   3.980   6.268
13782WAT      O41587   0.311   4.515   7.567
13782WAT     H141588   0.379   4.462   7.618
13782WAT     H241589   0.287   4.465   7.484
13783WAT      O41590   2.327   5.382   6.471
13783WAT     H141591   2.425   5.393   6.489
13783WAT     H241592   2.312   5.376   6.372
13784WAT      O41593   0.083   2.656   4.292
13784WAT     H141594   0.142   2.579   4.264
13784WAT     H241595   0.140   2.731   4.326
13785WAT      O41596   1.338   0.703   1.428
13785WAT     H141597   1.294   0.724   1.515
13785WAT     H241598   1.437   0.692   1.442
13786WAT      O41599   3.980   0.468   4.287
13786WAT     H141600   3.979   0.375   4.325
13786WAT     H241601   3.913   0.475   4.213
13787WAT      O41602   0.356   1.681   4.642
13787WAT     H141603   0.353   1.584   4.666
13787WAT     H241604   0.437   1.723   4.681
13788WAT      O41605   8.276   3.940   0.691
13788WAT     H141606   8.281   4.034   0.660
13788WAT     H241607   8.218   3.935   0.773
13789WAT      O41608   2.135   4.285   7.309
13789WAT     H141609   2.213   4.341   7.340
13789WAT     H241610   2.153   4.252   7.216
13790WAT      O41611   2.226   2.560   0.834
13790WAT     H141612   2.241   2.610   0.919
13790WAT     H241613   2.307   2.564   0.777
13791WAT      O41614   1.884   4.476   0.714
13791WAT     H141615   1.888   4.397   0.775
13791WAT     H241616   1.970   4.484   0.664
13792WAT      O41617   1.612   8.455   6.615
13792WAT     H141618   1.609   8.539   6.667
13792WAT     H241619   1.546   8.460   6.539
13793WAT      O41620   0.931   4.584   4.962
13793WAT     H141621   0.975   4.521   4.899
13793WAT     H241622   0.856   4.537   5.009
13794WAT      O41623   2.190   0.667   8.450
13794WAT     H141624   2.123   0.600   8.418
13794WAT     H241625   2.240   0.703   8.371
13795WAT      O41626   4.453   8.688   5.469
13795WAT     H141627   4.506   8.728   5.544
13795WAT     H241628   4.478   8.592   5.458
13796WAT      O41629   0.796   6.379   1.678
13796WAT     H141630   0.893   6.363   1.663
13796WAT     H241631   0.777   6.381   1.776
13797WAT      O41632   5.229   6.298   8.976
13797WAT     H141633   5.222   6.346   9.064
13797WAT     H241634   5.264   6.206   8.991
13798WAT      O41635   6.402   2.436   5.239
13798WAT     H141636   6.485   2.393   5.273
13798WAT     H241637   6.323   2.401   5.289
13799WAT      O41638   8.354   9.617   5.705
13799WAT     H141639   8.341   9.524   5.739
13799WAT     H241640   8.365   9.615   5.606
13800WAT      O41641   2.852   5.154   9.656
13800WAT     H141642   2.855   5.059   9.685
13800WAT     H241643   2.760   5.177   9.624
13801WAT      O41644   4.639   9.559   4.076
13801WAT     H141645   4.647   9.584   3.980
13801WAT     H241646   4.665   9.463   4.087
13802WAT      O41647   6.061   9.304   8.670
13802WAT     H141648   6.133   9.237   8.655
13802WAT     H241649   6.102   9.396   8.672
13803WAT      O41650   5.991   5.814   2.336
13803WAT     H141651   6.057   5.743   2.357
13803WAT     H241652   5.988   5.829   2.237
13804WAT      O41653   2.168   6.786   1.763
13804WAT     H141654   2.112   6.804   1.682
13804WAT     H241655   2.248   6.732   1.738
13805WAT      O41656   4.109   8.648   2.736
13805WAT     H141657   4.136   8.609   2.648
13805WAT     H241658   4.190   8.677   2.786
13806WAT      O41659   1.806   6.292   2.755
13806WAT     H141660   1.710   6.282   2.732
13806WAT     H241661   1.839   6.208   2.799
13807WAT      O41662   9.630   0.316   6.437
13807WAT     H141663   9.647   0.276   6.347
13807WAT     H241664   9.711   0.366   6.467
13808WAT      O41665   2.323   1.976   8.996
13808WAT     H141666   2.394   1.913   9.029
13808WAT     H241667   2.364   2.064   8.973
13809WAT      O41668   2.687   8.238   6.210
13809WAT     H141669   2.653   8.165   6.269
13809WAT     H241670   2.772   8.274   6.249
13810WAT      O41671   8.188   4.921   9.129
13810WAT     H141672   8.195   5.021   9.132
13810WAT     H241673   8.163   4.893   9.036
13811WAT      O41674   5.863   0.065   6.702
13811WAT     H141675   5.896   0.077   6.796
13811WAT     H241676   5.836  -0.030   6.689
13812WAT      O41677   2.510   4.510   1.625
13812WAT     H141678   2.580   4.575   1.653
13812WAT     H241679   2.500   4.513   1.525
13813WAT      O41680   8.115   4.625   7.778
13813WAT     H141681   8.051   4.551   7.801
13813WAT     H241682   8.177   4.594   7.706
13814WAT      O41683   1.546   9.055   9.679
13814WAT     H141684   1.636   9.098   9.694
13814WAT     H241685   1.477   9.103   9.733
13815WAT      O41686   9.608   1.011   8.559
13815WAT     H141687   9.537   0.942   8.572
13815WAT     H241688   9.619   1.065   8.642
13816WAT      O41689   5.635   6.700   3.579
13816WAT     H141690   5.634   6.608   3.620
13816WAT     H241691   5.609   6.767   3.649
13817WAT      O41692   0.389   8.654   3.304
13817WAT     H141693   0.308   8.702   3.269
13817WAT     H241694   0.383   8.557   3.281
13818WAT      O41695   0.990   5.171   4.287
13818WAT     H141696   1.069   5.133   4.336
13818WAT     H241697   1.018   5.253   4.237
13819WAT      O41698   8.245   1.567   6.415
13819WAT     H141699   8.244   1.667   6.423
13819WAT     H241700   8.151   1.534   6.405
13820WAT      O41701   0.634   2.836   0.945
13820WAT     H141702   0.547   2.820   0.897
13820WAT     H241703   0.675   2.921   0.912
13821WAT      O41704   1.498   5.497   3.532
13821WAT     H141705   1.440   5.574   3.559
13821WAT     H241706   1.587   5.530   3.502
13822WAT      O41707   6.565   4.194   4.504
13822WAT     H141708   6.532   4.112   4.551
13822WAT     H241709   6.590   4.170   4.410
13823WAT      O41710   4.972   2.262   1.487
13823WAT     H141711   4.947   2.354   1.517
13823WAT     H241712   4.892   2.202   1.494
13824WAT      O41713   4.605   3.273   2.010
13824WAT     H141714   4.680   3.212   2.036
13824WAT     H241715   4.554   3.233   1.934
13825WAT      O41716   0.951   4.636   0.987
13825WAT     H141717   0.986   4.601   0.900
13825WAT     H241718   0.949   4.735   0.984
13826WAT      O41719   0.681   8.088   1.312
13826WAT     H141720   0.607   8.147   1.343
13826WAT     H241721   0.765   8.109   1.362
13827WAT      O41722   8.406   9.494   7.321
13827WAT     H141723   8.344   9.564   7.286
13827WAT     H241724   8.429   9.431   7.248
13828WAT      O41725   1.296   6.332   3.350
13828WAT     H141726   1.323   6.285   3.435
13828WAT     H241727   1.376   6.343   3.292
13829WAT      O41728   1.873   8.161   6.739
13829WAT     H141729   1.892   8.160   6.838
13829WAT     H241730   1.838   8.072   6.711
13830WAT      O41731   4.987   6.866   0.197
13830WAT     H141732   4.983   6.882   0.098
13830WAT     H241733   5.070   6.909   0.234
13831WAT      O41734   6.757   5.965   4.309
13831WAT     H141735   6.811   5.994   4.229
13831WAT     H241736   6.794   6.008   4.391
13832WAT      O41737   2.019   0.086   1.400
13832WAT     H141738   2.026   0.016   1.329
13832WAT     H241739   2.055   0.051   1.486
13833WAT      O41740   1.952   3.745   9.280
13833WAT     H141741   1.954   3.842   9.256
13833WAT     H241742   1.858   3.712   9.274
13834WAT      O41743   6.367   6.887   1.564
13834WAT     H141744   6.304   6.962   1.582
13834WAT     H241745   6.346   6.810   1.625
13835WAT      O41746   2.615   0.616   5.242
13835WAT     H141747   2.525   0.577   5.263
13835WAT     H241748   2.608   0.679   5.165
13836WAT      O41749   2.410   1.975   8.311
13836WAT     H141750   2.320   1.966   8.352
13836WAT     H241751   2.448   1.885   8.293
13837WAT      O41752   3.896   2.140   5.643
13837WAT     H141753   3.906   2.229   5.688
13837WAT     H241754   3.973   2.126   5.581
13838WAT      O41755   5.374   4.439   6.744
13838WAT     H141756   5.294   4.496   6.765
13838WAT     H241757   5.346   4.343   6.739
13839WAT      O41758   8.435   4.293   8.291
13839WAT     H141759   8.480   4.371   8.334
13839WAT     H241760   8.350   4.323   8.248
13840WAT      O41761   6.610   0.554   0.397
13840WAT     H141762   6.547   0.477   0.396
13840WAT     H241763   6.559   0.639   0.412
13841WAT      O41764   2.106   1.907   1.110
13841WAT     H141765   2.132   1.999   1.137
13841WAT     H241766   2.016   1.909   1.065
13842WAT      O41767   9.663   8.445   0.961
13842WAT     H141768   9.623   8.395   1.039
13842WAT     H241769   9.761   8.426   0.956
13843WAT      O41770   5.525   6.809   4.732
13843WAT     H141771   5.518   6.736   4.664
13843WAT     H241772   5.553   6.893   4.687
13844WAT      O41773   5.356   7.742   8.252
13844WAT     H141774   5.333   7.703   8.163
13844WAT     H241775   5.407   7.675   8.306
13845WAT      O41776   7.293   6.053   7.818
13845WAT     H141777   7.304   6.115   7.895
13845WAT     H241778   7.358   6.079   7.745
13846WAT      O41779   6.216   8.268   9.446
13846WAT     H141780   6.246   8.239   9.355
13846WAT     H241781   6.132   8.320   9.439
13847WAT      O41782   6.773   2.733   0.105
13847WAT     H141783   6.775   2.723   0.205
13847WAT     H241784   6.741   2.824   0.082
13848WAT      O41785   2.675   5.160   5.706
13848WAT     H141786   2.658   5.062   5.716
13848WAT     H241787   2.648   5.191   5.615
13849WAT      O41788   2.644   8.195   8.614
13849WAT     H141789   2.634   8.119   8.678
13849WAT     H241790   2.729   8.244   8.634
13850WAT      O41791   0.601   4.770   7.435
13850WAT     H141792   0.689   4.754   7.480
13850WAT     H241793   0.613   4.760   7.336
13851WAT      O41794   3.130   2.098   0.917
13851WAT     H141795   3.226   2.124   0.907
13851WAT     H241796   3.114   2.061   1.008
13852WAT      O41797   6.888   6.625   2.723
13852WAT     H141798   6.812   6.572   2.761
13852WAT     H241799   6.886   6.619   2.623
13853WAT      O41800   7.818   2.977   7.213
13853WAT     H141801   7.755   2.903   7.187
13853WAT     H241802   7.766   3.057   7.242
13854WAT      O41803   8.551   3.876   9.804
13854WAT     H141804   8.605   3.863   9.721
13854WAT     H241805   8.599   3.938   9.865
13855WAT      O41806   5.929   1.798   1.170
13855WAT     H141807   5.959   1.721   1.113
13855WAT     H241808   6.003   1.865   1.176
13856WAT      O41809   4.312   3.094   1.414
13856WAT     H141810   4.226   3.047   1.394
13856WAT     H241811   4.374   3.031   1.461
13857WAT      O41812   5.879   4.166   6.006
13857WAT     H141813   5.921   4.103   5.940
13857WAT     H241814   5.783   4.143   6.018
13858WAT      O41815   3.041   5.671   2.870
13858WAT     H141816   3.028   5.750   2.811
13858WAT     H241817   3.016   5.693   2.964
13859WAT      O41818   1.134   9.055   9.691
13859WAT     H141819   1.186   9.139   9.706
13859WAT     H241820   1.064   9.046   9.762
13860WAT      O41821   4.158   6.020   6.237
13860WAT     H141822   4.126   5.953   6.304
13860WAT     H241823   4.079   6.067   6.197
13861WAT      O41824   9.689   9.754   9.802
13861WAT     H141825   9.627   9.720   9.732
13861WAT     H241826   9.676   9.852   9.814
13862WAT      O41827   8.500   2.173   3.052
13862WAT     H141828   8.450   2.139   3.132
13862WAT     H241829   8.447   2.154   2.969
13863WAT      O41830   8.525   6.529   1.069
13863WAT     H141831   8.463   6.450   1.073
13863WAT     H241832   8.610   6.508   1.116
13864WAT      O41833   0.458   2.986   8.473
13864WAT     H141834   0.410   2.902   8.449
13864WAT     H241835   0.555   2.977   8.450
13865WAT      O41836   9.241   9.176   0.587
13865WAT     H141837   9.244   9.225   0.674
13865WAT     H241838   9.268   9.237   0.513
13866WAT      O41839   5.676   8.949   0.819
13866WAT     H141840   5.660   8.980   0.913
13866WAT     H241841   5.604   8.885   0.792
13867WAT      O41842   0.300   9.820   2.906
13867WAT     H141843   0.384   9.860   2.868
13867WAT     H241844   0.315   9.723   2.922
13868WAT      O41845   2.657   2.100   2.716
13868WAT     H141846   2.711   2.146   2.646
13868WAT     H241847   2.560   2.108   2.695
13869WAT      O41848   4.996   4.060   4.173
13869WAT     H141849   4.906   4.079   4.211
13869WAT     H241850   5.050   4.008   4.239
13870WAT      O41851   5.066   0.893   4.709
13870WAT     H141852   5.164   0.912   4.705
13870WAT     H241853   5.025   0.946   4.783
13871WAT      O41854   5.696   2.798   4.796
13871WAT     H141855   5.604   2.784   4.759
13871WAT     H241856   5.701   2.886   4.841
13872WAT      O41857   7.282   5.245   5.123
13872WAT     H141858   7.282   5.193   5.208
13872WAT     H241859   7.304   5.184   5.047
13873WAT      O41860   7.397   6.329   2.299
13873WAT     H141861   7.479   6.306   2.352
13873WAT     H241862   7.373   6.425   2.317
13874WAT      O41863   9.045   7.986   6.240
13874WAT     H141864   8.975   8.054   6.261
13874WAT     H241865   9.086   8.005   6.151
13875WAT      O41866   5.251   5.288   8.337
13875WAT     H141867   5.244   5.214   8.404
13875WAT     H241868   5.177   5.354   8.352
13876WAT      O41869   7.877   0.578   4.510
13876WAT     H141870   7.910   0.572   4.416
13876WAT     H241871   7.941   0.530   4.571
13877WAT      O41872   3.788   8.332   3.812
13877WAT     H141873   3.835   8.325   3.724
13877WAT     H241874   3.715   8.263   3.816
13878WAT      O41875   7.478   5.525   9.335
13878WAT     H141876   7.446   5.534   9.429
13878WAT     H241877   7.551   5.457   9.331
13879WAT      O41878   3.882   4.172   8.032
13879WAT     H141879   3.945   4.106   8.074
13879WAT     H241880   3.793   4.128   8.019
13880WAT      O41881   9.300   5.575   8.115
13880WAT     H141882   9.280   5.609   8.023
13880WAT     H241883   9.317   5.476   8.111
13881WAT      O41884   8.903   8.876   5.458
13881WAT     H141885   8.891   8.808   5.385
13881WAT     H241886   8.814   8.900   5.496
13882WAT      O41887   4.679   3.738   5.449
13882WAT     H141888   4.596   3.793   5.441
13882WAT     H241889   4.687   3.678   5.368
13883WAT      O41890   1.803   9.504   4.335
13883WAT     H141891   1.765   9.426   4.385
13883WAT     H241892   1.735   9.540   4.271
13884WAT      O41893   6.424   6.210   6.801
13884WAT     H141894   6.379   6.222   6.712
13884WAT     H241895   6.437   6.299   6.844
13885WAT      O41896   4.411   1.668   3.928
13885WAT     H141897   4.447   1.677   3.835
13885WAT     H241898   4.412   1.758   3.973
13886WAT      O41899   4.287   5.305   0.421
13886WAT     H141900   4.334   5.219   0.405
13886WAT     H241901   4.252   5.308   0.515
13887WAT      O41902   0.776   2.384   4.099
13887WAT     H141903   0.746   2.289   4.106
13887WAT     H241904   0.730   2.429   4.023
13888WAT      O41905   7.770   8.678   5.509
13888WAT     H141906   7.746   8.759   5.456
13888WAT     H241907   7.852   8.697   5.564
13889WAT      O41908   9.426   1.251   0.029
13889WAT     H141909   9.371   1.319  -0.020
13889WAT     H241910   9.522   1.263   0.007
13890WAT      O41911   1.079   4.006   9.615
13890WAT     H141912   1.035   4.003   9.704
13890WAT     H241913   1.177   4.024   9.627
13891WAT      O41914   2.487   6.892   6.018
13891WAT     H141915   2.507   6.893   5.920
13891WAT     H241916   2.408   6.951   6.037
13892WAT      O41917   9.624   4.101   9.688
13892WAT     H141918   9.538   4.055   9.707
13892WAT     H241919   9.633   4.116   9.590
13893WAT      O41920   6.602   9.734   8.731
13893WAT     H141921   6.687   9.736   8.679
13893WAT     H241922   6.617   9.687   8.818
13894WAT      O41923   7.392   8.931   2.888
13894WAT     H141924   7.412   8.923   2.986
13894WAT     H241925   7.301   8.892   2.870
13895WAT      O41926   2.707   6.538   2.321
13895WAT     H141927   2.801   6.523   2.290
13895WAT     H241928   2.671   6.452   2.360
13896WAT      O41929   3.291   4.799   4.466
13896WAT     H141930   3.260   4.827   4.375
13896WAT     H241931   3.268   4.871   4.532
13897WAT      O41932   0.562   9.736   9.038
13897WAT     H141933   0.475   9.785   9.034
13897WAT     H241934   0.562   9.663   8.970
13898WAT      O41935   8.983   4.555   1.552
13898WAT     H141936   8.938   4.492   1.489
13898WAT     H241937   8.917   4.625   1.581
13899WAT      O41938   0.046   8.939   3.004
13899WAT     H141939   0.092   8.928   2.916
13899WAT     H241940  -0.040   8.988   2.992
13900WAT      O41941   2.756   0.889   8.015
13900WAT     H141942   2.801   0.914   8.101
13900WAT     H241943   2.757   0.790   8.004
13901WAT      O41944   4.706   6.147   8.719
13901WAT     H141945   4.692   6.094   8.636
13901WAT     H241946   4.621   6.149   8.772
13902WAT      O41947   7.649   1.083   6.929
13902WAT     H141948   7.581   1.149   6.896
13902WAT     H241949   7.684   1.031   6.852
13903WAT      O41950   0.701   8.608   5.860
13903WAT     H141951   0.715   8.678   5.930
13903WAT     H241952   0.784   8.553   5.851
13904WAT      O41953   8.793   1.779   3.737
13904WAT     H141954   8.724   1.758   3.806
13904WAT     H241955   8.818   1.876   3.743
13905WAT      O41956   2.558   8.131   7.997
13905WAT     H141957   2.653   8.150   7.971
13905WAT     H241958   2.498   8.199   7.956
13906WAT      O41959   0.670   4.880   3.482
13906WAT     H141960   0.736   4.948   3.514
13906WAT     H241961   0.585   4.889   3.534
13907WAT      O41962   1.712   3.592   2.508
13907WAT     H141963   1.620   3.616   2.539
13907WAT     H241964   1.729   3.632   2.418
13908WAT      O41965   0.218   0.214   8.639
13908WAT     H141966   0.154   0.211   8.716
13908WAT     H241967   0.217   0.305   8.598
13909WAT      O41968   0.823   8.001   2.641
13909WAT     H141969   0.882   7.972   2.717
13909WAT     H241970   0.877   8.006   2.557
13910WAT      O41971   2.932   0.277   6.953
13910WAT     H141972   2.970   0.187   6.976
13910WAT     H241973   2.832   0.270   6.948
13911WAT      O41974   8.985   3.628   2.270
13911WAT     H141975   8.958   3.546   2.219
13911WAT     H241976   8.918   3.646   2.342
13912WAT      O41977   0.088   6.201   0.318
13912WAT     H141978   0.139   6.139   0.258
13912WAT     H241979   0.139   6.216   0.402
13913WAT      O41980   5.806   0.263   2.931
13913WAT     H141981   5.859   0.293   3.010
13913WAT     H241982   5.743   0.336   2.903
13914WAT      O41983   4.055   6.281   4.570
13914WAT     H141984   4.008   6.265   4.483
13914WAT     H241985   4.154   6.288   4.553
13915WAT      O41986   8.854   3.786   6.891
13915WAT     H141987   8.838   3.691   6.918
13915WAT     H241988   8.947   3.813   6.916
13916WAT      O41989   9.703   6.404   2.399
13916WAT     H141990   9.646   6.322   2.390
13916WAT     H241991   9.726   6.418   2.495
13917WAT      O41992   1.852   3.286   2.922
13917WAT     H141993   1.759   3.250   2.923
13917WAT     H241994   1.856   3.367   2.865
13918WAT      O41995   6.393   9.368   8.211
13918WAT     H141996   6.481   9.358   8.164
13918WAT     H241997   6.390   9.305   8.288
13919WAT      O41998   1.774   0.807   3.598
13919WAT     H141999   1.789   0.805   3.697
13919WAT     H242000   1.761   0.902   3.568
13920WAT      O42001   9.466   2.758   7.084
13920WAT     H142002   9.450   2.751   7.182
13920WAT     H242003   9.564   2.756   7.066
13921WAT      O42004   4.791   7.948   7.001
13921WAT     H142005   4.715   7.884   6.986
13921WAT     H242006   4.828   7.934   7.092
13922WAT      O42007   2.990   3.454   6.341
13922WAT     H142008   2.941   3.499   6.416
13922WAT     H242009   3.077   3.501   6.325
13923WAT      O42010   5.861   0.954   6.277
13923WAT     H142011   5.880   0.987   6.369
13923WAT     H242012   5.895   0.860   6.268
13924WAT      O42013   0.244   7.239   8.846
13924WAT     H142014   0.233   7.183   8.928
13924WAT     H242015   0.341   7.250   8.826
13925WAT      O42016   3.884   3.824   1.773
13925WAT     H142017   3.851   3.804   1.865
13925WAT     H242018   3.932   3.744   1.736
13926WAT      O42019   3.760   1.090   8.641
13926WAT     H142020   3.727   1.158   8.706
13926WAT     H242021   3.763   1.000   8.684
13927WAT      O42022   5.230   5.312   0.072
13927WAT     H142023   5.135   5.300   0.100
13927WAT     H242024   5.233   5.366  -0.012
13928WAT      O42025   1.312   0.293   2.691
13928WAT     H142026   1.298   0.307   2.789
13928WAT     H242027   1.367   0.369   2.654
13929WAT      O42028   8.436   5.090   7.818
13929WAT     H142029   8.349   5.137   7.832
13929WAT     H242030   8.428   4.995   7.846
13930WAT      O42031   8.087   5.094   7.731
13930WAT     H142032   8.106   5.057   7.822
13930WAT     H242033   8.105   5.192   7.731
13931WAT      O42034   0.311   8.567   4.393
13931WAT     H142035   0.355   8.656   4.386
13931WAT     H242036   0.229   8.574   4.449
13932WAT      O42037   8.023   5.398   0.996
13932WAT     H142038   8.073   5.333   0.938
13932WAT     H242039   8.059   5.395   1.089
13933WAT      O42040   3.445   9.483   0.071
13933WAT     H142041   3.388   9.528   0.002
13933WAT     H242042   3.535   9.462   0.032
13934WAT      O42043   9.555   4.677   4.050
13934WAT     H142044   9.569   4.697   3.953
13934WAT     H242045   9.566   4.761   4.104
13935WAT      O42046   3.140   8.222   4.876
13935WAT     H142047   3.163   8.190   4.968
13935WAT     H242048   3.199   8.299   4.851
13936WAT      O42049   0.476   9.376   0.781
13936WAT     H142050   0.565   9.340   0.808
13936WAT     H242051   0.413   9.371   0.859
13937WAT      O42052   5.272   0.209   2.681
13937WAT     H142053   5.199   0.140   2.688
13937WAT     H242054   5.340   0.191   2.752
13938WAT      O42055   0.157   5.169   5.021
13938WAT     H142056   0.098   5.213   4.953
13938WAT     H242057   0.251   5.164   4.985
13939WAT      O42058   8.236   9.838   0.490
13939WAT     H142059   8.241   9.865   0.394
13939WAT     H242060   8.293   9.758   0.506
13940WAT      O42061   9.041   6.601   4.114
13940WAT     H142062   9.018   6.548   4.033
13940WAT     H242063   9.119   6.661   4.094
13941WAT      O42064   6.654   7.651   2.930
13941WAT     H142065   6.580   7.630   2.993
13941WAT     H242066   6.739   7.665   2.982
13942WAT      O42067   3.006   7.850   9.437
13942WAT     H142068   3.060   7.861   9.521
13942WAT     H242069   3.040   7.913   9.367
13943WAT      O42070   3.155   3.669   6.507
13943WAT     H142071   3.243   3.714   6.498
13943WAT     H242072   3.122   3.676   6.601
13944WAT      O42073   3.455   9.655   1.101
13944WAT     H142074   3.378   9.653   1.165
13944WAT     H242075   3.424   9.622   1.012
13945WAT      O42076   8.951   7.569   2.445
13945WAT     H142077   8.866   7.617   2.466
13945WAT     H242078   9.001   7.619   2.374
13946WAT      O42079   6.390   7.647   8.136
13946WAT     H142080   6.322   7.676   8.068
13946WAT     H242081   6.470   7.611   8.089
13947WAT      O42082   7.116   4.598   8.610
13947WAT     H142083   7.187   4.535   8.580
13947WAT     H242084   7.122   4.684   8.558
13948WAT      O42085   1.766   7.843   8.577
13948WAT     H142086   1.742   7.895   8.494
13948WAT     H242087   1.817   7.761   8.552
13949WAT      O42088   9.701   7.577   3.787
13949WAT     H142089   9.650   7.656   3.819
13949WAT     H242090   9.701   7.506   3.857
13950WAT      O42091   1.598   9.204   0.930
13950WAT     H142092   1.631   9.238   0.842
13950WAT     H242093   1.601   9.278   0.998
13951WAT      O42094   4.944   5.034   1.602
13951WAT     H142095   4.946   5.027   1.502
13951WAT     H242096   4.990   4.954   1.642
13952WAT      O42097   7.673   9.091   7.984
13952WAT     H142098   7.749   9.126   8.039
13952WAT     H242099   7.709   9.038   7.907
13953WAT      O42100   1.834   8.353   9.315
13953WAT     H142101   1.915   8.328   9.262
13953WAT     H242102   1.755   8.303   9.281
13954WAT      O42103   8.591   7.107   2.559
13954WAT     H142104   8.538   7.051   2.495
13954WAT     H242105   8.539   7.190   2.582
13955WAT      O42106   7.528   2.279   0.812
13955WAT     H142107   7.482   2.346   0.753
13955WAT     H242108   7.461   2.238   0.874
13956WAT      O42109   0.096   4.160   1.910
13956WAT     H142110   0.119   4.100   1.833
13956WAT     H242111   0.115   4.255   1.885
13957WAT      O42112   0.823   6.524   7.095
13957WAT     H142113   0.792   6.614   7.125
13957WAT     H242114   0.744   6.472   7.061
13958WAT      O42115   6.885   0.784   8.175
13958WAT     H142116   6.980   0.784   8.207
13958WAT     H242117   6.823   0.797   8.253
13959WAT      O42118   9.696   1.450   5.208
13959WAT     H142119   9.641   1.412   5.134
13959WAT     H242120   9.659   1.540   5.233
13960WAT      O42121   7.984   1.895   7.705
13960WAT     H142122   7.976   1.946   7.790
13960WAT     H242123   8.071   1.917   7.660
13961WAT      O42124   8.902   8.494   0.357
13961WAT     H142125   8.878   8.536   0.269
13961WAT     H242126   8.847   8.535   0.429
13962WAT      O42127   9.676   5.986   1.508
13962WAT     H142128   9.687   6.085   1.523
13962WAT     H242129   9.650   5.942   1.594
13963WAT      O42130   3.166   5.647   3.433
13963WAT     H142131   3.265   5.633   3.440
13963WAT     H242132   3.148   5.732   3.383
13964WAT      O42133   0.623   7.021   6.524
13964WAT     H142134   0.533   7.064   6.515
13964WAT     H242135   0.693   7.082   6.488
13965WAT      O42136   3.362   3.177   6.537
13965WAT     H142137   3.281   3.123   6.518
13965WAT     H242138   3.339   3.253   6.597
13966WAT      O42139   2.128   3.250   5.972
13966WAT     H142140   2.072   3.324   6.008
13966WAT     H242141   2.224   3.278   5.970
13967WAT      O42142   5.105   6.274   7.009
13967WAT     H142143   5.086   6.371   6.992
13967WAT     H242144   5.176   6.266   7.079
13968WAT      O42145   0.948   6.297   0.826
13968WAT     H142146   0.964   6.205   0.791
13968WAT     H242147   0.865   6.334   0.785
13969WAT      O42148   4.362   8.461   1.890
13969WAT     H142149   4.388   8.410   1.971
13969WAT     H242150   4.264   8.481   1.893
13970WAT      O42151   8.068   6.324   0.287
13970WAT     H142152   8.091   6.380   0.367
13970WAT     H242153   7.991   6.366   0.238
13971WAT      O42154   4.013   6.282   7.822
13971WAT     H142155   3.987   6.375   7.846
13971WAT     H242156   4.045   6.280   7.727
13972WAT      O42157   1.907   7.194   2.447
13972WAT     H142158   1.821   7.168   2.492
13972WAT     H242159   1.984   7.155   2.499
13973WAT      O42160   2.547   2.068   6.450
13973WAT     H142161   2.579   2.079   6.356
13973WAT     H242162   2.557   1.972   6.477
13974WAT      O42163   9.622   0.796   4.362
13974WAT     H142164   9.559   0.768   4.290
13974WAT     H242165   9.621   0.729   4.436
13975WAT      O42166   5.353   9.256   3.308
13975WAT     H142167   5.314   9.257   3.216
13975WAT     H242168   5.282   9.236   3.375
13976WAT      O42169   7.373   1.147   6.692
13976WAT     H142170   7.352   1.061   6.738
13976WAT     H242171   7.355   1.138   6.594
13977WAT      O42172   2.321   8.281   3.975
13977WAT     H142173   2.394   8.334   3.933
13977WAT     H242174   2.337   8.183   3.959
13978WAT      O42175   5.754   4.241   1.417
13978WAT     H142176   5.749   4.147   1.383
13978WAT     H242177   5.837   4.252   1.472
13979WAT      O42178   7.735   0.519   7.679
13979WAT     H142179   7.732   0.567   7.592
13979WAT     H242180   7.693   0.429   7.668
13980WAT      O42181   6.621   7.504   5.998
13980WAT     H142182   6.561   7.469   6.070
13980WAT     H242183   6.595   7.463   5.911
13981WAT      O42184   4.034   3.983   8.165
13981WAT     H142185   4.120   3.941   8.135
13981WAT     H242186   4.052   4.041   8.245
13982WAT      O42187   5.810   3.121   6.345
13982WAT     H142188   5.856   3.171   6.419
13982WAT     H242189   5.820   3.171   6.259
13983WAT      O42190   4.553   0.979   2.608
13983WAT     H142191   4.538   0.969   2.707
13983WAT     H242192   4.647   0.955   2.586
13984WAT      O42193   2.415   8.593   1.300
13984WAT     H142194   2.415   8.612   1.202
13984WAT     H242195   2.378   8.501   1.317
13985WAT      O42196   8.799   1.816   2.763
13985WAT     H142197   8.860   1.766   2.825
13985WAT     H242198   8.762   1.752   2.696
13986WAT      O42199   3.449   1.794   6.739
13986WAT     H142200   3.514   1.868   6.724
13986WAT     H242201   3.360   1.833   6.762
13987WAT      O42202   6.573   9.645   8.247
13987WAT     H142203   6.576   9.590   8.163
13987WAT     H242204   6.533   9.590   8.321
13988WAT      O42205   6.938   1.714   5.048
13988WAT     H142206   6.965   1.782   4.980
13988WAT     H242207   6.864   1.751   5.105
13989WAT      O42208   8.692   2.251   8.516
13989WAT     H142209   8.743   2.170   8.545
13989WAT     H242210   8.663   2.241   8.421
13990WAT      O42211   7.652   0.647   2.637
13990WAT     H142212   7.589   0.723   2.650
13990WAT     H242213   7.660   0.625   2.540
13991WAT      O42214   1.080   6.155   6.861
13991WAT     H142215   1.007   6.086   6.857
13991WAT     H242216   1.164   6.112   6.894
13992WAT      O42217   8.811   4.604   5.797
13992WAT     H142218   8.728   4.637   5.753
13992WAT     H242219   8.843   4.673   5.863
13993WAT      O42220   2.271   2.690   3.198
13993WAT     H142221   2.270   2.727   3.105
13993WAT     H242222   2.230   2.599   3.198
13994WAT      O42223   2.840   0.597   7.709
13994WAT     H142224   2.752   0.562   7.740
13994WAT     H242225   2.882   0.651   7.782
13995WAT      O42226   3.896   3.510   2.484
13995WAT     H142227   3.875   3.417   2.513
13995WAT     H242228   3.826   3.572   2.520
13996WAT      O42229   6.193   3.258   1.596
13996WAT     H142230   6.159   3.238   1.688
13996WAT     H242231   6.130   3.321   1.551
13997WAT      O42232   1.214   4.306   9.753
13997WAT     H142233   1.118   4.278   9.743
13997WAT     H242234   1.222   4.404   9.736
13998WAT      O42235   6.363   5.124   7.106
13998WAT     H142236   6.358   5.092   7.201
13998WAT     H242237   6.321   5.055   7.046
13999WAT      O42238   0.117   0.828   3.724
13999WAT     H142239   0.058   0.846   3.802
13999WAT     H242240   0.061   0.814   3.642
14000WAT      O42241   4.604   0.453   7.624
14000WAT     H142242   4.595   0.368   7.572
14000WAT     H242243   4.516   0.500   7.626
14001WAT      O42244   0.090   1.886   1.129
14001WAT     H142245   0.138   1.823   1.191
14001WAT     H242246   0.087   1.846   1.037
14002WAT      O42247   1.653   1.724   0.075
14002WAT     H142248   1.702   1.643   0.108
14002WAT     H242249   1.633   1.784   0.152
14003WAT      O42250   7.040   9.540   4.825
14003WAT     H142251   7.109   9.496   4.768
14003WAT     H242252   6.949   9.524   4.786
14004WAT      O42253   2.963   3.044   7.661
14004WAT     H142254   3.040   3.080   7.608
14004WAT     H242255   2.976   3.064   7.758
14005WAT      O42256   3.110   0.287   2.360
14005WAT     H142257   3.053   0.363   2.390
14005WAT     H242258   3.123   0.223   2.437
14006WAT      O42259   8.190   1.453   4.300
14006WAT     H142260   8.211   1.442   4.397
14006WAT     H242261   8.096   1.423   4.282
14007WAT      O42262   0.896   8.209   0.679
14007WAT     H142263   0.908   8.158   0.763
14007WAT     H242264   0.982   8.253   0.653
14008WAT      O42265   0.621   4.834   9.505
14008WAT     H142266   0.661   4.853   9.595
14008WAT     H242267   0.604   4.920   9.457
14009WAT      O42268   8.151   0.870   2.483
14009WAT     H142269   8.217   0.942   2.502
14009WAT     H242270   8.194   0.799   2.428
14010WAT      O42271   1.324   3.190   2.750
14010WAT     H142272   1.348   3.110   2.805
14010WAT     H242273   1.367   3.183   2.660
14011WAT      O42274   6.056   1.021   3.136
14011WAT     H142275   5.962   0.988   3.124
14011WAT     H242276   6.063   1.073   3.221
14012WAT      O42277   8.274   8.795   1.172
14012WAT     H142278   8.360   8.837   1.199
14012WAT     H242279   8.207   8.867   1.151
14013WAT      O42280   9.030   3.121   2.830
14013WAT     H142281   9.015   3.187   2.904
14013WAT     H242282   9.116   3.141   2.784
14014WAT      O42283   2.351   5.231   1.698
14014WAT     H142284   2.285   5.305   1.686
14014WAT     H242285   2.314   5.146   1.659
14015WAT      O42286   6.010   0.127   5.274
14015WAT     H142287   6.079   0.074   5.225
14015WAT     H242288   5.947   0.169   5.209
14016WAT      O42289   8.742   1.946   8.208
14016WAT     H142290   8.838   1.929   8.227
14016WAT     H242291   8.733   2.004   8.128
14017WAT      O42292   4.703   9.495   2.952
14017WAT     H142293   4.722   9.485   2.855
14017WAT     H242294   4.777   9.547   2.996
14018WAT      O42295   6.821   7.537   1.301
14018WAT     H142296   6.804   7.595   1.381
14018WAT     H242297   6.754   7.463   1.299
14019WAT      O42298   7.266   4.999   5.325
14019WAT     H142299   7.167   4.995   5.313
14019WAT     H242300   7.305   4.909   5.306
14020WAT      O42301   9.430   6.540   1.651
14020WAT     H142302   9.403   6.548   1.555
14020WAT     H242303   9.513   6.593   1.666
14021WAT      O42304   3.237   2.402   4.397
14021WAT     H142305   3.171   2.460   4.351
14021WAT     H242306   3.189   2.329   4.446
14022WAT      O42307   8.097   4.882   9.833
14022WAT     H142308   8.149   4.830   9.900
14022WAT     H242309   8.155   4.954   9.794
14023WAT      O42310   9.796   1.200   5.252
14023WAT     H142311   9.731   1.136   5.210
14023WAT     H242312   9.784   1.291   5.210
14024WAT      O42313   0.278   8.786   8.057
14024WAT     H142314   0.236   8.825   8.139
14024WAT     H242315   0.262   8.687   8.055
14025WAT      O42316   2.608   1.812   6.500
14025WAT     H142317   2.558   1.749   6.559
14025WAT     H242318   2.706   1.800   6.513
14026WAT      O42319   8.437   0.170   1.677
14026WAT     H142320   8.370   0.119   1.731
14026WAT     H242321   8.446   0.128   1.587
14027WAT      O42322   4.444   7.976   4.401
14027WAT     H142323   4.518   7.966   4.334
14027WAT     H242324   4.378   7.902   4.389
14028WAT      O42325   3.330   3.246   7.614
14028WAT     H142326   3.245   3.294   7.592
14028WAT     H242327   3.343   3.244   7.713
14029WAT      O42328   2.612   4.406   9.037
14029WAT     H142329   2.671   4.470   8.987
14029WAT     H242330   2.532   4.384   8.981
14030WAT      O42331   0.696   2.508   3.888
14030WAT     H142332   0.647   2.483   3.804
14030WAT     H242333   0.637   2.567   3.943
14031WAT      O42334   3.743   7.752   5.275
14031WAT     H142335   3.741   7.670   5.217
14031WAT     H242336   3.675   7.818   5.242
14032WAT      O42337   6.904   9.390   1.530
14032WAT     H142338   6.922   9.368   1.626
14032WAT     H242339   6.823   9.339   1.500
14033WAT      O42340   2.854   6.364   8.068
14033WAT     H142341   2.807   6.356   7.980
14033WAT     H242342   2.830   6.287   8.127
14034WAT      O42343   0.037   6.433   9.236
14034WAT     H142344   0.084   6.515   9.268
14034WAT     H242345   0.101   6.374   9.188
14035WAT      O42346   1.869   6.236   7.183
14035WAT     H142347   1.771   6.244   7.162
14035WAT     H242348   1.917   6.198   7.105
14036WAT      O42349   2.747   0.883   0.203
14036WAT     H142350   2.689   0.925   0.273
14036WAT     H242351   2.706   0.896   0.113
14037WAT      O42352   0.284   1.226   3.366
14037WAT     H142353   0.260   1.134   3.335
14037WAT     H242354   0.335   1.274   3.295
14038WAT      O42355   4.111   9.620   3.638
14038WAT     H142356   4.016   9.627   3.608
14038WAT     H242357   4.117   9.638   3.736
14039WAT      O42358   3.002   1.796   0.776
14039WAT     H142359   3.093   1.836   0.764
14039WAT     H242360   2.971   1.813   0.870
14040WAT      O42361   7.052   1.142   9.880
14040WAT     H142362   6.975   1.079   9.890
14040WAT     H242363   7.055   1.204   9.958
14041WAT      O42364   4.220   4.113   5.976
14041WAT     H142365   4.312   4.073   5.982
14041WAT     H242366   4.197   4.157   6.063
14042WAT      O42367   2.846   6.217   1.302
14042WAT     H142368   2.916   6.277   1.264
14042WAT     H242369   2.886   6.157   1.371
14043WAT      O42370   1.042   0.231   1.430
14043WAT     H142371   1.046   0.168   1.353
14043WAT     H242372   1.039   0.325   1.397
14044WAT      O42373   8.891   5.091   7.520
14044WAT     H142374   8.967   5.122   7.577
14044WAT     H242375   8.812   5.149   7.535
14045WAT      O42376   9.790   1.378   2.599
14045WAT     H142377   9.791   1.337   2.508
14045WAT     H242378   9.702   1.423   2.614
14046WAT      O42379   3.128   7.551   1.049
14046WAT     H142380   3.189   7.536   0.972
14046WAT     H242381   3.168   7.513   1.132
14047WAT      O42382   8.065   4.828   4.001
14047WAT     H142383   8.147   4.797   3.954
14047WAT     H242384   7.984   4.799   3.949
14048WAT      O42385   0.557   4.613   5.227
14048WAT     H142386   0.543   4.699   5.179
14048WAT     H242387   0.506   4.614   5.313
14049WAT      O42388   8.853   6.370   4.022
14049WAT     H142389   8.799   6.306   4.077
14049WAT     H242390   8.795   6.445   3.990
14050WAT      O42391   0.065   0.451   5.789
14050WAT     H142392  -0.001   0.387   5.748
14050WAT     H242393   0.108   0.408   5.868
14051WAT      O42394   8.214   1.599   5.711
14051WAT     H142395   8.222   1.506   5.673
14051WAT     H242396   8.193   1.592   5.809
14052WAT      O42397   4.364   8.837   9.790
14052WAT     H142398   4.356   8.826   9.889
14052WAT     H242399   4.330   8.755   9.744
14053WAT      O42400   3.195   6.028   8.285
14053WAT     H142401   3.229   6.032   8.379
14053WAT     H242402   3.230   6.107   8.234
14054WAT      O42403   1.006   3.220   3.336
14054WAT     H142404   0.965   3.260   3.254
14054WAT     H242405   0.934   3.188   3.398
14055WAT      O42406   0.595   2.570   4.766
14055WAT     H142407   0.629   2.585   4.673
14055WAT     H242408   0.582   2.658   4.811
14056WAT      O42409   1.833   8.914   0.864
14056WAT     H142410   1.834   8.817   0.842
14056WAT     H242411   1.808   8.927   0.960
14057WAT      O42412   2.364   0.368   4.750
14057WAT     H142413   2.381   0.271   4.731
14057WAT     H242414   2.285   0.399   4.697
14058WAT      O42415   2.616   4.687   4.757
14058WAT     H142416   2.663   4.774   4.770
14058WAT     H242417   2.654   4.639   4.678
14059WAT      O42418   9.007   3.229   6.890
14059WAT     H142419   9.017   3.291   6.969
14059WAT     H242420   8.932   3.165   6.907
14060WAT      O42421   9.329   5.757   5.900
14060WAT     H142422   9.234   5.740   5.925
14060WAT     H242423   9.344   5.725   5.806
14061WAT      O42424   5.360   4.036   4.622
14061WAT     H142425   5.344   4.131   4.650
14061WAT     H242426   5.278   3.982   4.640
14062WAT      O42427   6.276   6.556   6.227
14062WAT     H142428   6.301   6.522   6.317
14062WAT     H242429   6.243   6.650   6.234
14063WAT      O42430   9.505   8.604   7.604
14063WAT     H142431   9.593   8.652   7.604
14063WAT     H242432   9.437   8.659   7.652
14064WAT      O42433   8.102   1.919   7.345
14064WAT     H142434   8.104   2.019   7.342
14064WAT     H242435   8.139   1.888   7.432
14065WAT      O42436   7.967   8.050   8.303
14065WAT     H142437   8.045   8.099   8.340
14065WAT     H242438   7.978   8.038   8.204
14066WAT      O42439   7.275   8.838   6.435
14066WAT     H142440   7.347   8.903   6.459
14066WAT     H242441   7.230   8.807   6.519
14067WAT      O42442   8.384   1.301   0.825
14067WAT     H142443   8.422   1.262   0.741
14067WAT     H242444   8.457   1.346   0.877
14068WAT      O42445   4.570   7.742   9.093
14068WAT     H142446   4.592   7.798   9.013
14068WAT     H242447   4.634   7.665   9.099
14069WAT      O42448   5.946   0.292   5.871
14069WAT     H142449   5.892   0.237   5.807
14069WAT     H242450   6.020   0.236   5.908
14070WAT      O42451   0.537   6.923   4.757
14070WAT     H142452   0.462   6.952   4.697
14070WAT     H242453   0.609   6.880   4.702
14071WAT      O42454   7.002   6.665   1.619
14071WAT     H142455   6.965   6.657   1.711
14071WAT     H242456   7.028   6.760   1.601
14072WAT      O42457   0.780   3.933   9.218
14072WAT     H142458   0.820   3.989   9.290
14072WAT     H242459   0.809   3.968   9.129
14073WAT      O42460   2.383   3.620   6.642
14073WAT     H142461   2.459   3.651   6.699
14073WAT     H242462   2.420   3.582   6.557
14074WAT      O42463   0.979   2.781   6.452
14074WAT     H142464   0.985   2.880   6.439
14074WAT     H242465   0.917   2.741   6.384
14075WAT      O42466   4.490   8.103   4.027
14075WAT     H142467   4.548   8.029   4.061
14075WAT     H242468   4.532   8.191   4.047
14076WAT      O42469   7.450   4.634   3.431
14076WAT     H142470   7.489   4.653   3.521
14076WAT     H242471   7.511   4.573   3.380
14077WAT      O42472   5.477   2.368   2.799
14077WAT     H142473   5.453   2.331   2.709
14077WAT     H242474   5.573   2.395   2.799
14078WAT      O42475   7.281   0.297   5.857
14078WAT     H142476   7.357   0.297   5.923
14078WAT     H242477   7.195   0.284   5.906
14079WAT      O42478   8.030   2.214   0.527
14079WAT     H142479   8.033   2.280   0.602
14079WAT     H242480   7.941   2.219   0.481
14080WAT      O42481   0.193   8.305   6.686
14080WAT     H142482   0.287   8.331   6.663
14080WAT     H242483   0.130   8.345   6.620
14081WAT      O42484   7.839   3.060   0.010
14081WAT     H142485   7.906   3.051  -0.063
14081WAT     H242486   7.875   3.120   0.082
14082WAT      O42487   1.741   4.660   7.484
14082WAT     H142488   1.765   4.734   7.420
14082WAT     H242489   1.823   4.631   7.533
14083WAT      O42490   7.582   7.383   0.936
14083WAT     H142491   7.523   7.360   1.014
14083WAT     H242492   7.543   7.461   0.888
14084WAT      O42493   6.910   7.430   3.778
14084WAT     H142494   6.877   7.398   3.867
14084WAT     H242495   6.839   7.486   3.735
14085WAT      O42496   1.306   8.401   5.646
14085WAT     H142497   1.298   8.339   5.725
14085WAT     H242498   1.356   8.483   5.673
14086WAT      O42499   0.414   7.186   6.486
14086WAT     H142500   0.451   7.278   6.500
14086WAT     H242501   0.407   7.167   6.388
14087WAT      O42502   4.127   8.210   1.921
14087WAT     H142503   4.065   8.186   1.996
14087WAT     H242504   4.220   8.221   1.957
14088WAT      O42505   4.189   9.686   6.520
14088WAT     H142506   4.248   9.767   6.534
14088WAT     H242507   4.232   9.625   6.453
14089WAT      O42508   7.687   6.365   8.531
14089WAT     H142509   7.622   6.410   8.594
14089WAT     H242510   7.772   6.347   8.580
14090WAT      O42511   5.437   8.197   0.280
14090WAT     H142512   5.423   8.099   0.291
14090WAT     H242513   5.488   8.214   0.196
14091WAT      O42514   9.076   1.996   2.311
14091WAT     H142515   9.140   2.011   2.236
14091WAT     H242516   9.072   2.078   2.368
14092WAT      O42517   2.493   1.250   3.802
14092WAT     H142518   2.433   1.239   3.881
14092WAT     H242519   2.546   1.334   3.810
14093WAT      O42520   2.049   2.068   5.814
14093WAT     H142521   2.013   2.126   5.887
14093WAT     H242522   2.012   2.098   5.726
14094WAT      O42523   3.640   2.230   1.468
14094WAT     H142524   3.609   2.300   1.404
14094WAT     H242525   3.697   2.272   1.538
14095WAT      O42526   3.614   9.682   4.600
14095WAT     H142527   3.536   9.653   4.545
14095WAT     H242528   3.597   9.660   4.696
14096WAT      O42529   5.992   2.107   2.872
14096WAT     H142530   5.994   2.076   2.777
14096WAT     H242531   5.933   2.047   2.926
14097WAT      O42532   7.442   4.153   0.798
14097WAT     H142533   7.375   4.093   0.841
14097WAT     H242534   7.417   4.168   0.702
14098WAT      O42535   3.374   7.455   7.876
14098WAT     H142536   3.409   7.492   7.961
14098WAT     H242537   3.448   7.408   7.827
14099WAT      O42538   2.333   3.523   0.234
14099WAT     H142539   2.338   3.620   0.256
14099WAT     H242540   2.302   3.511   0.140
14100WAT      O42541   5.940   7.578   4.512
14100WAT     H142542   5.932   7.605   4.608
14100WAT     H242543   6.012   7.509   4.503
14101WAT      O42544   2.182   4.563   8.023
14101WAT     H142545   2.264   4.511   8.047
14101WAT     H242546   2.166   4.558   7.925
14102WAT      O42547   4.493   4.850   3.496
14102WAT     H142548   4.589   4.867   3.513
14102WAT     H242549   4.479   4.824   3.401
14103WAT      O42550   1.335   8.439   2.179
14103WAT     H142551   1.300   8.356   2.222
14103WAT     H242552   1.335   8.428   2.079
14104WAT      O42553   6.197   6.266   6.164
14104WAT     H142554   6.274   6.217   6.121
14104WAT     H242555   6.212   6.365   6.156
14105WAT      O42556   2.232   2.683   5.792
14105WAT     H142557   2.147   2.632   5.801
14105WAT     H242558   2.263   2.679   5.696
14106WAT      O42559   1.282   2.411   7.346
14106WAT     H142560   1.231   2.354   7.410
14106WAT     H242561   1.317   2.354   7.272
14107WAT      O42562   2.364   2.891   4.804
14107WAT     H142563   2.283   2.912   4.749
14107WAT     H242564   2.438   2.954   4.779
14108WAT      O42565   9.058   0.770   8.485
14108WAT     H142566   9.074   0.838   8.556
14108WAT     H242567   9.025   0.816   8.402
14109WAT      O42568   2.016   4.628   2.686
14109WAT     H142569   1.923   4.598   2.705
14109WAT     H242570   2.015   4.707   2.625
14110WAT      O42571   5.199   7.341   2.192
14110WAT     H142572   5.229   7.301   2.106
14110WAT     H242573   5.276   7.347   2.255
14111WAT      O42574   6.413   4.094   4.190
14111WAT     H142575   6.343   4.158   4.221
14111WAT     H242576   6.503   4.136   4.200
14112WAT      O42577   9.050   8.805   6.073
14112WAT     H142578   9.044   8.904   6.061
14112WAT     H242579   9.120   8.767   6.012
14113WAT      O42580   6.530   6.669   9.757
14113WAT     H142581   6.610   6.643   9.703
14113WAT     H242582   6.450   6.617   9.727
14114WAT      O42583   8.911   4.455   4.796
14114WAT     H142584   8.909   4.393   4.717
14114WAT     H242585   8.830   4.439   4.853
14115WAT      O42586   1.165   0.838   4.777
14115WAT     H142587   1.115   0.785   4.846
14115WAT     H242588   1.196   0.777   4.704
14116WAT      O42589   8.977   6.500   6.455
14116WAT     H142590   8.983   6.543   6.364
14116WAT     H242591   9.064   6.513   6.503
14117WAT      O42592   3.496   5.529   8.937
14117WAT     H142593   3.585   5.487   8.922
14117WAT     H242594   3.485   5.608   8.877
14118WAT      O42595   0.375   4.948   8.885
14118WAT     H142596   0.340   4.890   8.959
14118WAT     H242597   0.299   4.978   8.827
14119WAT      O42598   0.574   7.793   3.230
14119WAT     H142599   0.527   7.856   3.291
14119WAT     H242600   0.509   7.725   3.196
14120WAT      O42601   7.658   0.218   2.881
14120WAT     H142602   7.596   0.198   2.957
14120WAT     H242603   7.608   0.266   2.809
14121WAT      O42604   4.758   4.532   3.779
14121WAT     H142605   4.852   4.514   3.748
14121WAT     H242606   4.733   4.466   3.849
14122WAT      O42607   5.111   8.521   5.513
14122WAT     H142608   5.110   8.422   5.503
14122WAT     H242609   5.116   8.545   5.610
14123WAT      O42610   5.567   8.450   5.621
14123WAT     H142611   5.638   8.514   5.651
14123WAT     H242612   5.589   8.358   5.651
14124WAT      O42613   9.072   4.766   5.327
14124WAT     H142614   9.127   4.703   5.380
14124WAT     H242615   9.001   4.715   5.277
14125WAT      O42616   3.928   3.081   4.337
14125WAT     H142617   3.961   3.132   4.417
14125WAT     H242618   3.883   2.997   4.367
14126WAT      O42619   7.315   1.303   7.128
14126WAT     H142620   7.351   1.324   7.219
14126WAT     H242621   7.291   1.206   7.123
14127WAT      O42622   0.783   5.459   7.662
14127WAT     H142623   0.770   5.436   7.758
14127WAT     H242624   0.854   5.400   7.623
14128WAT      O42625   3.960   6.947   9.570
14128WAT     H142626   4.008   6.976   9.488
14128WAT     H242627   4.025   6.942   9.646
14129WAT      O42628   8.450   8.797   6.721
14129WAT     H142629   8.505   8.819   6.801
14129WAT     H242630   8.400   8.712   6.737
14130WAT      O42631   5.174   0.361   4.861
14130WAT     H142632   5.194   0.431   4.791
14130WAT     H242633   5.239   0.369   4.936
14131WAT      O42634   6.439   5.773   6.755
14131WAT     H142635   6.472   5.743   6.844
14131WAT     H242636   6.453   5.699   6.688
14132WAT      O42637   3.715   0.858   4.457
14132WAT     H142638   3.794   0.913   4.482
14132WAT     H242639   3.636   0.918   4.443
14133WAT      O42640   4.936   3.756   8.712
14133WAT     H142641   4.938   3.783   8.808
14133WAT     H242642   4.843   3.729   8.686
14134WAT      O42643   2.650   6.407   3.010
14134WAT     H142644   2.631   6.503   2.991
14134WAT     H242645   2.573   6.366   3.059
14135WAT      O42646   5.904   3.222   9.549
14135WAT     H142647   5.924   3.282   9.472
14135WAT     H242648   5.916   3.273   9.635
14136WAT      O42649   2.236   9.378   7.232
14136WAT     H142650   2.152   9.381   7.177
14136WAT     H242651   2.297   9.452   7.204
14137WAT      O42652   4.448   7.779   5.186
14137WAT     H142653   4.487   7.717   5.255
14137WAT     H242654   4.495   7.765   5.099
14138WAT      O42655   1.108   0.564   2.040
14138WAT     H142656   1.132   0.499   2.112
14138WAT     H242657   1.011   0.552   2.016
14139WAT      O42658   2.323   7.721   8.437
14139WAT     H142659   2.256   7.793   8.452
14139WAT     H242660   2.414   7.755   8.459
14140WAT      O42661   2.759   3.057   9.020
14140WAT     H142662   2.819   3.137   9.018
14140WAT     H242663   2.811   2.978   9.054
14141WAT      O42664   3.804   0.517   4.670
14141WAT     H142665   3.739   0.591   4.655
14141WAT     H242666   3.894   0.544   4.637
14142WAT      O42667   2.250   7.227   9.300
14142WAT     H142668   2.184   7.258   9.232
14142WAT     H242669   2.242   7.283   9.383
14143WAT      O42670   0.328   0.737   5.717
14143WAT     H142671   0.326   0.640   5.694
14143WAT     H242672   0.235   0.767   5.741
14144WAT      O42673   7.804   6.593   8.839
14144WAT     H142674   7.864   6.665   8.807
14144WAT     H242675   7.821   6.509   8.788
14145WAT      O42676   2.483   5.374   7.922
14145WAT     H142677   2.440   5.392   8.010
14145WAT     H242678   2.565   5.431   7.913
14146WAT      O42679   1.025   7.254   6.051
14146WAT     H142680   1.045   7.291   6.142
14146WAT     H242681   1.110   7.223   6.009
14147WAT      O42682   6.619   7.028   2.227
14147WAT     H142683   6.650   7.118   2.258
14147WAT     H242684   6.683   6.992   2.160
14148WAT      O42685   4.248   9.170   0.514
14148WAT     H142686   4.244   9.187   0.612
14148WAT     H242687   4.176   9.221   0.468
14149WAT      O42688   2.311   3.902   5.723
14149WAT     H142689   2.317   3.809   5.686
14149WAT     H242690   2.386   3.916   5.788
14150WAT      O42691   9.610   4.759   5.442
14150WAT     H142692   9.547   4.771   5.365
14150WAT     H242693   9.665   4.676   5.427
14151WAT      O42694   1.129   5.456   0.637
14151WAT     H142695   1.181   5.435   0.720
14151WAT     H242696   1.119   5.373   0.582
14152WAT      O42697   3.391   4.295   1.540
14152WAT     H142698   3.377   4.291   1.639
14152WAT     H242699   3.422   4.387   1.515
14153WAT      O42700   9.633   0.528   0.316
14153WAT     H142701   9.653   0.560   0.408
14153WAT     H242702   9.671   0.436   0.303
14154WAT      O42703   0.589   1.152   1.369
14154WAT     H142704   0.656   1.186   1.302
14154WAT     H242705   0.500   1.195   1.352
14155WAT      O42706   3.926   5.457   2.991
14155WAT     H142707   4.014   5.506   2.991
14155WAT     H242708   3.853   5.519   3.021
14156WAT      O42709   1.752   4.468   5.320
14156WAT     H142710   1.798   4.551   5.351
14156WAT     H242711   1.802   4.428   5.244
14157WAT      O42712   3.229   3.449   5.580
14157WAT     H142713   3.288   3.401   5.515
14157WAT     H242714   3.147   3.482   5.533
14158WAT      O42715   5.872   2.169   9.607
14158WAT     H142716   5.938   2.108   9.652
14158WAT     H242717   5.892   2.264   9.630
14159WAT      O42718   7.367   3.518   0.513
14159WAT     H142719   7.281   3.469   0.506
14159WAT     H242720   7.358   3.592   0.579
14160WAT      O42721   7.043   9.694   4.246
14160WAT     H142722   7.056   9.722   4.341
14160WAT     H242723   7.050   9.774   4.187
14161WAT      O42724   5.588   5.609   5.598
14161WAT     H142725   5.671   5.554   5.609
14161WAT     H242726   5.509   5.555   5.626
14162WAT      O42727   5.402   6.179   1.388
14162WAT     H142728   5.323   6.168   1.448
14162WAT     H242729   5.486   6.176   1.442
14163WAT      O42730   6.545   6.040   4.570
14163WAT     H142731   6.481   6.108   4.535
14163WAT     H242732   6.523   5.950   4.533
14164WAT      O42733   7.101   2.779   6.837
14164WAT     H142734   7.147   2.733   6.913
14164WAT     H242735   7.164   2.786   6.760
14165WAT      O42736   3.208   9.079   2.432
14165WAT     H142737   3.228   9.011   2.503
14165WAT     H242738   3.289   9.093   2.376
14166WAT      O42739   8.171   9.298   8.412
14166WAT     H142740   8.150   9.266   8.319
14166WAT     H242741   8.087   9.333   8.454
14167WAT      O42742   6.586   2.031   4.148
14167WAT     H142743   6.680   2.064   4.159
14167WAT     H242744   6.526   2.080   4.211
14168WAT      O42745   7.024   5.577   2.157
14168WAT     H142746   7.057   5.592   2.064
14168WAT     H242747   7.050   5.654   2.215
14169WAT      O42748   0.683   3.891   8.637
14169WAT     H142749   0.693   3.853   8.545
14169WAT     H242750   0.699   3.989   8.635
14170WAT      O42751   3.703   4.502   2.144
14170WAT     H142752   3.671   4.590   2.109
14170WAT     H242753   3.803   4.498   2.141
14171WAT      O42754   3.047   4.853   3.374
14171WAT     H142755   3.021   4.781   3.309
14171WAT     H242756   3.102   4.813   3.447
14172WAT      O42757   5.835   3.761   6.101
14172WAT     H142758   5.802   3.666   6.107
14172WAT     H242759   5.824   3.805   6.190
14173WAT      O42760   2.592   1.463   5.274
14173WAT     H142761   2.554   1.374   5.250
14173WAT     H242762   2.520   1.533   5.264
14174WAT      O42763   2.350   2.092   7.838
14174WAT     H142764   2.366   1.999   7.803
14174WAT     H242765   2.310   2.086   7.929
14175WAT      O42766   1.805   0.468   9.563
14175WAT     H142767   1.766   0.400   9.502
14175WAT     H242768   1.822   0.427   9.653
14176WAT      O42769   2.012   4.524   1.870
14176WAT     H142770   2.068   4.479   1.940
14176WAT     H242771   1.927   4.473   1.857
14177WAT      O42772   1.778   9.731   3.994
14177WAT     H142773   1.789   9.739   3.895
14177WAT     H242774   1.709   9.795   4.026
14178WAT      O42775   0.746   2.947   9.475
14178WAT     H142776   0.734   2.912   9.568
14178WAT     H242777   0.660   2.989   9.445
14179WAT      O42778   5.529   4.483   9.070
14179WAT     H142779   5.615   4.492   9.120
14179WAT     H242780   5.516   4.388   9.041
14180WAT      O42781   5.646   7.929   2.648
14180WAT     H142782   5.587   7.943   2.728
14180WAT     H242783   5.723   7.992   2.652
14181WAT      O42784   5.974   1.044   8.339
14181WAT     H142785   5.881   1.032   8.302
14181WAT     H242786   6.004   1.138   8.321
14182WAT      O42787   4.118   5.510   0.659
14182WAT     H142788   4.083   5.581   0.720
14182WAT     H242789   4.128   5.546   0.567
14183WAT      O42790   9.859   4.416   6.111
14183WAT     H142791   9.872   4.326   6.152
14183WAT     H242792   9.948   4.452   6.082
14184WAT      O42793   3.529   4.211   0.294
14184WAT     H142794   3.500   4.119   0.322
14184WAT     H242795   3.623   4.207   0.261
14185WAT      O42796   0.965   1.426   0.372
14185WAT     H142797   0.939   1.392   0.462
14185WAT     H242798   0.940   1.523   0.365
14186WAT      O42799   6.356   5.826   7.906
14186WAT     H142800   6.305   5.895   7.959
14186WAT     H242801   6.321   5.735   7.928
14187WAT      O42802   6.223   0.670   0.640
14187WAT     H142803   6.160   0.664   0.562
14187WAT     H242804   6.296   0.602   0.629
14188WAT      O42805   5.315   7.093   6.291
14188WAT     H142806   5.261   7.091   6.207
14188WAT     H242807   5.400   7.042   6.276
14189WAT      O42808   7.129   6.408   3.072
14189WAT     H142809   7.064   6.471   3.115
14189WAT     H242810   7.137   6.430   2.975
14190WAT      O42811   6.988   7.250   8.329
14190WAT     H142812   6.984   7.349   8.336
14190WAT     H242813   7.057   7.223   8.262
14191WAT      O42814   1.066   6.004   6.482
14191WAT     H142815   1.075   6.035   6.388
14191WAT     H242816   1.151   5.962   6.513
14192WAT      O42817   7.858   9.476   8.040
14192WAT     H142818   7.838   9.474   7.942
14192WAT     H242819   7.848   9.385   8.079
14193WAT      O42820   7.065   2.769   3.791
14193WAT     H142821   7.088   2.671   3.784
14193WAT     H242822   7.141   2.817   3.835
14194WAT      O42823   3.398   9.414   8.027
14194WAT     H142824   3.377   9.396   7.931
14194WAT     H242825   3.492   9.448   8.035
14195WAT      O42826   5.912   6.159   2.030
14195WAT     H142827   5.996   6.209   2.011
14195WAT     H242828   5.860   6.206   2.101
14196WAT      O42829   5.543   2.548   3.425
14196WAT     H142830   5.543   2.634   3.374
14196WAT     H242831   5.451   2.530   3.460
14197WAT      O42832   4.382   6.474   6.136
14197WAT     H142833   4.361   6.377   6.131
14197WAT     H242834   4.444   6.491   6.213
14198WAT      O42835   8.443   9.208   5.700
14198WAT     H142836   8.377   9.154   5.648
14198WAT     H242837   8.506   9.146   5.748
14199WAT      O42838   6.818   6.145   6.086
14199WAT     H142839   6.903   6.172   6.040
14199WAT     H242840   6.773   6.226   6.125
14200WAT      O42841   8.328   1.360   1.384
14200WAT     H142842   8.285   1.326   1.468
14200WAT     H242843   8.298   1.306   1.306
14201WAT      O42844   4.204   5.291   4.956
14201WAT     H142845   4.166   5.205   4.923
14201WAT     H242846   4.197   5.360   4.884
14202WAT      O42847   6.502   8.149   6.727
14202WAT     H142848   6.557   8.182   6.651
14202WAT     H242849   6.464   8.059   6.704
14203WAT      O42850   2.797   1.377   0.505
14203WAT     H142851   2.838   1.288   0.529
14203WAT     H242852   2.793   1.435   0.586
14204WAT      O42853   4.747   2.662   1.717
14204WAT     H142854   4.667   2.681   1.774
14204WAT     H242855   4.828   2.652   1.775
14205WAT      O42856   6.607   1.688   4.188
14205WAT     H142857   6.582   1.591   4.184
14205WAT     H242858   6.698   1.700   4.149
14206WAT      O42859   4.018   7.923   0.501
14206WAT     H142860   4.115   7.936   0.522
14206WAT     H242861   3.971   8.010   0.506
14207WAT      O42862   6.130   7.137   2.686
14207WAT     H142863   6.067   7.065   2.656
14207WAT     H242864   6.177   7.175   2.607
14208WAT      O42865   0.914   2.013   6.429
14208WAT     H142866   0.848   2.053   6.493
14208WAT     H242867   0.996   2.070   6.426
14209WAT      O42868   1.931   5.825   7.299
14209WAT     H142869   1.855   5.761   7.291
14209WAT     H242870   2.015   5.780   7.268
14210WAT      O42871   2.511   5.694   2.618
14210WAT     H142872   2.417   5.715   2.590
14210WAT     H242873   2.511   5.658   2.711
14211WAT      O42874   4.856   8.571   2.761
14211WAT     H142875   4.955   8.554   2.761
14211WAT     H242876   4.836   8.647   2.700
14212WAT      O42877   7.849   0.822   9.740
14212WAT     H142878   7.787   0.863   9.674
14212WAT     H242879   7.873   0.889   9.810
14213WAT      O42880   0.088   8.824   7.053
14213WAT     H142881   0.165   8.885   7.073
14213WAT     H242882   0.075   8.760   7.129
14214WAT      O42883   6.766   8.456   8.434
14214WAT     H142884   6.779   8.484   8.339
14214WAT     H242885   6.851   8.419   8.470
14215WAT      O42886   9.689   8.436   7.262
14215WAT     H142887   9.740   8.352   7.281
14215WAT     H242888   9.683   8.450   7.163
14216WAT      O42889   1.321   9.386   1.877
14216WAT     H142890   1.268   9.471   1.875
14216WAT     H242891   1.280   9.324   1.943
14217WAT      O42892   9.687   5.235   6.126
14217WAT     H142893   9.709   5.151   6.175
14217WAT     H242894   9.655   5.214   6.034
14218WAT      O42895   8.780   1.967   4.451
14218WAT     H142896   8.820   2.054   4.420
14218WAT     H242897   8.691   1.954   4.409
14219WAT      O42898   4.346   1.619   7.479
14219WAT     H142899   4.330   1.635   7.382
14219WAT     H242900   4.419   1.552   7.490
14220WAT      O42901   8.025   1.214   9.813
14220WAT     H142902   7.996   1.290   9.872
14220WAT     H242903   7.966   1.209   9.733
14221WAT      O42904   3.145   4.850   4.117
14221WAT     H142905   3.155   4.937   4.165
14221WAT     H242906   3.059   4.807   4.143
14222WAT      O42907   5.910   5.329   7.770
14222WAT     H142908   5.879   5.414   7.729
14222WAT     H242909   5.985   5.290   7.715
14223WAT      O42910   2.511   6.147   4.389
14223WAT     H142911   2.598   6.113   4.355
14223WAT     H242912   2.519   6.166   4.487
14224WAT      O42913   1.065   3.215   5.118
14224WAT     H142914   1.110   3.192   5.032
14224WAT     H242915   1.027   3.308   5.112
14225WAT      O42916   8.931   7.334   3.929
14225WAT     H142917   8.913   7.384   4.013
14225WAT     H242918   8.850   7.337   3.871
14226WAT      O42919   7.190   1.976   2.538
14226WAT     H142920   7.236   1.910   2.479
14226WAT     H242921   7.135   2.039   2.483
14227WAT      O42922   7.664   6.188   8.813
14227WAT     H142923   7.688   6.184   8.910
14227WAT     H242924   7.607   6.267   8.795
14228WAT      O42925   2.489   2.237   0.807
14228WAT     H142926   2.459   2.257   0.714
14228WAT     H242927   2.579   2.194   0.805
14229WAT      O42928   7.719   6.935   1.577
14229WAT     H142929   7.787   7.009   1.581
14229WAT     H242930   7.721   6.884   1.663
14230WAT      O42931   8.680   3.698   9.356
14230WAT     H142932   8.638   3.780   9.395
14230WAT     H242933   8.754   3.724   9.294
14231WAT      O42934   1.269   8.520   6.680
14231WAT     H142935   1.319   8.598   6.644
14231WAT     H242936   1.330   8.463   6.735
14232WAT      O42937   7.201   9.128   7.811
14232WAT     H142938   7.267   9.202   7.825
14232WAT     H242939   7.108   9.163   7.816
14233WAT      O42940   5.567   9.314   2.459
14233WAT     H142941   5.499   9.335   2.388
14233WAT     H242942   5.591   9.397   2.508
14234WAT      O42943   1.564   2.047   7.057
14234WAT     H142944   1.492   2.096   7.007
14234WAT     H242945   1.595   2.103   7.134
14235WAT      O42946   0.111   8.120   7.763
14235WAT     H142947   0.181   8.188   7.784
14235WAT     H242948   0.057   8.102   7.845
14236WAT      O42949   4.721   5.185   0.617
14236WAT     H142950   4.780   5.172   0.697
14236WAT     H242951   4.630   5.213   0.647
14237WAT      O42952   2.346   4.574   5.845
14237WAT     H142953   2.382   4.623   5.765
14237WAT     H242954   2.251   4.603   5.861
14238WAT      O42955   1.853   9.820   7.282
14238WAT     H142956   1.886   9.809   7.376
14238WAT     H242957   1.913   9.883   7.233
14239WAT      O42958   1.547   1.042   8.594
14239WAT     H142959   1.537   1.023   8.691
14239WAT     H242960   1.478   1.109   8.566
14240WAT      O42961   4.946   5.180   8.379
14240WAT     H142962   4.864   5.168   8.436
14240WAT     H242963   4.965   5.095   8.330
14241WAT      O42964   3.756   6.118   4.482
14241WAT     H142965   3.800   6.185   4.422
14241WAT     H242966   3.820   6.091   4.554
14242WAT      O42967   8.353   8.707   1.787
14242WAT     H142968   8.305   8.637   1.840
14242WAT     H242969   8.361   8.791   1.840
14243WAT      O42970   0.485   5.608   6.454
14243WAT     H142971   0.427   5.597   6.535
14243WAT     H242972   0.470   5.532   6.391
14244WAT      O42973   6.446   1.845   2.871
14244WAT     H142974   6.426   1.920   2.934
14244WAT     H242975   6.433   1.758   2.917
14245WAT      O42976   4.126   8.091   3.325
14245WAT     H142977   4.217   8.119   3.294
14245WAT     H242978   4.134   8.037   3.409
14246WAT      O42979   4.686   3.864   0.844
14246WAT     H142980   4.685   3.953   0.800
14246WAT     H242981   4.752   3.865   0.920
14247WAT      O42982   9.156   4.079   4.138
14247WAT     H142983   9.256   4.084   4.135
14247WAT     H242984   9.127   3.983   4.135
14248WAT      O42985   2.985   2.443   5.623
14248WAT     H142986   3.006   2.433   5.720
14248WAT     H242987   3.018   2.362   5.574
14249WAT      O42988   4.084   8.955   5.539
14249WAT     H142989   4.110   9.025   5.473
14249WAT     H242990   3.992   8.972   5.572
14250WAT      O42991   3.726   9.430   8.057
14250WAT     H142992   3.720   9.335   8.089
14250WAT     H242993   3.821   9.452   8.035
14251WAT      O42994   5.046   1.473   8.757
14251WAT     H142995   5.137   1.437   8.776
14251WAT     H242996   4.977   1.413   8.797
14252WAT      O42997   3.523   5.825   2.841
14252WAT     H142998   3.452   5.896   2.838
14252WAT     H242999   3.545   5.796   2.747
14253WAT      O43000   3.107   0.675   5.515
14253WAT     H143001   3.130   0.769   5.492
14253WAT     H243002   3.009   0.660   5.502
14254WAT      O43003   3.499   9.415   3.618
14254WAT     H143004   3.507   9.317   3.600
14254WAT     H243005   3.572   9.445   3.678
14255WAT      O43006   2.849   0.550   3.356
14255WAT     H143007   2.781   0.518   3.290
14255WAT     H243008   2.896   0.471   3.396
14256WAT      O43009   3.519   6.993   0.827
14256WAT     H143010   3.466   7.064   0.780
14256WAT     H243011   3.560   6.931   0.760
14257WAT      O43012   4.630   0.485   1.668
14257WAT     H143013   4.593   0.433   1.591
14257WAT     H243014   4.569   0.475   1.747
14258WAT      O43015   5.138   5.898   4.949
14258WAT     H143016   5.048   5.895   4.992
14258WAT     H243017   5.203   5.942   5.011
14259WAT      O43018   7.827   2.471   4.510
14259WAT     H143019   7.732   2.449   4.529
14259WAT     H243020   7.886   2.407   4.560
14260WAT      O43021   9.245   1.830   5.295
14260WAT     H143022   9.285   1.881   5.371
14260WAT     H243023   9.311   1.822   5.221
14261WAT      O43024   7.623   0.802   8.060
14261WAT     H143025   7.579   0.717   8.091
14261WAT     H243026   7.597   0.819   7.965
14262WAT      O43027   5.519   8.116   3.863
14262WAT     H143028   5.424   8.114   3.895
14262WAT     H243029   5.555   8.209   3.871
14263WAT      O43030   5.353   8.476   9.298
14263WAT     H143031   5.349   8.576   9.299
14263WAT     H243032   5.393   8.445   9.211
14264WAT      O43033   0.533   6.322   7.833
14264WAT     H143034   0.622   6.361   7.811
14264WAT     H243035   0.525   6.231   7.792
14265WAT      O43036   8.759   2.564   8.283
14265WAT     H143037   8.803   2.529   8.365
14265WAT     H243038   8.724   2.488   8.227
14266WAT      O43039   1.624   1.527   7.227
14266WAT     H143040   1.619   1.439   7.181
14266WAT     H243041   1.715   1.566   7.212
14267WAT      O43042   3.337   6.049   5.020
14267WAT     H143043   3.407   6.103   4.973
14267WAT     H243044   3.378   5.964   5.054
14268WAT      O43045   7.154   3.140   4.896
14268WAT     H143046   7.235   3.176   4.943
14268WAT     H243047   7.178   3.118   4.801
14269WAT      O43048   3.304   2.755   9.460
14269WAT     H143049   3.337   2.768   9.366
14269WAT     H243050   3.382   2.740   9.520
14270WAT      O43051   8.548   4.340   1.164
14270WAT     H143052   8.568   4.251   1.205
14270WAT     H243053   8.451   4.361   1.175
14271WAT      O43054   4.580   3.191   6.210
14271WAT     H143055   4.611   3.274   6.256
14271WAT     H243056   4.506   3.212   6.147
14272WAT      O43057   1.574   7.271   6.378
14272WAT     H143058   1.484   7.296   6.343
14272WAT     H243059   1.594   7.176   6.353
14273WAT      O43060   2.386   8.298   0.908
14273WAT     H143061   2.357   8.220   0.852
14273WAT     H243062   2.447   8.356   0.854
14274WAT      O43063   0.161   8.253   5.835
14274WAT     H143064   0.101   8.174   5.822
14274WAT     H243065   0.252   8.232   5.801
14275WAT      O43066   9.283   4.952   5.079
14275WAT     H143067   9.192   4.922   5.108
14275WAT     H243068   9.302   5.043   5.118
14276WAT      O43069   9.790   9.639   7.951
14276WAT     H143070   9.760   9.685   8.035
14276WAT     H243071   9.730   9.561   7.932
14277WAT      O43072   7.106   8.331   3.536
14277WAT     H143073   7.204   8.327   3.556
14277WAT     H243074   7.063   8.397   3.597
14278WAT      O43075   2.057   6.269   9.813
14278WAT     H143076   2.048   6.211   9.732
14278WAT     H243077   1.989   6.343   9.809
14279WAT      O43078   3.625   1.986   6.727
14279WAT     H143079   3.711   1.952   6.688
14279WAT     H243080   3.608   2.079   6.694
14280WAT      O43081   9.110   0.267   0.663
14280WAT     H143082   9.157   0.217   0.736
14280WAT     H243083   9.018   0.230   0.652
14281WAT      O43084   9.131   0.994   2.284
14281WAT     H143085   9.132   1.090   2.258
14281WAT     H243086   9.217   0.970   2.330
14282WAT      O43087   5.168   6.481   4.390
14282WAT     H143088   5.092   6.471   4.454
14282WAT     H243089   5.188   6.393   4.348
14283WAT      O43090   0.366   8.986   3.361
14283WAT     H143091   0.446   9.001   3.303
14283WAT     H243092   0.376   8.899   3.409
14284WAT      O43093   5.406   0.388   0.606
14284WAT     H143094   5.401   0.386   0.506
14284WAT     H243095   5.334   0.330   0.644
14285WAT      O43096   1.591   5.399   1.587
14285WAT     H143097   1.581   5.456   1.668
14285WAT     H243098   1.587   5.456   1.505
14286WAT      O43099   5.841   3.521   3.558
14286WAT     H143100   5.816   3.616   3.539
14286WAT     H243101   5.784   3.485   3.632
14287WAT      O43102   2.357   9.110   2.483
14287WAT     H143103   2.296   9.189   2.492
14287WAT     H243104   2.361   9.061   2.569
14288WAT      O43105   8.094   5.495   6.565
14288WAT     H143106   8.103   5.594   6.559
14288WAT     H243107   8.066   5.470   6.658
14289WAT      O43108   1.823   2.865   9.705
14289WAT     H143109   1.893   2.888   9.773
14289WAT     H243110   1.755   2.804   9.747
14290WAT      O43111   9.680   5.511   6.144
14290WAT     H143112   9.651   5.418   6.123
14290WAT     H243113   9.632   5.575   6.083
14291WAT      O43114   0.755   8.237   4.861
14291WAT     H143115   0.668   8.274   4.828
14291WAT     H243116   0.815   8.312   4.888
14292WAT      O43117   0.086   6.424   6.483
14292WAT     H143118   0.032   6.508   6.482
14292WAT     H243119   0.032   6.349   6.446
14293WAT      O43120   9.243   5.251   5.139
14293WAT     H143121   9.179   5.193   5.190
14293WAT     H243122   9.259   5.336   5.189
14294WAT      O43123   0.359   8.840   5.594
14294WAT     H143124   0.432   8.906   5.579
14294WAT     H243125   0.270   8.886   5.583
14295WAT      O43126   9.874   8.807   3.645
14295WAT     H143127   9.946   8.754   3.600
14295WAT     H243128   9.912   8.894   3.678
14296WAT      O43129   3.956   3.761   4.302
14296WAT     H143130   4.043   3.802   4.326
14296WAT     H243131   3.932   3.691   4.369
14297WAT      O43132   4.260   4.197   1.856
14297WAT     H143133   4.207   4.113   1.850
14297WAT     H243134   4.199   4.276   1.853
14298WAT      O43135   1.345   8.167   8.275
14298WAT     H143136   1.400   8.250   8.283
14298WAT     H243137   1.332   8.144   8.178
14299WAT      O43138   1.159   9.595   4.782
14299WAT     H143139   1.062   9.579   4.766
14299WAT     H243140   1.171   9.651   4.864
14300WAT      O43141   3.716   4.434   9.215
14300WAT     H143142   3.659   4.432   9.297
14300WAT     H243143   3.772   4.516   9.215
14301WAT      O43144   9.094   6.982   2.697
14301WAT     H143145   9.017   7.045   2.691
14301WAT     H243146   9.108   6.937   2.609
14302WAT      O43147   1.268   2.009   9.191
14302WAT     H143148   1.204   2.075   9.151
14302WAT     H243149   1.217   1.943   9.245
14303WAT      O43150   0.816   8.601   0.457
14303WAT     H143151   0.851   8.636   0.370
14303WAT     H243152   0.775   8.511   0.443
14304WAT      O43153   3.942   5.341   7.267
14304WAT     H143154   3.918   5.362   7.172
14304WAT     H243155   3.875   5.382   7.329
14305WAT      O43156   2.527   9.647   1.305
14305WAT     H143157   2.454   9.676   1.243
14305WAT     H243158   2.574   9.568   1.267
14306WAT      O43159   8.982   3.039   9.171
14306WAT     H143160   9.035   3.119   9.142
14306WAT     H243161   8.884   3.061   9.168
14307WAT      O43162   6.505   5.270   9.340
14307WAT     H143163   6.555   5.286   9.425
14307WAT     H243164   6.515   5.174   9.312
14308WAT      O43165   7.842   8.784   2.125
14308WAT     H143166   7.792   8.869   2.142
14308WAT     H243167   7.870   8.744   2.213
14309WAT      O43168   9.315   1.188   6.376
14309WAT     H143169   9.371   1.216   6.299
14309WAT     H243170   9.315   1.088   6.383
14310WAT      O43171   5.341   1.394   8.755
14310WAT     H143172   5.376   1.323   8.695
14310WAT     H243173   5.335   1.359   8.849
14311WAT      O43174   5.889   2.472   1.561
14311WAT     H143175   5.812   2.492   1.501
14311WAT     H243176   5.856   2.431   1.646
14312WAT      O43177   2.402   2.417   8.520
14312WAT     H143178   2.456   2.334   8.508
14312WAT     H243179   2.371   2.423   8.616
14313WAT      O43180   7.609   7.044   4.991
14313WAT     H143181   7.684   7.040   4.924
14313WAT     H243182   7.617   7.127   5.045
14314WAT      O43183   8.268   4.385   1.314
14314WAT     H143184   8.270   4.302   1.258
14314WAT     H243185   8.318   4.369   1.399
14315WAT      O43186   1.389   7.416   0.199
14315WAT     H143187   1.298   7.383   0.173
14315WAT     H243188   1.429   7.466   0.122
14316WAT      O43189   2.299   3.571   8.227
14316WAT     H143190   2.319   3.545   8.133
14316WAT     H243191   2.219   3.521   8.259
14317WAT      O43192   4.305   3.540   1.638
14317WAT     H143193   4.383   3.600   1.618
14317WAT     H243194   4.305   3.463   1.574
14318WAT      O43195   4.343   7.366   9.278
14318WAT     H143196   4.365   7.415   9.362
14318WAT     H243197   4.269   7.300   9.296
14319WAT      O43198   1.433   0.377   1.190
14319WAT     H143199   1.349   0.406   1.237
14319WAT     H243200   1.462   0.289   1.226
14320WAT      O43201   6.119   5.159   8.674
14320WAT     H143202   6.088   5.222   8.745
14320WAT     H243203   6.120   5.065   8.710
14321WAT      O43204   1.244   2.446   3.515
14321WAT     H143205   1.202   2.476   3.601
14321WAT     H243206   1.181   2.463   3.439
14322WAT      O43207   5.717   9.655   4.505
14322WAT     H143208   5.786   9.634   4.436
14322WAT     H243209   5.752   9.632   4.595
14323WAT      O43210   3.570   7.466   0.875
14323WAT     H143211   3.614   7.534   0.817
14323WAT     H243212   3.640   7.411   0.921
14324WAT      O43213   7.425   7.080   1.351
14324WAT     H143214   7.350   7.051   1.291
14324WAT     H243215   7.408   7.046   1.444
14325WAT      O43216   2.940   0.198   2.891
14325WAT     H143217   3.030   0.235   2.913
14325WAT     H243218   2.903   0.246   2.811
14326WAT      O43219   3.783   3.226   4.854
14326WAT     H143220   3.832   3.200   4.770
14326WAT     H243221   3.722   3.302   4.834
14327WAT      O43222   6.469   3.836   5.857
14327WAT     H143223   6.518   3.814   5.942
14327WAT     H243224   6.498   3.925   5.824
14328WAT      O43225   6.226   4.861   2.131
14328WAT     H143226   6.133   4.899   2.138
14328WAT     H243227   6.233   4.805   2.048
14329WAT      O43228   8.468   4.320   1.984
14329WAT     H143229   8.459   4.251   1.912
14329WAT     H243230   8.385   4.321   2.039
14330WAT      O43231   5.741   4.753   0.758
14330WAT     H143232   5.731   4.845   0.798
14330WAT     H243233   5.753   4.686   0.831
14331WAT      O43234   5.502   2.690   5.130
14331WAT     H143235   5.587   2.675   5.180
14331WAT     H243236   5.458   2.603   5.112
14332WAT      O43237   4.973   4.777   3.801
14332WAT     H143238   4.878   4.792   3.830
14332WAT     H243239   4.981   4.688   3.758
14333WAT      O43240   7.904   6.156   2.326
14333WAT     H143241   7.923   6.208   2.409
14333WAT     H243242   7.932   6.061   2.339
14334WAT      O43243   1.611   4.249   1.501
14334WAT     H143244   1.614   4.306   1.583
14334WAT     H243245   1.649   4.159   1.521
14335WAT      O43246   7.628   2.144   9.265
14335WAT     H143247   7.713   2.091   9.266
14335WAT     H243248   7.619   2.193   9.352
14336WAT      O43249   4.332   8.442   6.666
14336WAT     H143250   4.275   8.392   6.601
14336WAT     H243251   4.428   8.419   6.651
14337WAT      O43252   4.733   5.522   0.520
14337WAT     H143253   4.668   5.530   0.595
14337WAT     H243254   4.815   5.475   0.552
14338WAT      O43255   2.190   5.421   7.460
14338WAT     H143256   2.105   5.368   7.466
14338WAT     H243257   2.249   5.381   7.390
14339WAT      O43258   2.741   5.805   0.070
14339WAT     H143259   2.727   5.779  -0.026
14339WAT     H243260   2.681   5.750   0.128
14340WAT      O43261   3.699   6.438   5.732
14340WAT     H143262   3.641   6.487   5.797
14340WAT     H243263   3.683   6.339   5.741
14341WAT      O43264   5.065   8.004   1.898
14341WAT     H143265   4.995   7.948   1.942
14341WAT     H243266   5.086   8.083   1.955
14342WAT      O43267   1.990   1.801   9.058
14342WAT     H143268   1.959   1.803   8.963
14342WAT     H243269   1.912   1.815   9.119
14343WAT      O43270   6.379   8.260   2.408
14343WAT     H143271   6.369   8.315   2.325
14343WAT     H243272   6.290   8.247   2.451
14344WAT      O43273   9.269   6.164   7.883
14344WAT     H143274   9.303   6.115   7.963
14344WAT     H243275   9.179   6.129   7.858
14345WAT      O43276   4.043   6.235   6.646
14345WAT     H143277   4.090   6.252   6.732
14345WAT     H243278   3.960   6.181   6.662
14346WAT      O43279   5.044   7.485   4.168
14346WAT     H143280   5.136   7.485   4.209
14346WAT     H243281   5.022   7.392   4.139
14347WAT      O43282   3.857   4.655   5.262
14347WAT     H143283   3.844   4.753   5.278
14347WAT     H243284   3.955   4.634   5.258
14348WAT      O43285   8.777   4.114   6.691
14348WAT     H143286   8.696   4.122   6.750
14348WAT     H243287   8.752   4.139   6.597
14349WAT      O43288   5.519   6.962   4.067
14349WAT     H143289   5.487   7.055   4.045
14349WAT     H243290   5.612   6.951   4.033
14350WAT      O43291   3.853   5.417   2.383
14350WAT     H143292   3.867   5.432   2.285
14350WAT     H243293   3.851   5.505   2.430
14351WAT      O43294   8.264   1.988   5.564
14351WAT     H143295   8.288   1.905   5.512
14351WAT     H243296   8.318   2.065   5.530
14352WAT      O43297   3.849   0.927   6.711
14352WAT     H143298   3.948   0.932   6.697
14352WAT     H243299   3.829   0.932   6.809
14353WAT      O43300   4.712   3.443   6.261
14353WAT     H143301   4.781   3.510   6.233
14353WAT     H243302   4.643   3.488   6.317
14354WAT      O43303   0.901   8.547   0.979
14354WAT     H143304   0.909   8.448   0.996
14354WAT     H243305   0.882   8.563   0.882
14355WAT      O43306   1.015   4.309   9.307
14355WAT     H143307   0.951   4.245   9.349
14355WAT     H243308   1.109   4.281   9.327
14356WAT      O43309   0.093   9.641   7.540
14356WAT     H143310   0.099   9.557   7.487
14356WAT     H243311   0.154   9.634   7.620
14357WAT      O43312   3.940   0.095   1.600
14357WAT     H143313   3.888   0.069   1.519
14357WAT     H243314   3.935   0.021   1.668
14358WAT      O43315   6.604   8.484   4.413
14358WAT     H143316   6.675   8.414   4.401
14358WAT     H243317   6.544   8.484   4.333
14359WAT      O43318   8.589   9.145   1.899
14359WAT     H143319   8.509   9.185   1.945
14359WAT     H243320   8.631   9.214   1.840
14360WAT      O43321   8.102   4.092   8.067
14360WAT     H143322   8.149   4.017   8.114
14360WAT     H243323   8.115   4.177   8.119
14361WAT      O43324   1.683   7.911   0.699
14361WAT     H143325   1.736   7.837   0.658
14361WAT     H243326   1.661   7.978   0.629
14362WAT      O43327   2.826   1.507   9.428
14362WAT     H143328   2.873   1.419   9.439
14362WAT     H243329   2.774   1.506   9.342
14363WAT      O43330   2.399   4.805   4.478
14363WAT     H143331   2.429   4.893   4.440
14363WAT     H243332   2.337   4.822   4.555
14364WAT      O43333   6.186   9.700   9.839
14364WAT     H143334   6.190   9.614   9.789
14364WAT     H243335   6.248   9.766   9.797
14365WAT      O43336   7.921   4.935   8.736
14365WAT     H143337   7.855   4.994   8.689
14365WAT     H243338   7.890   4.840   8.732
14366WAT      O43339   6.866   3.410   1.556
14366WAT     H143340   6.939   3.410   1.487
14366WAT     H243341   6.785   3.455   1.519
14367WAT      O43342   7.925   0.431   8.977
14367WAT     H143343   7.888   0.445   8.886
14367WAT     H243344   7.978   0.512   9.003
14368WAT      O43345   1.042   1.790   4.179
14368WAT     H143346   1.012   1.754   4.267
14368WAT     H243347   0.978   1.761   4.108
14369WAT      O43348   4.574   2.367   3.483
14369WAT     H143349   4.542   2.273   3.489
14369WAT     H243350   4.576   2.407   3.575
14370WAT      O43351   0.460   9.414   5.561
14370WAT     H143352   0.532   9.466   5.608
14370WAT     H243353   0.379   9.409   5.619
14371WAT      O43354   1.501   7.610   5.984
14371WAT     H143355   1.443   7.577   5.909
14371WAT     H243356   1.442   7.641   6.059
14372WAT      O43357   7.318   0.924   6.808
14372WAT     H143358   7.385   0.853   6.787
14372WAT     H243359   7.236   0.910   6.753
14373WAT      O43360   0.045   6.778   9.247
14373WAT     H143361   0.017   6.870   9.221
14373WAT     H243362   0.098   6.737   9.172
14374WAT      O43363   1.249   5.632   6.214
14374WAT     H143364   1.276   5.727   6.230
14374WAT     H243365   1.277   5.576   6.292
14375WAT      O43366   3.332   6.026   2.770
14375WAT     H143367   3.272   6.000   2.846
14375WAT     H243368   3.290   6.000   2.683
14376WAT      O43369   0.015   2.959   8.076
14376WAT     H143370   0.089   2.933   8.014
14376WAT     H243371  -0.042   3.029   8.033
14377WAT      O43372   4.173   7.642   5.279
14377WAT     H143373   4.272   7.639   5.296
14377WAT     H243374   4.129   7.701   5.347
14378WAT      O43375   3.922   0.852   0.550
14378WAT     H143376   4.005   0.857   0.606
14378WAT     H243377   3.844   0.884   0.604
14379WAT      O43378   2.670   1.173   6.790
14379WAT     H143379   2.573   1.198   6.790
14379WAT     H243380   2.681   1.082   6.829
14380WAT      O43381   6.491   5.890   9.313
14380WAT     H143382   6.455   5.935   9.231
14380WAT     H243383   6.470   5.792   9.309
14381WAT      O43384   3.335   3.629   5.754
14381WAT     H143385   3.342   3.595   5.847
14381WAT     H243386   3.293   3.559   5.696
14382WAT      O43387   3.681   5.979   6.052
14382WAT     H143388   3.592   5.979   6.098
14382WAT     H243389   3.676   5.925   5.968
14383WAT      O43390   4.855   6.407   0.306
14383WAT     H143391   4.803   6.477   0.355
14383WAT     H243392   4.828   6.317   0.339
14384WAT      O43393   4.867   4.711   0.301
14384WAT     H143394   4.777   4.745   0.327
14384WAT     H243395   4.914   4.678   0.383
14385WAT      O43396   6.190   4.065   3.322
14385WAT     H143397   6.219   4.029   3.234
14385WAT     H243398   6.090   4.073   3.324
14386WAT      O43399   8.782   1.654   2.542
14386WAT     H143400   8.866   1.601   2.533
14386WAT     H243401   8.773   1.716   2.464
14387WAT      O43402   3.830   4.498   3.435
14387WAT     H143403   3.891   4.511   3.357
14387WAT     H243404   3.843   4.406   3.473
14388WAT      O43405   9.777   4.209   3.786
14388WAT     H143406   9.855   4.175   3.735
14388WAT     H243407   9.693   4.189   3.736
14389WAT      O43408   7.581   5.314   1.675
14389WAT     H143409   7.606   5.404   1.710
14389WAT     H243410   7.551   5.323   1.580
14390WAT      O43411   1.902   8.585   5.056
14390WAT     H143412   1.830   8.524   5.022
14390WAT     H243413   1.928   8.557   5.148
14391WAT      O43414   7.884   5.246   7.175
14391WAT     H143415   7.895   5.335   7.130
14391WAT     H243416   7.970   5.220   7.218
14392WAT      O43417   0.709   1.022   9.685
14392WAT     H143418   0.767   1.088   9.636
14392WAT     H243419   0.756   0.993   9.769
14393WAT      O43420   5.782   2.478   9.103
14393WAT     H143421   5.803   2.492   9.006
14393WAT     H243422   5.683   2.476   9.116
14394WAT      O43423   8.135   3.072   4.289
14394WAT     H143424   8.165   2.993   4.341
14394WAT     H243425   8.150   3.056   4.191
14395WAT      O43426   1.108   7.382   9.724
14395WAT     H143427   1.112   7.373   9.824
14395WAT     H243428   1.049   7.460   9.701
14396WAT      O43429   0.213   9.182   8.510
14396WAT     H143430   0.234   9.186   8.608
14396WAT     H243431   0.193   9.087   8.484
14397WAT      O43432   5.565   0.687   0.198
14397WAT     H143433   5.480   0.697   0.249
14397WAT     H243434   5.561   0.743   0.115
14398WAT      O43435   4.475   7.876   1.315
14398WAT     H143436   4.401   7.908   1.374
14398WAT     H243437   4.542   7.825   1.369
14399WAT      O43438   7.683   1.968   5.938
14399WAT     H143439   7.752   1.917   5.888
14399WAT     H243440   7.692   2.066   5.917
14400WAT      O43441   0.335   5.750   8.999
14400WAT     H143442   0.339   5.848   8.980
14400WAT     H243443   0.421   5.721   9.041
14401WAT      O43444   0.481   2.585   8.027
14401WAT     H143445   0.503   2.673   7.986
14401WAT     H243446   0.388   2.558   8.001
14402WAT      O43447   7.218   6.924   0.550
14402WAT     H143448   7.255   6.876   0.471
14402WAT     H243449   7.243   6.875   0.633
14403WAT      O43450   2.052   1.756   3.247
14403WAT     H143451   2.146   1.725   3.262
14403WAT     H243452   1.989   1.697   3.297
14404WAT      O43453   4.303   1.014   8.238
14404WAT     H143454   4.323   0.973   8.149
14404WAT     H243455   4.253   1.100   8.225
14405WAT      O43456   0.081   3.490   6.869
14405WAT     H143457   0.037   3.441   6.944
14405WAT     H243458   0.034   3.468   6.783
14406WAT      O43459   9.695   0.180   2.421
14406WAT     H143460   9.772   0.122   2.397
14406WAT     H243461   9.676   0.172   2.519
14407WAT      O43462   7.340   0.385   0.238
14407WAT     H143463   7.298   0.311   0.187
14407WAT     H243464   7.419   0.421   0.188
14408WAT      O43465   8.133   7.901   5.507
14408WAT     H143466   8.067   7.829   5.483
14408WAT     H243467   8.121   7.978   5.444
14409WAT      O43468   8.210   5.112   9.748
14409WAT     H143469   8.276   5.110   9.824
14409WAT     H243470   8.243   5.175   9.677
14410WAT      O43471   8.093   4.439   8.540
14410WAT     H143472   8.057   4.347   8.556
14410WAT     H243473   8.168   4.434   8.474
14411WAT      O43474   4.644   8.388   2.638
14411WAT     H143475   4.716   8.449   2.604
14411WAT     H243476   4.649   8.384   2.738
14412WAT      O43477   8.904   6.042   3.854
14412WAT     H143478   8.825   6.094   3.820
14412WAT     H243479   8.910   6.052   3.954
14413WAT      O43480   3.972   4.914   0.293
14413WAT     H143481   3.885   4.952   0.323
14413WAT     H243482   3.974   4.816   0.310
14414WAT      O43483   4.579   6.935   5.198
14414WAT     H143484   4.575   7.020   5.147
14414WAT     H243485   4.505   6.933   5.266
14415WAT      O43486   3.655   9.379   2.719
14415WAT     H143487   3.669   9.306   2.786
14415WAT     H243488   3.572   9.429   2.742
14416WAT      O43489   7.475   2.393   5.525
14416WAT     H143490   7.434   2.331   5.458
14416WAT     H243491   7.543   2.451   5.479
14417WAT      O43492   5.664   5.126   0.624
14417WAT     H143493   5.747   5.179   0.638
14417WAT     H243494   5.681   5.054   0.556
14418WAT      O43495   6.194   5.756   0.318
14418WAT     H143496   6.247   5.688   0.269
14418WAT     H243497   6.232   5.768   0.410
14419WAT      O43498   1.143   5.606   1.828
14419WAT     H143499   1.145   5.522   1.882
14419WAT     H243500   1.049   5.638   1.818
14420WAT      O43501   7.826   6.888   2.902
14420WAT     H143502   7.918   6.910   2.870
14420WAT     H243503   7.819   6.905   3.000
14421WAT      O43504   3.530   3.364   9.557
14421WAT     H143505   3.476   3.299   9.611
14421WAT     H243506   3.600   3.406   9.615
14422WAT      O43507   6.183   5.735   8.234
14422WAT     H143508   6.219   5.695   8.318
14422WAT     H243509   6.195   5.671   8.159
14423WAT      O43510   7.822   7.229   9.147
14423WAT     H143511   7.790   7.248   9.240
14423WAT     H243512   7.922   7.232   9.145
14424WAT      O43513   8.551   8.635   0.979
14424WAT     H143514   8.583   8.730   0.976
14424WAT     H243515   8.461   8.632   1.022
14425WAT      O43516   8.335   2.288   1.060
14425WAT     H143517   8.402   2.301   0.987
14425WAT     H243518   8.263   2.357   1.051
14426WAT      O43519   8.796   8.464   2.099
14426WAT     H143520   8.700   8.451   2.075
14426WAT     H243521   8.853   8.402   2.045
14427WAT      O43522   3.561   5.302   1.616
14427WAT     H143523   3.528   5.292   1.522
14427WAT     H243524   3.491   5.270   1.680
14428WAT      O43525   0.275   2.249   5.865
14428WAT     H143526   0.233   2.315   5.802
14428WAT     H243527   0.304   2.168   5.814
14429WAT      O43528   9.212   5.086   5.952
14429WAT     H143529   9.200   4.988   5.966
14429WAT     H243530   9.194   5.108   5.856
14430WAT      O43531   6.475   6.304   9.051
14430WAT     H143532   6.397   6.366   9.043
14430WAT     H243533   6.526   6.325   9.134
14431WAT      O43534   9.252   5.217   6.692
14431WAT     H143535   9.171   5.273   6.711
14431WAT     H243536   9.320   5.272   6.643
14432WAT      O43537   2.333   6.915   4.032
14432WAT     H143538   2.369   6.965   3.953
14432WAT     H243539   2.319   6.979   4.108
14433WAT      O43540   8.462   8.207   7.707
14433WAT     H143541   8.432   8.266   7.633
14433WAT     H243542   8.555   8.231   7.734
14434WAT      O43543   4.768   5.804   6.778
14434WAT     H143544   4.690   5.826   6.719
14434WAT     H243545   4.778   5.705   6.784
14435WAT      O43546   3.655   5.418   1.094
14435WAT     H143547   3.709   5.501   1.107
14435WAT     H243548   3.715   5.343   1.066
14436WAT      O43549   1.517   2.001   9.305
14436WAT     H143550   1.520   1.926   9.371
14436WAT     H243551   1.425   2.009   9.267
14437WAT      O43552   4.443   6.329   0.691
14437WAT     H143553   4.376   6.331   0.616
14437WAT     H243554   4.395   6.316   0.778
14438WAT      O43555   8.707   2.824   3.402
14438WAT     H143556   8.608   2.810   3.405
14438WAT     H243557   8.739   2.812   3.308
14439WAT      O43558   2.692   3.412   5.271
14439WAT     H143559   2.781   3.424   5.228
14439WAT     H243560   2.675   3.487   5.335
14440WAT      O43561   9.508   1.749   8.646
14440WAT     H143562   9.514   1.716   8.552
14440WAT     H243563   9.415   1.736   8.680
14441WAT      O43564   2.471   8.216   1.157
14441WAT     H143565   2.435   8.260   1.075
14441WAT     H243566   2.566   8.243   1.171
14442WAT      O43567   2.783   0.020   1.326
14442WAT     H143568   2.791  -0.075   1.357
14442WAT     H243569   2.815   0.081   1.398
14443WAT      O43570   2.705   6.934   4.353
14443WAT     H143571   2.623   6.984   4.321
14443WAT     H243572   2.767   6.921   4.276
14444WAT      O43573   1.003   2.066   4.434
14444WAT     H143574   1.002   2.134   4.361
14444WAT     H243575   1.090   2.016   4.433
14445WAT      O43576   5.821   4.355   1.910
14445WAT     H143577   5.747   4.366   1.843
14445WAT     H243578   5.896   4.417   1.887
14446WAT      O43579   7.021   8.755   0.536
14446WAT     H143580   6.933   8.774   0.580
14446WAT     H243581   7.006   8.703   0.452
14447WAT      O43582   2.952   3.023   1.205
14447WAT     H143583   2.978   2.928   1.186
14447WAT     H243584   2.928   3.069   1.120
14448WAT      O43585   4.268   4.352   4.659
14448WAT     H143586   4.361   4.358   4.696
14448WAT     H243587   4.215   4.288   4.715
14449WAT      O43588   0.498   8.197   1.953
14449WAT     H143589   0.406   8.231   1.932
14449WAT     H243590   0.565   8.267   1.928
14450WAT      O43591   6.861   5.592   0.014
14450WAT     H143592   6.859   5.588   0.113
14450WAT     H243593   6.798   5.662  -0.018
14451WAT      O43594   0.939   6.794   4.837
14451WAT     H143595   0.969   6.887   4.857
14451WAT     H243596   0.895   6.792   4.747
14452WAT      O43597   6.931   7.984   8.226
14452WAT     H143598   7.001   8.055   8.231
14452WAT     H243599   6.944   7.930   8.143
14453WAT      O43600   7.610   0.235   0.847
14453WAT     H143601   7.541   0.308   0.850
14453WAT     H243602   7.646   0.219   0.939
14454WAT      O43603   9.201   9.760   3.052
14454WAT     H143604   9.152   9.734   2.969
14454WAT     H243605   9.300   9.760   3.034
14455WAT      O43606   9.687   6.884   0.431
14455WAT     H143607   9.731   6.973   0.425
14455WAT     H243608   9.657   6.855   0.340
14456WAT      O43609   0.606   7.012   7.780
14456WAT     H143610   0.582   7.026   7.684
14456WAT     H243611   0.695   7.053   7.798
14457WAT      O43612   3.308   7.354   0.874
14457WAT     H143613   3.391   7.407   0.857
14457WAT     H243614   3.314   7.314   0.965
14458WAT      O43615   8.650   8.296   7.869
14458WAT     H143616   8.616   8.355   7.943
14458WAT     H243617   8.726   8.241   7.903
14459WAT      O43618   9.370   2.424   1.094
14459WAT     H143619   9.424   2.504   1.066
14459WAT     H243620   9.288   2.418   1.037
14460WAT      O43621   5.260   0.042   8.679
14460WAT     H143622   5.205  -0.039   8.654
14460WAT     H243623   5.254   0.110   8.606
14461WAT      O43624   6.135   6.787   4.823
14461WAT     H143625   6.069   6.738   4.880
14461WAT     H243626   6.152   6.878   4.862
14462WAT      O43627   8.147   0.116   8.147
14462WAT     H143628   8.193   0.170   8.077
14462WAT     H243629   8.082   0.173   8.196
14463WAT      O43630   7.432   5.005   0.386
14463WAT     H143631   7.449   4.913   0.351
14463WAT     H243632   7.503   5.029   0.452
14464WAT      O43633   3.845   2.481   6.416
14464WAT     H143634   3.896   2.395   6.419
14464WAT     H243635   3.843   2.515   6.323
14465WAT      O43636   4.501   9.470   6.995
14465WAT     H143637   4.442   9.413   6.938
14465WAT     H243638   4.541   9.414   7.068
14466WAT      O43639   8.872   7.834   9.298
14466WAT     H143640   8.826   7.748   9.323
14466WAT     H243641   8.921   7.869   9.378
14467WAT      O43642   0.772   1.840   7.779
14467WAT     H143643   0.715   1.777   7.832
14467WAT     H243644   0.823   1.789   7.710
14468WAT      O43645   7.614   3.465   6.366
14468WAT     H143646   7.649   3.377   6.399
14468WAT     H243647   7.640   3.536   6.431
14469WAT      O43648   1.668   3.316   7.398
14469WAT     H143649   1.580   3.341   7.439
14469WAT     H243650   1.653   3.255   7.320
14470WAT      O43651   8.173   2.553   3.196
14470WAT     H143652   8.114   2.487   3.243
14470WAT     H243653   8.235   2.504   3.135
14471WAT      O43654   7.877   0.940   2.026
14471WAT     H143655   7.971   0.923   1.996
14471WAT     H243656   7.859   1.038   2.025
14472WAT      O43657   1.403   7.539   2.613
14472WAT     H143658   1.333   7.557   2.544
14472WAT     H243659   1.425   7.441   2.614
14473WAT      O43660   0.151   6.573   6.107
14473WAT     H143661   0.153   6.628   6.024
14473WAT     H243662   0.243   6.570   6.147
14474WAT      O43663   3.517   7.232   2.931
14474WAT     H143664   3.508   7.221   3.030
14474WAT     H243665   3.427   7.229   2.889
14475WAT      O43666   2.009   0.780   6.222
14475WAT     H143667   1.997   0.709   6.154
14475WAT     H243668   1.920   0.818   6.248
14476WAT      O43669   3.562   2.923   4.933
14476WAT     H143670   3.534   2.837   4.890
14476WAT     H243671   3.605   2.982   4.865
14477WAT      O43672   7.723   3.617   3.427
14477WAT     H143673   7.715   3.681   3.351
14477WAT     H243674   7.815   3.577   3.427
14478WAT      O43675   5.215   9.003   4.807
14478WAT     H143676   5.203   9.045   4.717
14478WAT     H243677   5.147   8.930   4.819
14479WAT      O43678   0.583   2.837   8.907
14479WAT     H143679   0.589   2.851   9.005
14479WAT     H243680   0.674   2.815   8.870
14480WAT      O43681   3.365   5.131   5.697
14480WAT     H143682   3.415   5.217   5.688
14480WAT     H243683   3.406   5.075   5.769
14481WAT      O43684   7.120   0.102   7.107
14481WAT     H143685   7.082   0.011   7.094
14481WAT     H243686   7.132   0.146   7.018
14482WAT      O43687   4.317   4.971   8.294
14482WAT     H143688   4.308   4.873   8.277
14482WAT     H243689   4.392   5.008   8.240
14483WAT      O43690   4.120   6.461   6.218
14483WAT     H143691   4.202   6.477   6.162
14483WAT     H243692   4.147   6.413   6.302
14484WAT      O43693   5.847   6.919   0.685
14484WAT     H143694   5.857   6.955   0.592
14484WAT     H243695   5.936   6.921   0.730
14485WAT      O43696   1.765   6.319   6.400
14485WAT     H143697   1.733   6.236   6.355
14485WAT     H243698   1.861   6.334   6.378
14486WAT      O43699   3.371   2.298   8.814
14486WAT     H143700   3.353   2.219   8.871
14486WAT     H243701   3.285   2.346   8.795
14487WAT      O43702   5.650   0.687   2.136
14487WAT     H143703   5.597   0.629   2.074
14487WAT     H243704   5.739   0.645   2.153
14488WAT      O43705   1.271   8.022   0.752
14488WAT     H143706   1.344   8.090   0.747
14488WAT     H243707   1.242   7.997   0.660
14489WAT      O43708   4.368   2.111   1.911
14489WAT     H143709   4.382   2.023   1.956
14489WAT     H243710   4.281   2.151   1.940
14490WAT      O43711   7.957   9.712   9.539
14490WAT     H143712   7.864   9.745   9.553
14490WAT     H243713   8.006   9.713   9.626
14491WAT      O43714   0.412   4.715   2.736
14491WAT     H143715   0.465   4.785   2.689
14491WAT     H243716   0.330   4.693   2.683
14492WAT      O43717   9.029   9.485   6.134
14492WAT     H143718   9.049   9.583   6.138
14492WAT     H243719   8.941   9.472   6.088
14493WAT      O43720   2.098   4.304   5.599
14493WAT     H143721   2.011   4.269   5.631
14493WAT     H243722   2.169   4.290   5.668
14494WAT      O43723   5.053   5.948   7.524
14494WAT     H143724   5.012   6.031   7.485
14494WAT     H243725   5.071   5.963   7.622
14495WAT      O43726   0.223   3.195   1.751
14495WAT     H143727   0.186   3.102   1.763
14495WAT     H243728   0.184   3.255   1.821
14496WAT      O43729   2.285   5.379   8.425
14496WAT     H143730   2.269   5.294   8.374
14496WAT     H243731   2.203   5.435   8.423
14497WAT      O43732   1.230   8.563   8.241
14497WAT     H143733   1.227   8.518   8.151
14497WAT     H243734   1.316   8.541   8.286
14498WAT      O43735   0.964   9.622   6.129
14498WAT     H143736   0.892   9.682   6.163
14498WAT     H243737   0.974   9.544   6.191
14499WAT      O43738   6.742   2.071   1.645
14499WAT     H143739   6.828   2.110   1.676
14499WAT     H243740   6.760   1.994   1.583
14500WAT      O43741   7.941   1.662   5.213
14500WAT     H143742   7.857   1.641   5.262
14500WAT     H243743   7.918   1.694   5.120
14501WAT      O43744   7.457   1.584   1.422
14501WAT     H143745   7.393   1.546   1.357
14501WAT     H243746   7.545   1.536   1.415
14502WAT      O43747   1.831   3.938   5.047
14502WAT     H143748   1.928   3.943   5.071
14502WAT     H243749   1.784   3.876   5.110
14503WAT      O43750   9.285   8.100   6.466
14503WAT     H143751   9.191   8.095   6.431
14503WAT     H243752   9.317   8.007   6.488
14504WAT      O43753   4.231   3.802   5.626
14504WAT     H143754   4.158   3.777   5.690
14504WAT     H243755   4.190   3.829   5.539
14505WAT      O43756   8.911   1.540   5.102
14505WAT     H143757   8.972   1.601   5.152
14505WAT     H243758   8.831   1.518   5.158
14506WAT      O43759   8.437   9.185   0.133
14506WAT     H143760   8.397   9.219   0.218
14506WAT     H243761   8.509   9.247   0.102
14507WAT      O43762   1.054   2.112   2.342
14507WAT     H143763   0.972   2.075   2.297
14507WAT     H243764   1.117   2.148   2.274
14508WAT      O43765   4.873   6.597   7.285
14508WAT     H143766   4.894   6.503   7.311
14508WAT     H243767   4.833   6.599   7.194
14509WAT      O43768   0.787   2.001   6.978
14509WAT     H143769   0.855   1.997   6.905
14509WAT     H243770   0.832   1.984   7.066
14510WAT      O43771   4.558   3.925   0.434
14510WAT     H143772   4.510   3.909   0.348
14510WAT     H243773   4.621   4.002   0.423
14511WAT      O43774   9.857   8.676   8.066
14511WAT     H143775   9.932   8.629   8.020
14511WAT     H243776   9.770   8.655   8.021
14512WAT      O43777   5.049   5.492   0.441
14512WAT     H143778   5.146   5.481   0.419
14512WAT     H243779   5.006   5.402   0.447
14513WAT      O43780   1.000   5.415   7.113
14513WAT     H143781   1.089   5.451   7.142
14513WAT     H243782   1.012   5.355   7.035
14514WAT      O43783   2.562   2.354   4.021
14514WAT     H143784   2.625   2.338   4.097
14514WAT     H243785   2.473   2.381   4.057
14515WAT      O43786   5.925   3.355   9.293
14515WAT     H143787   5.890   3.278   9.241
14515WAT     H243788   6.005   3.394   9.247
14516WAT      O43789   5.527   6.175   3.037
14516WAT     H143790   5.500   6.244   3.104
14516WAT     H243791   5.450   6.113   3.020
14517WAT      O43792   8.537   3.360   4.129
14517WAT     H143793   8.438   3.369   4.126
14517WAT     H243794   8.578   3.447   4.155
14518WAT      O43795   1.982   4.409   9.220
14518WAT     H143796   2.002   4.339   9.288
14518WAT     H243797   1.906   4.378   9.162
14519WAT      O43798   2.327   3.997   8.307
14519WAT     H143799   2.350   3.912   8.354
14519WAT     H243800   2.303   3.977   8.212
14520WAT      O43801   7.424   2.466   9.810
14520WAT     H143802   7.450   2.541   9.869
14520WAT     H243803   7.327   2.444   9.825
14521WAT      O43804   1.315   2.349   4.023
14521WAT     H143805   1.246   2.301   3.968
14521WAT     H243806   1.359   2.283   4.084
14522WAT      O43807   9.829   4.220   7.508
14522WAT     H143808   9.747   4.244   7.559
14522WAT     H243809   9.840   4.121   7.505
14523WAT      O43810   9.642   4.328   1.963
14523WAT     H143811   9.543   4.313   1.969
14523WAT     H243812   9.689   4.256   2.014
14524WAT      O43813   1.900   2.422   6.313
14524WAT     H143814   1.880   2.493   6.380
14524WAT     H243815   1.888   2.332   6.354
14525WAT      O43816   9.784   8.645   6.012
14525WAT     H143817   9.828   8.723   5.967
14525WAT     H243818   9.788   8.565   5.953
14526WAT      O43819   5.301   4.652   4.394
14526WAT     H143820   5.329   4.624   4.485
14526WAT     H243821   5.291   4.571   4.336
14527WAT      O43822   1.304   8.365   6.105
14527WAT     H143823   1.354   8.451   6.112
14527WAT     H243824   1.239   8.357   6.180
14528WAT      O43825   5.129   9.329   4.555
14528WAT     H143826   5.049   9.322   4.614
14528WAT     H243827   5.164   9.237   4.536
14529WAT      O43828   9.496   9.308   2.712
14529WAT     H143829   9.463   9.227   2.760
14529WAT     H243830   9.468   9.304   2.616
14530WAT      O43831   9.151   8.180   4.876
14530WAT     H143832   9.058   8.156   4.906
14530WAT     H243833   9.216   8.113   4.914
14531WAT      O43834   8.480   3.224   0.838
14531WAT     H143835   8.535   3.308   0.843
14531WAT     H243836   8.514   3.158   0.904
14532WAT      O43837   5.413   7.189   9.307
14532WAT     H143838   5.391   7.100   9.347
14532WAT     H243839   5.345   7.257   9.336
14533WAT      O43840   3.125   3.747   8.751
14533WAT     H143841   3.126   3.660   8.701
14533WAT     H243842   3.044   3.751   8.809
14534WAT      O43843   5.844   1.350   5.135
14534WAT     H143844   5.825   1.435   5.085
14534WAT     H243845   5.880   1.281   5.072
14535WAT      O43846   0.687   6.301   0.978
14535WAT     H143847   0.714   6.369   1.046
14535WAT     H243848   0.699   6.340   0.886
14536WAT      O43849   2.775   2.999   0.125
14536WAT     H143850   2.837   3.020   0.049
14536WAT     H243851   2.828   2.988   0.209
14537WAT      O43852   8.546   8.108   5.489
14537WAT     H143853   8.508   8.090   5.580
14537WAT     H243854   8.615   8.039   5.468
14538WAT      O43855   3.312   9.782   5.284
14538WAT     H143856   3.225   9.831   5.287
14538WAT     H243857   3.296   9.686   5.260
14539WAT      O43858   9.119   5.068   1.037
14539WAT     H143859   9.144   5.057   0.941
14539WAT     H243860   9.194   5.036   1.095
14540WAT      O43861   3.873   6.404   0.511
14540WAT     H143862   3.948   6.469   0.524
14540WAT     H243863   3.842   6.371   0.600
14541WAT      O43864   4.335   6.183   5.246
14541WAT     H143865   4.315   6.280   5.234
14541WAT     H243866   4.408   6.173   5.314
14542WAT      O43867   9.362   3.021   5.750
14542WAT     H143868   9.323   2.946   5.802
14542WAT     H243869   9.446   3.053   5.793
14543WAT      O43870   3.338   3.553   1.525
14543WAT     H143871   3.286   3.584   1.605
14543WAT     H243872   3.428   3.596   1.524
14544WAT      O43873   0.009   1.903   0.155
14544WAT     H143874   0.018   1.986   0.210
14544WAT     H243875  -0.031   1.831   0.210
14545WAT      O43876   2.436   6.365   5.811
14545WAT     H143877   2.452   6.270   5.838
14545WAT     H243878   2.518   6.419   5.830
14546WAT      O43879   8.954   8.687   2.275
14546WAT     H143880   9.053   8.696   2.261
14546WAT     H243881   8.922   8.601   2.235
14547WAT      O43882   6.973   5.675   4.654
14547WAT     H143883   6.877   5.678   4.626
14547WAT     H243884   7.025   5.618   4.590
14548WAT      O43885   2.722   0.618   8.081
14548WAT     H143886   2.807   0.620   8.134
14548WAT     H243887   2.734   0.563   7.999
14549WAT      O43888   9.575   7.828   3.813
14549WAT     H143889   9.507   7.888   3.855
14549WAT     H243890   9.569   7.835   3.713
14550WAT      O43891   9.209   9.315   0.341
14550WAT     H143892   9.226   9.387   0.274
14550WAT     H243893   9.121   9.271   0.322
14551WAT      O43894   8.783   6.984   4.827
14551WAT     H143895   8.858   7.012   4.767
14551WAT     H243896   8.786   7.036   4.912
14552WAT      O43897   5.382   1.743   7.791
14552WAT     H143898   5.456   1.801   7.823
14552WAT     H243899   5.294   1.786   7.813
14553WAT      O43900   0.459   6.016   7.758
14553WAT     H143901   0.420   6.057   7.675
14553WAT     H243902   0.417   5.927   7.774
14554WAT      O43903   8.694   8.126   1.979
14554WAT     H143904   8.626   8.054   1.964
14554WAT     H243905   8.724   8.162   1.890
14555WAT      O43906   9.112   3.554   1.209
14555WAT     H143907   9.135   3.465   1.248
14555WAT     H243908   9.127   3.551   1.110
14556WAT      O43909   7.189   6.914   5.914
14556WAT     H143910   7.179   6.925   6.013
14556WAT     H243911   7.169   7.001   5.869
14557WAT      O43912   2.579   6.064   8.593
14557WAT     H143913   2.556   6.152   8.635
14557WAT     H243914   2.519   5.993   8.630
14558WAT      O43915   5.059   9.622   4.284
14558WAT     H143916   5.020   9.530   4.283
14558WAT     H243917   4.986   9.689   4.298
14559WAT      O43918   4.103   4.044   1.498
14559WAT     H143919   4.095   4.047   1.399
14559WAT     H243920   4.112   3.949   1.528
14560WAT      O43921   5.846   8.166   2.687
14560WAT     H143922   5.934   8.212   2.693
14560WAT     H243923   5.778   8.227   2.645
14561WAT      O43924   8.464   7.416   4.484
14561WAT     H143925   8.410   7.333   4.493
14561WAT     H243926   8.520   7.411   4.402
14562WAT      O43927   6.209   6.084   7.538
14562WAT     H143928   6.214   6.040   7.628
14562WAT     H243929   6.161   6.171   7.546
14563WAT      O43930   1.746   4.129   8.652
14563WAT     H143931   1.730   4.211   8.597
14563WAT     H243932   1.687   4.131   8.732
14564WAT      O43933   6.971   9.375   3.105
14564WAT     H143934   6.997   9.455   3.159
14564WAT     H243935   6.951   9.298   3.166
14565WAT      O43936   5.198   6.175   1.148
14565WAT     H143937   5.276   6.209   1.201
14565WAT     H243938   5.114   6.215   1.183
14566WAT      O43939   4.788   9.548   3.640
14566WAT     H143940   4.843   9.472   3.675
14566WAT     H243941   4.699   9.548   3.684
14567WAT      O43942   6.879   4.853   7.505
14567WAT     H143943   6.894   4.816   7.413
14567WAT     H243944   6.966   4.852   7.555
14568WAT      O43945   4.654   8.184   8.045
14568WAT     H143946   4.564   8.225   8.030
14568WAT     H243947   4.720   8.256   8.069
14569WAT      O43948   3.727   2.789   8.020
14569WAT     H143949   3.755   2.792   7.924
14569WAT     H243950   3.745   2.877   8.063
14570WAT      O43951   5.744   5.417   9.747
14570WAT     H143952   5.827   5.374   9.711
14570WAT     H243953   5.719   5.372   9.833
14571WAT      O43954   8.341   8.981   4.194
14571WAT     H143955   8.247   8.954   4.174
14571WAT     H243956   8.344   9.029   4.282
14572WAT      O43957   0.395   2.471   5.094
14572WAT     H143958   0.475   2.417   5.123
14572WAT     H243959   0.362   2.437   5.006
14573WAT      O43960   9.528   3.056   6.524
14573WAT     H143961   9.492   3.136   6.573
14573WAT     H243962   9.483   2.973   6.557
14574WAT      O43963   6.400   4.838   4.599
14574WAT     H143964   6.352   4.757   4.568
14574WAT     H243965   6.352   4.879   4.676
14575WAT      O43966   5.143   9.006   9.335
14575WAT     H143967   5.234   8.981   9.366
14575WAT     H243968   5.134   9.105   9.332
14576WAT      O43969   0.099   7.893   5.110
14576WAT     H143970   0.108   7.795   5.092
14576WAT     H243971   0.095   7.943   5.024
14577WAT      O43972   7.736   3.586   8.966
14577WAT     H143973   7.774   3.661   8.913
14577WAT     H243974   7.808   3.545   9.022
14578WAT      O43975   9.745   3.262   9.456
14578WAT     H143976   9.730   3.262   9.357
14578WAT     H243977   9.783   3.350   9.484
14579WAT      O43978   2.257   4.703   1.639
14579WAT     H143979   2.160   4.723   1.654
14579WAT     H243980   2.270   4.604   1.638
14580WAT      O43981   4.164   6.730   0.413
14580WAT     H143982   4.224   6.809   0.425
14580WAT     H243983   4.150   6.713   0.316
14581WAT      O43984   1.601   0.736   6.356
14581WAT     H143985   1.578   0.706   6.448
14581WAT     H243986   1.652   0.822   6.361
14582WAT      O43987   6.677   9.165   6.558
14582WAT     H143988   6.704   9.152   6.654
14582WAT     H243989   6.658   9.076   6.516
14583WAT      O43990   0.458   8.257   6.842
14583WAT     H143991   0.359   8.244   6.855
14583WAT     H243992   0.507   8.185   6.891
14584WAT      O43993   4.048   3.989   1.235
14584WAT     H143994   4.120   3.940   1.185
14584WAT     H243995   4.019   4.068   1.181
14585WAT      O43996   2.527   8.750   3.973
14585WAT     H143997   2.622   8.761   3.944
14585WAT     H243998   2.522   8.747   4.072
14586WAT      O43999   5.618   5.686   6.717
14586WAT     H144000   5.524   5.720   6.727
14586WAT     H244001   5.645   5.690   6.621
14587WAT      O44002   1.103   0.306   0.267
14587WAT     H144003   1.048   0.329   0.348
14587WAT     H244004   1.059   0.232   0.217
14588WAT      O44005   5.052   8.534   8.929
14588WAT     H144006   5.088   8.457   8.877
14588WAT     H244007   5.009   8.599   8.867
14589WAT      O44008   0.168   9.683   8.018
14589WAT     H144009   0.070   9.673   8.002
14589WAT     H244010   0.189   9.777   8.045
14590WAT      O44011   5.097   3.841   3.553
14590WAT     H144012   5.196   3.856   3.552
14590WAT     H244013   5.062   3.856   3.646
14591WAT      O44014   9.340   1.033   2.863
14591WAT     H144015   9.385   0.964   2.807
14591WAT     H244016   9.327   0.998   2.955
14592WAT      O44017   7.055   0.238   4.785
14592WAT     H144018   6.986   0.280   4.843
14592WAT     H244019   7.056   0.139   4.802
14593WAT      O44020   1.217   5.250   6.218
14593WAT     H144021   1.211   5.199   6.303
14593WAT     H244022   1.163   5.333   6.224
14594WAT      O44023   6.948   6.394   3.430
14594WAT     H144024   6.867   6.364   3.379
14594WAT     H244025   6.957   6.339   3.513
14595WAT      O44026   0.203   2.514   5.777
14595WAT     H144027   0.303   2.518   5.779
14595WAT     H244028   0.165   2.572   5.849
14596WAT      O44029   8.006   1.248   8.757
14596WAT     H144030   7.999   1.152   8.729
14596WAT     H244031   8.091   1.287   8.723
14597WAT      O44032   1.602   2.813   5.614
14597WAT     H144033   1.521   2.867   5.638
14597WAT     H244034   1.684   2.865   5.638
14598WAT      O44035   4.870   2.271   0.085
14598WAT     H144036   4.961   2.229   0.079
14598WAT     H244037   4.800   2.200   0.074
14599WAT      O44038   2.720   5.360   0.765
14599WAT     H144039   2.779   5.397   0.837
14599WAT     H244040   2.724   5.260   0.767
14600WAT      O44041   5.405   0.278   9.264
14600WAT     H144042   5.502   0.300   9.253
14600WAT     H244043   5.350   0.335   9.204
14601WAT      O44044   8.044   6.933   5.884
14601WAT     H144045   8.095   6.956   5.967
14601WAT     H244046   8.095   6.866   5.830
14602WAT      O44047   3.404   3.193   9.723
14602WAT     H144048   3.347   3.119   9.688
14602WAT     H244049   3.360   3.235   9.802
14603WAT      O44050   8.676   4.436   2.473
14603WAT     H144051   8.617   4.501   2.426
14603WAT     H244052   8.772   4.459   2.456
14604WAT      O44053   3.993   0.904   5.134
14604WAT     H144054   3.943   0.987   5.158
14604WAT     H244055   4.034   0.865   5.217
14605WAT      O44056   2.451   3.798   5.118
14605WAT     H144057   2.547   3.817   5.101
14605WAT     H244058   2.400   3.885   5.120
14606WAT      O44059   9.575   7.108   4.840
14606WAT     H144060   9.597   7.185   4.900
14606WAT     H244061   9.489   7.066   4.870
14607WAT      O44062   1.449   9.829   9.098
14607WAT     H144063   1.443   9.923   9.133
14607WAT     H244064   1.468   9.767   9.174
14608WAT      O44065   7.582   1.958   4.754
14608WAT     H144066   7.669   1.947   4.706
14608WAT     H244067   7.586   2.039   4.812
14609WAT      O44068   5.217   8.683   1.098
14609WAT     H144069   5.269   8.755   1.144
14609WAT     H244070   5.237   8.595   1.141
14610WAT      O44071   5.448   3.274   4.863
14610WAT     H144072   5.378   3.345   4.872
14610WAT     H244073   5.499   3.290   4.778
14611WAT      O44074   3.236   5.999   8.716
14611WAT     H144075   3.188   5.918   8.682
14611WAT     H244076   3.238   5.997   8.816
14612WAT      O44077   3.352   9.515   7.420
14612WAT     H144078   3.335   9.460   7.339
14612WAT     H244079   3.431   9.478   7.469
14613WAT      O44080   2.716   3.720   4.428
14613WAT     H144081   2.677   3.676   4.509
14613WAT     H244082   2.780   3.657   4.383
14614WAT      O44083   5.563   0.443   0.965
14614WAT     H144084   5.544   0.424   1.062
14614WAT     H244085   5.567   0.542   0.951
14615WAT      O44086   5.315   7.680   2.899
14615WAT     H144087   5.233   7.730   2.924
14615WAT     H244088   5.306   7.647   2.805
14616WAT      O44089   9.004   5.912   7.761
14616WAT     H144090   8.954   5.868   7.836
14616WAT     H244091   8.991   6.011   7.766
14617WAT      O44092   3.069   2.524   4.228
14617WAT     H144093   3.159   2.561   4.206
14617WAT     H244094   3.006   2.545   4.153
14618WAT      O44095   7.618   1.851   8.351
14618WAT     H144096   7.680   1.871   8.426
14618WAT     H244097   7.524   1.848   8.385
14619WAT      O44098   9.041   5.506   5.271
14619WAT     H144099   8.975   5.451   5.220
14619WAT     H244100   9.043   5.598   5.234
14620WAT      O44101   2.205   2.848   8.493
14620WAT     H144102   2.249   2.842   8.403
14620WAT     H244103   2.270   2.884   8.559
14621WAT      O44104   2.374   4.571   4.780
14621WAT     H144105   2.464   4.614   4.784
14621WAT     H244106   2.382   4.473   4.797
14622WAT      O44107   0.374   5.486   8.852
14622WAT     H144108   0.351   5.499   8.756
14622WAT     H244109   0.324   5.552   8.908
14623WAT      O44110   9.476   3.641   3.355
14623WAT     H144111   9.464   3.634   3.454
14623WAT     H244112   9.511   3.554   3.320
14624WAT      O44113   7.235   8.011   1.374
14624WAT     H144114   7.272   7.919   1.383
14624WAT     H244115   7.162   8.012   1.305
14625WAT      O44116   4.189   6.311   6.426
14625WAT     H144117   4.126   6.269   6.491
14625WAT     H244118   4.280   6.318   6.468
14626WAT      O44119   8.113   8.117   5.339
14626WAT     H144120   8.138   8.200   5.389
14626WAT     H244121   8.051   8.140   5.265
14627WAT      O44122   3.534   4.644   9.816
14627WAT     H144123   3.598   4.687   9.753
14627WAT     H244124   3.440   4.663   9.787
14628WAT      O44125   4.030   2.508   8.074
14628WAT     H144126   3.959   2.557   8.125
14628WAT     H244127   4.097   2.470   8.139
14629WAT      O44128   6.721   9.656   5.137
14629WAT     H144129   6.816   9.625   5.141
14629WAT     H244130   6.665   9.587   5.089
14630WAT      O44131   9.274   6.771   2.081
14630WAT     H144132   9.225   6.857   2.066
14630WAT     H244133   9.274   6.750   2.179
14631WAT      O44134   3.530   3.558   6.432
14631WAT     H144135   3.547   3.505   6.515
14631WAT     H244136   3.519   3.654   6.456
14632WAT      O44137   9.242   7.289   9.488
14632WAT     H144138   9.143   7.304   9.494
14632WAT     H244139   9.260   7.204   9.438
14633WAT      O44140   8.169   3.163   2.363
14633WAT     H144141   8.221   3.131   2.284
14633WAT     H244142   8.141   3.085   2.419
14634WAT      O44143   6.751   9.650   2.690
14634WAT     H144144   6.668   9.704   2.699
14634WAT     H244145   6.774   9.641   2.593
14635WAT      O44146   9.074   9.522   7.307
14635WAT     H144147   9.102   9.462   7.381
14635WAT     H244148   9.154   9.547   7.252
14636WAT      O44149   5.530   0.897   4.228
14636WAT     H144150   5.467   0.823   4.205
14636WAT     H244151   5.488   0.955   4.298
14637WAT      O44152   2.647   1.950   0.663
14637WAT     H144153   2.667   2.023   0.729
14637WAT     H244154   2.728   1.933   0.607
14638WAT      O44155   7.077   9.718   9.873
14638WAT     H144156   7.083   9.623   9.842
14638WAT     H244157   7.077   9.720   9.973
14639WAT      O44158   5.462   2.296   9.134
14639WAT     H144159   5.366   2.279   9.112
14639WAT     H244160   5.520   2.248   9.068
14640WAT      O44161   6.836   6.086   5.616
14640WAT     H144162   6.920   6.096   5.563
14640WAT     H244163   6.856   6.037   5.701
14641WAT      O44164   6.264   1.198   8.075
14641WAT     H144165   6.228   1.111   8.043
14641WAT     H244166   6.203   1.272   8.047
14642WAT      O44167   0.180   0.706   2.595
14642WAT     H144168   0.267   0.720   2.548
14642WAT     H244169   0.156   0.789   2.646
14643WAT      O44170   1.091   0.926   0.333
14643WAT     H144171   1.071   0.877   0.418
14643WAT     H244172   1.101   0.861   0.258
14644WAT      O44173   5.256   3.682   4.667
14644WAT     H144174   5.355   3.671   4.655
14644WAT     H244175   5.235   3.778   4.687
14645WAT      O44176   9.855   6.109   4.447
14645WAT     H144177   9.871   6.202   4.412
14645WAT     H244178   9.846   6.112   4.547
14646WAT      O44179   3.809   3.751   2.035
14646WAT     H144180   3.865   3.729   2.115
14646WAT     H244181   3.717   3.713   2.046
14647WAT      O44182   3.272   8.648   9.682
14647WAT     H144183   3.310   8.575   9.737
14647WAT     H244184   3.286   8.628   9.585
14648WAT      O44185   1.514   8.017   4.757
14648WAT     H144186   1.453   8.056   4.827
14648WAT     H244187   1.459   7.971   4.688
14649WAT      O44188   2.379   8.869   0.905
14649WAT     H144189   2.466   8.891   0.861
14649WAT     H244190   2.305   8.876   0.838
14650WAT      O44191   1.045   6.929   4.208
14650WAT     H144192   0.987   6.959   4.283
14650WAT     H244193   1.090   7.008   4.167
14651WAT      O44194   1.379   3.714   0.234
14651WAT     H144195   1.402   3.678   0.144
14651WAT     H244196   1.446   3.681   0.301
14652WAT      O44197   9.396   7.177   1.803
14652WAT     H144198   9.473   7.211   1.750
14652WAT     H244199   9.414   7.083   1.831
14653WAT      O44200   0.689   5.704   1.575
14653WAT     H144201   0.663   5.685   1.670
14653WAT     H244202   0.770   5.650   1.552
14654WAT      O44203   8.266   2.294   5.133
14654WAT     H144204   8.344   2.337   5.179
14654WAT     H244205   8.299   2.238   5.057
14655WAT      O44206   1.042   7.493   1.926
14655WAT     H144207   1.037   7.516   2.024
14655WAT     H244208   1.047   7.577   1.872
14656WAT      O44209   6.841   1.311   5.122
14656WAT     H144210   6.770   1.380   5.102
14656WAT     H244211   6.862   1.312   5.219
14657WAT      O44212   1.193   7.845   1.607
14657WAT     H144213   1.172   7.752   1.575
14657WAT     H244214   1.197   7.907   1.529
14658WAT      O44215   3.215   2.326   0.503
14658WAT     H144216   3.303   2.280   0.513
14658WAT     H244217   3.144   2.259   0.483
14659WAT      O44218   4.951   7.641   8.923
14659WAT     H144219   4.953   7.730   8.968
14659WAT     H244220   5.031   7.588   8.951
14660WAT      O44221   7.478   8.356   8.283
14660WAT     H144222   7.527   8.273   8.312
14660WAT     H244223   7.428   8.337   8.199
14661WAT      O44224   4.162   1.466   0.843
14661WAT     H144225   4.155   1.469   0.943
14661WAT     H244226   4.147   1.558   0.806
14662WAT      O44227   3.066   4.584   8.959
14662WAT     H144228   3.113   4.612   9.042
14662WAT     H244229   3.133   4.562   8.888
14663WAT      O44230   8.657   4.206   0.219
14663WAT     H144231   8.687   4.114   0.195
14663WAT     H244232   8.574   4.201   0.275
14664WAT      O44233   2.757   8.361   7.769
14664WAT     H144234   2.711   8.291   7.714
14664WAT     H244235   2.694   8.436   7.789
14665WAT      O44236   1.591   4.969   9.167
14665WAT     H144237   1.645   5.000   9.245
14665WAT     H244238   1.628   5.008   9.083
14666WAT      O44239   9.320   9.423   6.429
14666WAT     H144240   9.259   9.346   6.416
14666WAT     H244241   9.267   9.504   6.456
14667WAT      O44242   3.329   3.175   4.063
14667WAT     H144243   3.420   3.173   4.022
14667WAT     H244244   3.293   3.082   4.070
14668WAT      O44245   5.295   3.851   2.895
14668WAT     H144246   5.248   3.782   2.949
14668WAT     H244247   5.329   3.811   2.810
14669WAT      O44248   7.571   9.244   2.983
14669WAT     H144249   7.643   9.265   2.916
14669WAT     H244250   7.592   9.158   3.030
14670WAT      O44251   4.036   7.112   5.942
14670WAT     H144252   3.946   7.137   5.979
14670WAT     H244253   4.097   7.190   5.946
14671WAT      O44254   8.379   1.510   8.723
14671WAT     H144255   8.294   1.546   8.761
14671WAT     H244256   8.365   1.416   8.691
14672WAT      O44257   5.802   9.517   6.404
14672WAT     H144258   5.880   9.457   6.423
14672WAT     H244259   5.765   9.494   6.313
14673WAT      O44260   6.874   3.408   7.466
14673WAT     H144261   6.837   3.353   7.392
14673WAT     H244262   6.968   3.434   7.445
14674WAT      O44263   2.632   5.673   6.976
14674WAT     H144264   2.640   5.722   7.063
14674WAT     H244265   2.563   5.601   6.984
14675WAT      O44266   8.605   5.443   0.739
14675WAT     H144267   8.506   5.455   0.747
14675WAT     H244268   8.631   5.355   0.777
14676WAT      O44269   6.209   2.544   7.181
14676WAT     H144270   6.305   2.516   7.192
14676WAT     H244271   6.203   2.617   7.113
14677WAT      O44272   1.329   0.948   4.415
14677WAT     H144273   1.318   0.852   4.440
14677WAT     H244274   1.356   1.000   4.496
14678WAT      O44275   9.253   5.521   9.041
14678WAT     H144276   9.166   5.496   9.082
14678WAT     H244277   9.328   5.478   9.091
14679WAT      O44278   8.320   7.195   4.500
14679WAT     H144279   8.337   7.155   4.590
14679WAT     H244280   8.223   7.186   4.477
14680WAT      O44281   0.868   9.685   1.802
14680WAT     H144282   0.831   9.665   1.711
14680WAT     H244283   0.812   9.640   1.872
14681WAT      O44284   9.801   3.868   2.980
14681WAT     H144285   9.869   3.902   3.045
14681WAT     H244286   9.844   3.803   2.918
14682WAT      O44287   9.404   6.599   3.257
14682WAT     H144288   9.498   6.567   3.244
14682WAT     H244289   9.396   6.643   3.347
14683WAT      O44290   0.759   3.513   4.526
14683WAT     H144291   0.738   3.508   4.624
14683WAT     H244292   0.824   3.587   4.510
14684WAT      O44293   6.327   0.244   5.814
14684WAT     H144294   6.421   0.211   5.807
14684WAT     H244295   6.328   0.344   5.819
14685WAT      O44296   7.093   9.670   6.979
14685WAT     H144297   6.994   9.671   6.995
14685WAT     H244298   7.140   9.638   7.062
14686WAT      O44299   3.087   4.915   6.797
14686WAT     H144300   3.071   4.819   6.819
14686WAT     H244301   3.186   4.933   6.797
14687WAT      O44302   6.673   4.560   6.635
14687WAT     H144303   6.733   4.517   6.568
14687WAT     H244304   6.606   4.494   6.667
14688WAT      O44305   0.818   1.976   9.634
14688WAT     H144306   0.877   2.046   9.594
14688WAT     H244307   0.873   1.895   9.656
14689WAT      O44308   8.429   6.631   8.940
14689WAT     H144309   8.503   6.586   8.990
14689WAT     H244310   8.381   6.564   8.885
14690WAT      O44311   2.954   0.699   0.516
14690WAT     H144312   2.972   0.667   0.423
14690WAT     H244313   2.993   0.633   0.581
14691WAT      O44314   2.744   5.500   7.915
14691WAT     H144315   2.802   5.419   7.924
14691WAT     H244316   2.770   5.567   7.985
14692WAT      O44317   6.941   9.304   9.051
14692WAT     H144318   7.036   9.291   9.024
14692WAT     H244319   6.918   9.401   9.049
14693WAT      O44320   8.412   1.573   7.760
14693WAT     H144321   8.421   1.475   7.778
14693WAT     H244322   8.431   1.591   7.664
14694WAT      O44323   1.056   2.184   5.297
14694WAT     H144324   1.145   2.139   5.305
14694WAT     H244325   1.068   2.283   5.305
14695WAT      O44326   4.141   6.520   0.598
14695WAT     H144327   4.152   6.592   0.529
14695WAT     H244328   4.139   6.561   0.689
14696WAT      O44329   7.053   4.282   9.249
14696WAT     H144330   7.058   4.233   9.162
14696WAT     H244331   7.132   4.342   9.258
14697WAT      O44332   7.445   0.589   6.131
14697WAT     H144333   7.440   0.495   6.097
14697WAT     H244334   7.450   0.589   6.231
14698WAT      O44335   3.588   4.149   9.704
14698WAT     H144336   3.649   4.226   9.686
14698WAT     H244337   3.611   4.073   9.643
14699WAT      O44338   4.685   9.793   7.304
14699WAT     H144339   4.700   9.804   7.206
14699WAT     H244340   4.759   9.839   7.354
14700WAT      O44341   8.034   9.409   4.358
14700WAT     H144342   8.042   9.486   4.294
14700WAT     H244343   7.969   9.431   4.430
14701WAT      O44344   1.606   3.223   6.900
14701WAT     H144345   1.646   3.210   6.991
14701WAT     H244346   1.506   3.228   6.908
14702WAT      O44347   7.146   9.009   9.246
14702WAT     H144348   7.129   8.911   9.234
14702WAT     H244349   7.226   9.035   9.193
14703WAT      O44350   5.147   7.632   4.526
14703WAT     H144351   5.214   7.612   4.454
14703WAT     H244352   5.056   7.602   4.496
14704WAT      O44353   0.927   2.446   5.918
14704WAT     H144354   0.869   2.525   5.900
14704WAT     H244355   0.951   2.401   5.832
14705WAT      O44356   5.561   0.129   9.500
14705WAT     H144357   5.566   0.167   9.593
14705WAT     H244358   5.534   0.202   9.436
14706WAT      O44359   2.919   2.376   9.674
14706WAT     H144360   2.915   2.281   9.707
14706WAT     H244361   2.918   2.439   9.751
14707WAT      O44362   9.434   5.691   1.071
14707WAT     H144363   9.370   5.646   1.134
14707WAT     H244364   9.442   5.788   1.095
14708WAT      O44365   4.573   8.222   0.766
14708WAT     H144366   4.596   8.287   0.693
14708WAT     H244367   4.597   8.262   0.854
14709WAT      O44368   2.870   6.760   8.984
14709WAT     H144369   2.876   6.660   8.984
14709WAT     H244370   2.962   6.799   8.975
14710WAT      O44371   1.524   5.770   5.024
14710WAT     H144372   1.491   5.678   5.044
14710WAT     H244373   1.446   5.830   5.005
14711WAT      O44374   8.597   6.105   5.847
14711WAT     H144375   8.602   6.006   5.862
14711WAT     H244376   8.600   6.124   5.749
14712WAT      O44377   2.686   6.004   7.793
14712WAT     H144378   2.738   5.979   7.875
14712WAT     H244379   2.743   5.990   7.712
14713WAT      O44380   2.230   2.839   0.084
14713WAT     H144381   2.263   2.774   0.015
14713WAT     H244382   2.134   2.859   0.067
14714WAT      O44383   7.637   7.364   3.866
14714WAT     H144384   7.724   7.332   3.827
14714WAT     H244385   7.562   7.339   3.804
14715WAT      O44386   5.756   5.221   1.969
14715WAT     H144387   5.659   5.198   1.965
14715WAT     H244388   5.781   5.246   2.062
14716WAT      O44389   7.592   5.349   5.393
14716WAT     H144390   7.614   5.418   5.462
14716WAT     H244391   7.506   5.304   5.419
14717WAT      O44392   3.191   3.879   9.468
14717WAT     H144393   3.166   3.831   9.384
14717WAT     H244394   3.161   3.974   9.464
14718WAT      O44395   7.951   4.406   7.855
14718WAT     H144396   7.992   4.316   7.844
14718WAT     H244397   7.884   4.403   7.929
14719WAT      O44398   8.520   2.810   0.731
14719WAT     H144399   8.442   2.764   0.689
14719WAT     H244400   8.509   2.811   0.831
14720WAT      O44401   2.334   2.283   8.139
14720WAT     H144402   2.262   2.350   8.119
14720WAT     H244403   2.412   2.330   8.180
14721WAT      O44404   0.647   0.155   9.667
14721WAT     H144405   0.569   0.199   9.623
14721WAT     H244406   0.713   0.127   9.597
14722WAT      O44407   5.541   8.578   2.438
14722WAT     H144408   5.593   8.662   2.451
14722WAT     H244409   5.446   8.593   2.465
14723WAT      O44410   1.723   5.106   2.121
14723WAT     H144411   1.822   5.113   2.133
14723WAT     H244412   1.684   5.053   2.197
14724WAT      O44413   3.297   7.532   6.500
14724WAT     H144414   3.243   7.523   6.585
14724WAT     H244415   3.381   7.480   6.509
14725WAT      O44416   0.884   2.342   2.955
14725WAT     H144417   0.872   2.372   2.860
14725WAT     H244418   0.806   2.286   2.982
14726WAT      O44419   1.017   5.546   4.631
14726WAT     H144420   1.003   5.611   4.556
14726WAT     H244421   0.947   5.560   4.700
14727WAT      O44422   5.285   9.105   8.295
14727WAT     H144423   5.276   9.046   8.215
14727WAT     H244424   5.372   9.085   8.341
14728WAT      O44425   1.264   5.147   2.090
14728WAT     H144426   1.296   5.234   2.128
14728WAT     H244427   1.165   5.140   2.104
14729WAT      O44428   0.337   9.505   4.238
14729WAT     H144429   0.279   9.488   4.158
14729WAT     H244430   0.409   9.570   4.213
14730WAT      O44431   3.186   4.491   8.480
14730WAT     H144432   3.116   4.452   8.421
14730WAT     H244433   3.269   4.507   8.426
14731WAT      O44434   4.294   2.131   2.270
14731WAT     H144435   4.317   2.227   2.286
14731WAT     H244436   4.217   2.104   2.328
14732WAT      O44437   1.901   2.976   3.212
14732WAT     H144438   1.813   2.980   3.259
14732WAT     H244439   1.902   2.897   3.150
14733WAT      O44440   7.542   5.671   7.813
14733WAT     H144441   7.634   5.637   7.792
14733WAT     H244442   7.476   5.627   7.752
14734WAT      O44443   9.077   2.207   7.213
14734WAT     H144444   9.020   2.131   7.246
14734WAT     H244445   9.129   2.245   7.289
14735WAT      O44446   2.354   8.110   2.735
14735WAT     H144447   2.416   8.187   2.721
14735WAT     H244448   2.338   8.098   2.834
14736WAT      O44449   4.821   6.173   2.767
14736WAT     H144450   4.725   6.184   2.793
14736WAT     H244451   4.852   6.080   2.789
14737WAT      O44452   2.428   4.067   3.971
14737WAT     H144453   2.459   4.089   4.064
14737WAT     H244454   2.421   3.967   3.961
14738WAT      O44455   4.730   5.941   0.982
14738WAT     H144456   4.711   5.993   0.899
14738WAT     H244457   4.806   5.982   1.032
14739WAT      O44458   2.485   8.252   6.034
14739WAT     H144459   2.547   8.227   6.109
14739WAT     H244460   2.476   8.175   5.971
14740WAT      O44461   1.323   6.293   9.795
14740WAT     H144462   1.306   6.195   9.787
14740WAT     H244463   1.236   6.342   9.802
14741WAT      O44464   9.553   3.304   7.753
14741WAT     H144465   9.571   3.286   7.849
14741WAT     H244466   9.627   3.361   7.715
14742WAT      O44467   2.550   4.058   9.751
14742WAT     H144468   2.627   4.107   9.791
14742WAT     H244469   2.584   3.985   9.693
14743WAT      O44470   8.284   0.481   4.098
14743WAT     H144471   8.310   0.477   4.195
14743WAT     H244472   8.251   0.392   4.068
14744WAT      O44473   6.163   8.756   4.653
14744WAT     H144474   6.245   8.811   4.634
14744WAT     H244475   6.178   8.662   4.621
14745WAT      O44476   5.947   8.649   0.127
14745WAT     H144477   5.877   8.714   0.156
14745WAT     H244478   6.035   8.697   0.118
14746WAT      O44479   9.584   8.266   0.772
14746WAT     H144480   9.543   8.300   0.687
14746WAT     H244481   9.618   8.344   0.825
14747WAT      O44482   0.564   7.370   4.771
14747WAT     H144483   0.587   7.335   4.861
14747WAT     H244484   0.641   7.422   4.734
14748WAT      O44485   0.983   3.029   1.379
14748WAT     H144486   1.071   3.056   1.418
14748WAT     H244487   0.970   3.075   1.291
14749WAT      O44488   9.264   2.734   5.510
14749WAT     H144489   9.189   2.780   5.556
14749WAT     H244490   9.332   2.706   5.578
14750WAT      O44491   5.145   5.208   7.987
14750WAT     H144492   5.240   5.232   8.004
14750WAT     H244493   5.139   5.110   7.965
14751WAT      O44494   4.668   5.418   0.278
14751WAT     H144495   4.593   5.483   0.273
14751WAT     H244496   4.717   5.429   0.365
14752WAT      O44497   2.176   6.819   4.312
14752WAT     H144498   2.134   6.820   4.222
14752WAT     H244499   2.105   6.809   4.382
14753WAT      O44500   4.200   0.783   6.291
14753WAT     H144501   4.288   0.741   6.313
14753WAT     H244502   4.146   0.792   6.375
14754WAT      O44503   0.625   2.964   6.803
14754WAT     H144504   0.616   2.961   6.703
14754WAT     H244505   0.539   2.935   6.845
14755WAT      O44506   2.032   9.076   0.349
14755WAT     H144507   2.052   9.134   0.428
14755WAT     H244508   1.962   9.009   0.373
14756WAT      O44509   5.758   5.240   8.911
14756WAT     H144510   5.854   5.258   8.935
14756WAT     H244511   5.699   5.296   8.969
14757WAT      O44512   8.773   0.338   0.150
14757WAT     H144513   8.725   0.264   0.197
14757WAT     H244514   8.716   0.421   0.152
14758WAT      O44515   3.024   3.327   6.650
14758WAT     H144516   3.113   3.371   6.666
14758WAT     H244517   2.962   3.392   6.607
14759WAT      O44518   7.809   5.952   1.283
14759WAT     H144519   7.745   5.987   1.215
14759WAT     H244520   7.892   5.920   1.237
14760WAT      O44521   9.549   7.103   6.358
14760WAT     H144522   9.463   7.133   6.317
14760WAT     H244523   9.552   7.133   6.453
14761WAT      O44524   4.405   9.274   9.569
14761WAT     H144525   4.485   9.334   9.558
14761WAT     H244526   4.427   9.201   9.633
14762WAT      O44527   2.551   3.376   0.293
14762WAT     H144528   2.470   3.433   0.281
14762WAT     H244529   2.578   3.337   0.205
14763WAT      O44530   2.245   8.372   5.937
14763WAT     H144531   2.216   8.424   6.017
14763WAT     H244532   2.316   8.307   5.964
14764WAT      O44533   7.456   8.519   1.957
14764WAT     H144534   7.476   8.591   2.024
14764WAT     H244535   7.459   8.556   1.865
14765WAT      O44536   9.540   1.473   2.143
14765WAT     H144537   9.527   1.386   2.095
14765WAT     H244538   9.451   1.515   2.159
14766WAT      O44539   0.878   8.566   6.627
14766WAT     H144540   0.918   8.625   6.558
14766WAT     H244541   0.918   8.586   6.717
14767WAT      O44542   3.620   3.069   3.344
14767WAT     H144543   3.719   3.067   3.326
14767WAT     H244544   3.578   3.137   3.283
14768WAT      O44545   7.221   3.035   7.319
14768WAT     H144546   7.292   2.967   7.334
14768WAT     H244547   7.158   3.004   7.247
14769WAT      O44548   8.451   2.892   5.262
14769WAT     H144549   8.452   2.809   5.207
14769WAT     H244550   8.470   2.971   5.203
14770WAT      O44551   3.149   0.439   6.511
14770WAT     H144552   3.127   0.373   6.583
14770WAT     H244553   3.197   0.517   6.551
14771WAT      O44554   1.853   7.680   0.849
14771WAT     H144555   1.934   7.648   0.800
14771WAT     H244556   1.771   7.640   0.810
14772WAT      O44557   3.534   8.402   7.477
14772WAT     H144558   3.627   8.408   7.441
14772WAT     H244559   3.497   8.311   7.462
14773WAT      O44560   9.372   6.778   9.285
14773WAT     H144561   9.367   6.703   9.350
14773WAT     H244562   9.467   6.804   9.270
14774WAT      O44563   9.661   4.708   0.255
14774WAT     H144564   9.718   4.640   0.209
14774WAT     H244565   9.694   4.721   0.349
14775WAT      O44566   2.882   6.833   2.262
14775WAT     H144567   2.818   6.807   2.190
14775WAT     H244568   2.869   6.929   2.286
14776WAT      O44569   7.668   0.840   1.526
14776WAT     H144570   7.633   0.931   1.551
14776WAT     H244571   7.763   0.831   1.557
14777WAT      O44572   3.755   1.839   7.817
14777WAT     H144573   3.688   1.902   7.856
14777WAT     H244574   3.816   1.806   7.889
14778WAT      O44575   1.950   1.210   6.713
14778WAT     H144576   2.015   1.273   6.670
14778WAT     H244577   1.944   1.228   6.811
14779WAT      O44578   8.788   5.364   0.397
14779WAT     H144579   8.863   5.329   0.454
14779WAT     H244580   8.701   5.333   0.434
14780WAT      O44581   3.304   7.674   4.329
14780WAT     H144582   3.227   7.716   4.378
14780WAT     H244583   3.348   7.743   4.272
14781WAT      O44584   9.229   6.090   3.303
14781WAT     H144585   9.237   6.051   3.211
14781WAT     H244586   9.134   6.083   3.334
14782WAT      O44587   4.194   7.130   1.014
14782WAT     H144588   4.271   7.098   1.069
14782WAT     H244589   4.124   7.058   1.009
14783WAT      O44590   7.720   3.774   3.200
14783WAT     H144591   7.775   3.830   3.137
14783WAT     H244592   7.633   3.749   3.155
14784WAT      O44593   1.382   5.209   4.673
14784WAT     H144594   1.404   5.266   4.594
14784WAT     H244595   1.285   5.219   4.695
14785WAT      O44596   1.036   5.347   5.216
14785WAT     H144597   1.035   5.329   5.315
14785WAT     H244598   1.071   5.267   5.168
14786WAT      O44599   9.289   2.103   6.511
14786WAT     H144600   9.338   2.028   6.556
14786WAT     H244601   9.235   2.153   6.578
14787WAT      O44602   2.189   3.684   4.502
14787WAT     H144603   2.098   3.645   4.518
14787WAT     H244604   2.250   3.613   4.468
14788WAT      O44605   9.349   6.405   8.474
14788WAT     H144606   9.318   6.379   8.383
14788WAT     H244607   9.314   6.339   8.541
14789WAT      O44608   4.460   7.478   8.832
14789WAT     H144609   4.439   7.466   8.929
14789WAT     H244610   4.380   7.453   8.777
14790WAT      O44611   4.295   1.158   3.288
14790WAT     H144612   4.322   1.253   3.305
14790WAT     H244613   4.197   1.154   3.271
14791WAT      O44614   3.264   4.508   6.069
14791WAT     H144615   3.269   4.409   6.056
14791WAT     H244616   3.280   4.554   5.982
14792WAT      O44617   0.339   3.600   3.630
14792WAT     H144618   0.416   3.541   3.605
14792WAT     H244619   0.259   3.574   3.575
14793WAT      O44620   7.462   2.133   8.655
14793WAT     H144621   7.421   2.212   8.702
14793WAT     H244622   7.553   2.156   8.623
14794WAT      O44623   1.007   4.224   4.631
14794WAT     H144624   1.022   4.275   4.716
14794WAT     H244625   1.027   4.283   4.553
14795WAT      O44626   9.419   2.533   4.341
14795WAT     H144627   9.393   2.517   4.246
14795WAT     H244628   9.470   2.618   4.349
14796WAT      O44629   9.681   6.314   1.939
14796WAT     H144630   9.719   6.398   1.977
14796WAT     H244631   9.585   6.328   1.916
14797WAT      O44632   2.515   6.457   9.793
14797WAT     H144633   2.486   6.499   9.879
14797WAT     H244634   2.516   6.526   9.721
14798WAT      O44635   0.395   8.088   8.197
14798WAT     H144636   0.439   8.026   8.132
14798WAT     H244637   0.383   8.178   8.156
14799WAT      O44638   3.476   0.801   3.520
14799WAT     H144639   3.505   0.882   3.571
14799WAT     H244640   3.545   0.779   3.450
14800WAT      O44641   4.075   8.396   0.128
14800WAT     H144642   4.041   8.429   0.216
14800WAT     H244643   4.164   8.438   0.109
14801WAT      O44644   4.157   3.170   7.912
14801WAT     H144645   4.167   3.077   7.877
14801WAT     H244646   4.235   3.193   7.969
14802WAT      O44647   8.435   9.168   2.998
14802WAT     H144648   8.368   9.119   2.943
14802WAT     H244649   8.516   9.187   2.943
14803WAT      O44650   0.702   7.758   6.342
14803WAT     H144651   0.795   7.735   6.313
14803WAT     H244652   0.638   7.735   6.268
14804WAT      O44653   6.437   7.966   3.529
14804WAT     H144654   6.363   7.914   3.571
14804WAT     H244655   6.485   7.908   3.463
14805WAT      O44656   7.940   3.867   4.193
14805WAT     H144657   7.843   3.846   4.187
14805WAT     H244658   7.991   3.812   4.126
14806WAT      O44659   3.996   6.808   1.886
14806WAT     H144660   3.967   6.876   1.819
14806WAT     H244661   3.974   6.842   1.978
14807WAT      O44662   2.663   7.908   3.331
14807WAT     H144663   2.616   7.929   3.417
14807WAT     H244664   2.751   7.866   3.351
14808WAT      O44665   1.573   5.727   6.490
14808WAT     H144666   1.656   5.783   6.482
14808WAT     H244667   1.576   5.655   6.421
14809WAT      O44668   4.860   8.351   2.327
14809WAT     H144669   4.900   8.278   2.382
14809WAT     H244670   4.843   8.430   2.385
14810WAT      O44671   8.131   0.221   4.030
14810WAT     H144672   8.055   0.263   4.080
14810WAT     H244673   8.118   0.235   3.932
14811WAT      O44674   4.224   4.776   9.624
14811WAT     H144675   4.261   4.692   9.664
14811WAT     H244676   4.140   4.756   9.574
14812WAT      O44677   2.123   9.305   0.111
14812WAT     H144678   2.095   9.234   0.176
14812WAT     H244679   2.182   9.265   0.041
14813WAT      O44680   6.853   7.426   6.134
14813WAT     H144681   6.890   7.506   6.180
14813WAT     H244682   6.769   7.450   6.086
14814WAT      O44683   9.532   1.331   1.694
14814WAT     H144684   9.501   1.419   1.657
14814WAT     H244685   9.611   1.346   1.754
14815WAT      O44686   6.615   8.273   6.543
14815WAT     H144687   6.705   8.314   6.559
14815WAT     H244688   6.587   8.288   6.448
14816WAT      O44689   3.368   5.873   8.077
14816WAT     H144690   3.334   5.967   8.066
14816WAT     H244691   3.431   5.870   8.154
14817WAT      O44692   2.607   4.090   9.015
14817WAT     H144693   2.613   4.189   9.002
14817WAT     H244694   2.618   4.045   8.926
14818WAT      O44695   2.411   2.558   3.671
14818WAT     H144696   2.374   2.488   3.731
14818WAT     H244697   2.487   2.604   3.716
14819WAT      O44698   8.033   4.496   5.556
14819WAT     H144699   8.034   4.432   5.478
14819WAT     H244700   7.990   4.451   5.634
14820WAT      O44701   1.115   1.486   7.162
14820WAT     H144702   1.165   1.524   7.084
14820WAT     H244703   1.180   1.462   7.235
14821WAT      O44704   1.532   3.584   2.163
14821WAT     H144705   1.490   3.590   2.073
14821WAT     H244706   1.466   3.546   2.228
14822WAT      O44707   4.273   7.788   0.318
14822WAT     H144708   4.227   7.824   0.237
14822WAT     H244709   4.351   7.732   0.290
14823WAT      O44710   0.976   8.082   6.193
14823WAT     H144711   1.042   8.070   6.120
14823WAT     H244712   0.887   8.107   6.154
14824WAT      O44713   1.746   0.792   8.920
14824WAT     H144714   1.827   0.818   8.867
14824WAT     H244715   1.715   0.702   8.890
14825WAT      O44716   3.462   5.029   5.957
14825WAT     H144717   3.555   5.012   5.924
14825WAT     H244718   3.413   4.942   5.963
14826WAT      O44719   8.309   1.446   9.500
14826WAT     H144720   8.309   1.535   9.547
14826WAT     H244721   8.391   1.396   9.524
14827WAT      O44722   4.866   1.271   7.854
14827WAT     H144723   4.875   1.175   7.826
14827WAT     H244724   4.857   1.276   7.953
14828WAT      O44725   8.636   6.062   6.376
14828WAT     H144726   8.693   6.144   6.373
14828WAT     H244727   8.552   6.078   6.325
14829WAT      O44728   4.911   8.562   7.064
14829WAT     H144729   4.826   8.516   7.040
14829WAT     H244730   4.899   8.661   7.058
14830WAT      O44731   4.106   5.882   4.985
14830WAT     H144732   4.029   5.823   4.961
14830WAT     H244733   4.149   5.847   5.069
14831WAT      O44734   0.829   1.898   9.123
14831WAT     H144735   0.850   1.806   9.089
14831WAT     H244736   0.837   1.899   9.222
14832WAT      O44737   2.436   1.073   0.080
14832WAT     H144738   2.363   1.028   0.131
14832WAT     H244739   2.454   1.024  -0.005
14833WAT      O44740   8.774   2.986   7.320
14833WAT     H144741   8.768   3.085   7.333
14833WAT     H244742   8.783   2.966   7.222
14834WAT      O44743   6.956   0.927   5.089
14834WAT     H144744   6.959   0.833   5.123
14834WAT     H244745   6.895   0.981   5.147
14835WAT      O44746   4.883   1.761   1.274
14835WAT     H144747   4.937   1.831   1.227
14835WAT     H244748   4.792   1.797   1.296
14836WAT      O44749   2.815   1.197   2.496
14836WAT     H144750   2.773   1.114   2.459
14836WAT     H244751   2.870   1.240   2.425
14837WAT      O44752   5.647   8.302   0.038
14837WAT     H144753   5.579   8.375   0.032
14837WAT     H244754   5.736   8.338   0.012
14838WAT      O44755   6.813   3.997   4.105
14838WAT     H144756   6.788   3.956   4.017
14838WAT     H244757   6.875   3.935   4.154
14839WAT      O44758   7.368   7.435   0.067
14839WAT     H144759   7.460   7.442   0.031
14839WAT     H244760   7.367   7.372   0.145
14840WAT      O44761   7.905   8.741   7.887
14840WAT     H144762   7.890   8.645   7.912
14840WAT     H244763   7.980   8.778   7.941
14841WAT      O44764   2.366   7.899   6.875
14841WAT     H144765   2.402   7.824   6.930
14841WAT     H244766   2.406   7.985   6.907
14842WAT      O44767   0.041   1.932   2.704
14842WAT     H144768  -0.016   1.854   2.730
14842WAT     H244769   0.026   2.008   2.768
14843WAT      O44770   6.997   9.840   7.386
14843WAT     H144771   6.997   9.934   7.353
14843WAT     H244772   6.906   9.801   7.374
14844WAT      O44773   5.092   6.778   5.024
14844WAT     H144774   5.155   6.805   4.951
14844WAT     H244775   5.143   6.732   5.097
14845WAT      O44776   6.639   4.647   4.296
14845WAT     H144777   6.636   4.613   4.202
14845WAT     H244778   6.589   4.584   4.356
14846WAT      O44779   2.375   2.209   1.721
14846WAT     H144780   2.434   2.155   1.661
14846WAT     H244781   2.425   2.231   1.805
14847WAT      O44782   2.346   3.332   2.202
14847WAT     H144783   2.421   3.306   2.263
14847WAT     H244784   2.281   3.390   2.252
14848WAT      O44785   4.492   8.739   1.800
14848WAT     H144786   4.505   8.712   1.705
14848WAT     H244787   4.460   8.660   1.853
14849WAT      O44788   0.215   4.657   5.279
14849WAT     H144789   0.138   4.599   5.305
14849WAT     H244790   0.208   4.679   5.182
14850WAT      O44791   7.707   8.809   7.444
14850WAT     H144792   7.688   8.907   7.450
14850WAT     H244793   7.797   8.795   7.404
14851WAT      O44794   1.323   3.581   1.527
14851WAT     H144795   1.278   3.613   1.444
14851WAT     H244796   1.421   3.573   1.512
14852WAT      O44797   4.925   5.236   3.385
14852WAT     H144798   4.924   5.153   3.330
14852WAT     H244799   4.922   5.212   3.482
14853WAT      O44800   9.610   8.034   1.148
14853WAT     H144801   9.533   8.026   1.084
14853WAT     H244802   9.643   8.128   1.148
14854WAT      O44803   0.556   6.190   0.353
14854WAT     H144804   0.535   6.287   0.359
14854WAT     H244805   0.649   6.174   0.387
14855WAT      O44806   0.876   5.264   7.322
14855WAT     H144807   0.796   5.211   7.296
14855WAT     H244808   0.910   5.315   7.243
14856WAT      O44809   4.727   2.019   0.512
14856WAT     H144810   4.687   2.041   0.600
14856WAT     H244811   4.823   1.992   0.525
14857WAT      O44812   4.534   1.986   0.767
14857WAT     H144813   4.483   1.976   0.682
14857WAT     H244814   4.578   1.900   0.790
14858WAT      O44815   7.555   7.606   6.985
14858WAT     H144816   7.563   7.579   7.081
14858WAT     H244817   7.646   7.607   6.943
14859WAT      O44818   9.167   9.562   4.914
14859WAT     H144819   9.200   9.640   4.861
14859WAT     H244820   9.245   9.510   4.950
14860WAT      O44821   0.975   2.068   1.276
14860WAT     H144822   0.960   1.999   1.204
14860WAT     H244823   0.959   2.027   1.365
14861WAT      O44824   2.336   1.900   3.745
14861WAT     H144825   2.296   1.835   3.680
14861WAT     H244826   2.368   1.981   3.696
14862WAT      O44827   6.396   9.591   3.800
14862WAT     H144828   6.446   9.506   3.788
14862WAT     H244829   6.299   9.576   3.780
14863WAT      O44830   7.637   4.434   0.573
14863WAT     H144831   7.584   4.518   0.562
14863WAT     H244832   7.579   4.355   0.553
14864WAT      O44833   3.554   0.435   0.299
14864WAT     H144834   3.535   0.529   0.273
14864WAT     H244835   3.530   0.421   0.395
14865WAT      O44836   4.131   6.963   8.926
14865WAT     H144837   4.204   6.925   8.869
14865WAT     H244838   4.097   6.892   8.987
14866WAT      O44839   2.679   9.773   7.192
14866WAT     H144840   2.709   9.761   7.287
14866WAT     H244841   2.755   9.756   7.130
14867WAT      O44842   2.824   0.429   5.291
14867WAT     H144843   2.787   0.520   5.271
14867WAT     H244844   2.923   0.436   5.305
14868WAT      O44845   3.369   0.345   6.339
14868WAT     H144846   3.295   0.369   6.402
14868WAT     H244847   3.416   0.264   6.373
14869WAT      O44848   0.181   2.315   4.679
14869WAT     H144849   0.169   2.216   4.672
14869WAT     H244850   0.128   2.360   4.606
14870WAT      O44851   9.030   2.668   1.166
14870WAT     H144852   8.948   2.703   1.210
14870WAT     H244853   9.063   2.587   1.215
14871WAT      O44854   5.424   1.671   4.835
14871WAT     H144855   5.433   1.768   4.860
14871WAT     H244856   5.396   1.664   4.739
14872WAT      O44857   7.003   2.686   5.168
14872WAT     H144858   6.929   2.619   5.174
14872WAT     H244859   7.044   2.682   5.076
14873WAT      O44860   3.525   9.028   9.404
14873WAT     H144861   3.427   9.021   9.417
14873WAT     H244862   3.565   8.937   9.395
14874WAT      O44863   0.895   7.310   4.029
14874WAT     H144864   0.820   7.293   4.092
14874WAT     H244865   0.975   7.258   4.058
14875WAT      O44866   3.388   3.363   5.386
14875WAT     H144867   3.417   3.453   5.352
14875WAT     H244868   3.394   3.296   5.313
14876WAT      O44869   3.315   4.991   3.261
14876WAT     H144870   3.350   4.947   3.344
14876WAT     H244871   3.229   4.948   3.234
14877WAT      O44872   5.902   3.851   8.923
14877WAT     H144873   5.985   3.864   8.868
14877WAT     H244874   5.927   3.839   9.019
14878WAT      O44875   9.288   9.453   8.038
14878WAT     H144876   9.266   9.380   8.103
14878WAT     H244877   9.366   9.506   8.072
14879WAT      O44878   4.496   0.461   3.267
14879WAT     H144879   4.412   0.462   3.214
14879WAT     H244880   4.565   0.407   3.219
14880WAT      O44881   7.265   0.770   2.282
14880WAT     H144882   7.169   0.766   2.256
14880WAT     H244883   7.283   0.704   2.355
14881WAT      O44884   5.760   2.866   2.401
14881WAT     H144885   5.813   2.921   2.466
14881WAT     H244886   5.677   2.832   2.446
14882WAT      O44887   2.490   0.346   2.389
14882WAT     H144888   2.427   0.395   2.450
14882WAT     H244889   2.558   0.297   2.444
14883WAT      O44890   0.059   7.418   4.595
14883WAT     H144891  -0.028   7.368   4.591
14883WAT     H244892   0.050   7.494   4.659
14884WAT      O44893   7.437   4.253   0.504
14884WAT     H144894   7.424   4.281   0.408
14884WAT     H244895   7.471   4.159   0.507
14885WAT      O44896   1.241   9.705   5.647
14885WAT     H144897   1.273   9.745   5.733
14885WAT     H244898   1.223   9.778   5.581
14886WAT      O44899   2.173   9.613   7.518
14886WAT     H144900   2.188   9.620   7.617
14886WAT     H244901   2.171   9.517   7.491
14887WAT      O44902   2.387   6.537   8.242
14887WAT     H144903   2.346   6.627   8.251
14887WAT     H244904   2.458   6.540   8.172
14888WAT      O44905   1.192   1.532   8.658
14888WAT     H144906   1.114   1.471   8.652
14888WAT     H244907   1.182   1.605   8.590
14889WAT      O44908   0.221   4.563   0.930
14889WAT     H144909   0.273   4.482   0.900
14889WAT     H244910   0.141   4.534   0.981
14890WAT      O44911   1.012   8.706   6.068
14890WAT     H144912   1.045   8.663   6.152
14890WAT     H244913   1.016   8.806   6.078
14891WAT      O44914   2.501   5.666   0.843
14891WAT     H144915   2.463   5.575   0.828
14891WAT     H244916   2.547   5.668   0.932
14892WAT      O44917   0.397   5.908   6.584
14892WAT     H144918   0.491   5.878   6.574
14892WAT     H244919   0.364   5.947   6.498
14893WAT      O44920   1.663   9.059   7.547
14893WAT     H144921   1.595   9.005   7.597
14893WAT     H244922   1.644   9.156   7.559
14894WAT      O44923   1.788   7.324   1.067
14894WAT     H144924   1.780   7.288   1.160
14894WAT     H244925   1.718   7.395   1.053
14895WAT      O44926   9.454   8.448   9.146
14895WAT     H144927   9.359   8.442   9.116
14895WAT     H244928   9.460   8.434   9.245
14896WAT      O44929   6.792   2.860   7.088
14896WAT     H144930   6.784   2.831   6.993
14896WAT     H244931   6.739   2.798   7.147
14897WAT      O44932   4.586   0.184   1.586
14897WAT     H144933   4.539   0.111   1.635
14897WAT     H244934   4.518   0.249   1.551
14898WAT      O44935   2.046   0.101   4.014
14898WAT     H144936   1.990   0.179   3.985
14898WAT     H244937   2.029   0.082   4.111
14899WAT      O44938   8.272   6.230   6.604
14899WAT     H144939   8.215   6.280   6.539
14899WAT     H244940   8.351   6.286   6.629
14900WAT      O44941   1.676   7.873   9.825
14900WAT     H144942   1.579   7.899   9.827
14900WAT     H244943   1.733   7.952   9.848
14901WAT      O44944   3.070   6.476   7.409
14901WAT     H144945   3.129   6.501   7.485
14901WAT     H244946   3.060   6.554   7.347
14902WAT      O44947   5.843   5.511   8.681
14902WAT     H144948   5.927   5.557   8.653
14902WAT     H244949   5.855   5.473   8.773
14903WAT      O44950   0.329   6.018   0.819
14903WAT     H144951   0.301   6.090   0.883
14903WAT     H244952   0.379   6.059   0.743
14904WAT      O44953   5.574   4.407   0.058
14904WAT     H144954   5.649   4.425  -0.006
14904WAT     H244955   5.599   4.444   0.148
14905WAT      O44956   0.249   5.696   3.404
14905WAT     H144957   0.184   5.743   3.344
14905WAT     H244958   0.330   5.671   3.352
14906WAT      O44959   1.628   4.310   4.972
14906WAT     H144960   1.712   4.325   5.023
14906WAT     H244961   1.559   4.377   5.000
14907WAT      O44962   7.264   2.003   3.534
14907WAT     H144963   7.308   2.093   3.543
14907WAT     H244964   7.184   1.999   3.594
14908WAT      O44965   2.368   5.681   3.117
14908WAT     H144966   2.326   5.772   3.120
14908WAT     H244967   2.301   5.616   3.081
14909WAT      O44968   2.812   5.736   4.692
14909WAT     H144969   2.837   5.830   4.716
14909WAT     H244970   2.893   5.688   4.658
14910WAT      O44971   2.857   4.346   8.841
14910WAT     H144972   2.913   4.428   8.851
14910WAT     H244973   2.869   4.287   8.921
14911WAT      O44974   2.365   5.093   2.449
14911WAT     H144975   2.412   5.077   2.362
14911WAT     H244976   2.400   5.176   2.492
14912WAT      O44977   4.644   7.461   1.546
14912WAT     H144978   4.706   7.392   1.508
14912WAT     H244979   4.648   7.457   1.646
14913WAT      O44980   1.081   7.777   0.576
14913WAT     H144981   1.042   7.778   0.668
14913WAT     H244982   1.015   7.739   0.512
14914WAT      O44983   9.604   8.269   5.975
14914WAT     H144984   9.648   8.242   6.061
14914WAT     H244985   9.586   8.187   5.920
14915WAT      O44986   1.798   7.410   8.370
14915WAT     H144987   1.807   7.326   8.424
14915WAT     H244988   1.826   7.392   8.276
14916WAT      O44989   3.098   2.335   2.444
14916WAT     H144990   3.047   2.398   2.386
14916WAT     H244991   3.141   2.385   2.519
14917WAT      O44992   0.086   9.075   3.241
14917WAT     H144993   0.055   9.016   3.166
14917WAT     H244994   0.162   9.030   3.289
14918WAT      O44995   8.365   5.066   2.407
14918WAT     H144996   8.397   5.039   2.316
14918WAT     H244997   8.295   5.002   2.438
14919WAT      O44998   3.996   7.816   8.754
14919WAT     H144999   4.085   7.805   8.799
14919WAT     H245000   3.991   7.906   8.712
14920WAT      O45001   8.978   0.736   4.507
14920WAT     H145002   9.005   0.764   4.415
14920WAT     H245003   8.987   0.814   4.569
14921WAT      O45004   6.060   3.384   2.143
14921WAT     H145005   5.964   3.413   2.140
14921WAT     H245006   6.067   3.297   2.192
14922WAT      O45007   7.828   6.863   9.484
14922WAT     H145008   7.923   6.836   9.499
14922WAT     H245009   7.817   6.960   9.505
14923WAT      O45010   6.859   1.170   6.018
14923WAT     H145011   6.810   1.257   6.011
14923WAT     H245012   6.943   1.174   5.964
14924WAT      O45013   8.372   9.625   5.423
14924WAT     H145014   8.288   9.578   5.396
14924WAT     H245015   8.447   9.596   5.363
14925WAT      O45016   3.703   0.818   5.338
14925WAT     H145017   3.759   0.752   5.388
14925WAT     H245018   3.669   0.776   5.254
14926WAT      O45019   4.718   4.511   5.661
14926WAT     H145020   4.709   4.443   5.734
14926WAT     H245021   4.810   4.507   5.623
14927WAT      O45022   3.340   7.244   1.124
14927WAT     H145023   3.400   7.171   1.157
14927WAT     H245024   3.327   7.312   1.196
14928WAT      O45025   1.048   0.861   7.545
14928WAT     H145026   0.950   0.841   7.538
14928WAT     H245027   1.095   0.822   7.466
14929WAT      O45028   4.117   5.254   9.774
14929WAT     H145029   4.070   5.240   9.687
14929WAT     H245030   4.120   5.168   9.825
14930WAT      O45031   8.022   2.972   7.811
14930WAT     H145032   7.963   3.054   7.809
14930WAT     H245033   7.980   2.900   7.756
14931WAT      O45034   5.167   9.648   0.822
14931WAT     H145035   5.086   9.705   0.820
14931WAT     H245036   5.220   9.667   0.906
14932WAT      O45037   2.934   7.344   0.311
14932WAT     H145038   2.931   7.377   0.406
14932WAT     H245039   2.981   7.411   0.254
14933WAT      O45040   2.965   7.339   2.868
14933WAT     H145041   2.899   7.328   2.794
14933WAT     H245042   2.927   7.299   2.952
14934WAT      O45043   6.906   3.709   6.842
14934WAT     H145044   6.894   3.803   6.810
14934WAT     H245045   7.000   3.680   6.824
14935WAT      O45046   5.981   0.564   5.093
14935WAT     H145047   5.953   0.516   5.176
14935WAT     H245048   5.914   0.549   5.021
14936WAT      O45049   9.553   2.378   8.929
14936WAT     H145050   9.619   2.410   8.860
14936WAT     H245051   9.588   2.295   8.972
14937WAT      O45052   3.609   2.766   1.154
14937WAT     H145053   3.676   2.840   1.143
14937WAT     H245054   3.599   2.744   1.251
14938WAT      O45055   5.382   2.199   0.924
14938WAT     H145056   5.370   2.298   0.936
14938WAT     H245057   5.432   2.161   1.002
14939WAT      O45058   4.351   0.707   8.436
14939WAT     H145059   4.315   0.771   8.504
14939WAT     H245060   4.419   0.647   8.480
14940WAT      O45061   2.118   9.700   9.394
14940WAT     H145062   2.140   9.699   9.492
14940WAT     H245063   2.162   9.777   9.350
14941WAT      O45064   3.703   1.117   8.364
14941WAT     H145065   3.731   1.125   8.460
14941WAT     H245066   3.714   1.206   8.319
14942WAT      O45067   7.013   5.578   7.667
14942WAT     H145068   7.061   5.590   7.754
14942WAT     H245069   7.029   5.486   7.633
14943WAT      O45070   9.527   3.374   5.106
14943WAT     H145071   9.577   3.392   5.191
14943WAT     H245072   9.592   3.358   5.032
14944WAT      O45073   3.829   3.838   3.393
14944WAT     H145074   3.923   3.861   3.371
14944WAT     H245075   3.767   3.887   3.331
14945WAT      O45076   3.495   9.716   9.295
14945WAT     H145077   3.437   9.702   9.375
14945WAT     H245078   3.586   9.680   9.313
14946WAT      O45079   6.093   3.546   7.150
14946WAT     H145080   6.050   3.547   7.059
14946WAT     H245081   6.073   3.632   7.197
14947WAT      O45082   1.196   7.317   2.953
14947WAT     H145083   1.169   7.221   2.962
14947WAT     H245084   1.131   7.374   3.005
14948WAT      O45085   1.190   3.213   9.493
14948WAT     H145086   1.106   3.257   9.460
14948WAT     H245087   1.235   3.274   9.559
14949WAT      O45088   5.607   9.451   7.597
14949WAT     H145089   5.531   9.387   7.583
14949WAT     H245090   5.652   9.468   7.509
14950WAT      O45091   8.707   7.790   6.271
14950WAT     H145092   8.632   7.855   6.285
14950WAT     H245093   8.735   7.750   6.358
14951WAT      O45094   6.226   0.283   0.461
14951WAT     H145095   6.152   0.285   0.529
14951WAT     H245096   6.223   0.367   0.407
14952WAT      O45097   2.705   5.771   2.077
14952WAT     H145098   2.682   5.801   2.169
14952WAT     H245099   2.696   5.672   2.070
14953WAT      O45100   4.009   5.831   9.388
14953WAT     H145101   4.039   5.795   9.299
14953WAT     H245102   3.975   5.925   9.376
14954WAT      O45103   1.266   1.974   4.150
14954WAT     H145104   1.210   1.891   4.152
14954WAT     H245105   1.318   1.976   4.065
14955WAT      O45106   6.387   6.095   8.581
14955WAT     H145107   6.424   6.114   8.672
14955WAT     H245108   6.401   5.999   8.559
14956WAT      O45109   4.564   2.199   1.733
14956WAT     H145110   4.494   2.149   1.784
14956WAT     H245111   4.520   2.264   1.671
14957WAT      O45112   2.665   2.953   6.990
14957WAT     H145113   2.681   2.877   6.928
14957WAT     H245114   2.745   2.966   7.049
14958WAT      O45115   4.031   1.896   2.978
14958WAT     H145116   4.026   1.990   2.943
14958WAT     H245117   4.126   1.871   2.994
14959WAT      O45118   2.792   4.208   9.794
14959WAT     H145119   2.792   4.246   9.701
14959WAT     H245120   2.881   4.168   9.814
14960WAT      O45121   6.092   7.497   6.733
14960WAT     H145122   6.042   7.480   6.818
14960WAT     H245123   6.131   7.411   6.700
14961WAT      O45124   7.023   2.929   8.523
14961WAT     H145125   7.050   2.844   8.478
14961WAT     H245126   6.938   2.962   8.482
14962WAT      O45127   3.374   8.567   1.160
14962WAT     H145128   3.312   8.627   1.109
14962WAT     H245129   3.323   8.488   1.195
14963WAT      O45130   9.157   5.018   2.683
14963WAT     H145131   9.145   5.069   2.768
14963WAT     H245132   9.251   5.029   2.650
14964WAT      O45133   0.082   5.760   5.897
14964WAT     H145134   0.079   5.697   5.974
14964WAT     H245135   0.144   5.836   5.918
14965WAT      O45136   4.261   1.889   4.515
14965WAT     H145137   4.209   1.924   4.436
14965WAT     H245138   4.209   1.817   4.560
14966WAT      O45139   6.150   6.178   8.166
14966WAT     H145140   6.187   6.184   8.259
14966WAT     H245141   6.074   6.242   8.157
14967WAT      O45142   5.161   6.107   1.514
14967WAT     H145143   5.137   6.068   1.603
14967WAT     H245144   5.087   6.089   1.449
14968WAT      O45145   1.018   7.794   6.575
14968WAT     H145146   0.982   7.865   6.515
14968WAT     H245147   0.942   7.738   6.609
14969WAT      O45148   6.392   6.389   0.037
14969WAT     H145149   6.408   6.471   0.092
14969WAT     H245150   6.333   6.411  -0.040
14970WAT      O45151   5.140   2.499   4.335
14970WAT     H145152   5.151   2.593   4.303
14970WAT     H245153   5.044   2.471   4.324
14971WAT      O45154   9.606   1.260   6.497
14971WAT     H145155   9.678   1.309   6.449
14971WAT     H245156   9.519   1.308   6.485
14972WAT      O45157   0.543   7.328   7.562
14972WAT     H145158   0.541   7.229   7.571
14972WAT     H245159   0.633   7.358   7.531
14973WAT      O45160   0.793   9.289   9.439
14973WAT     H145161   0.720   9.249   9.384
14973WAT     H245162   0.754   9.336   9.518
14974WAT      O45163   2.604   1.959   4.733
14974WAT     H145164   2.698   1.941   4.706
14974WAT     H245165   2.592   2.057   4.750
14975WAT      O45166   0.894   7.832   9.242
14975WAT     H145167   0.887   7.757   9.176
14975WAT     H245168   0.952   7.803   9.319
14976WAT      O45169   8.033   1.404   4.965
14976WAT     H145170   7.978   1.375   5.043
14976WAT     H245171   8.032   1.503   4.959
14977WAT      O45172   6.968   0.617   6.943
14977WAT     H145173   6.962   0.521   6.973
14977WAT     H245174   7.012   0.620   6.854
14978WAT      O45175   7.532   9.702   0.822
14978WAT     H145176   7.479   9.715   0.906
14978WAT     H245177   7.484   9.746   0.746
14979WAT      O45178   1.404   4.580   4.453
14979WAT     H145179   1.378   4.541   4.364
14979WAT     H245180   1.399   4.509   4.523
14980WAT      O45181   1.606   8.886   9.216
14980WAT     H145182   1.562   8.914   9.131
14980WAT     H245183   1.568   8.939   9.292
14981WAT      O45184   0.203   1.077   8.758
14981WAT     H145185   0.195   0.977   8.760
14981WAT     H245186   0.143   1.116   8.827
14982WAT      O45187   2.904   7.319   0.612
14982WAT     H145188   2.875   7.239   0.665
14982WAT     H245189   2.994   7.349   0.645
14983WAT      O45190   5.334   4.268   8.448
14983WAT     H145191   5.418   4.214   8.439
14983WAT     H245192   5.304   4.296   8.357
14984WAT      O45193   7.076   1.978   3.720
14984WAT     H145194   6.995   2.032   3.699
14984WAT     H245195   7.048   1.890   3.760
14985WAT      O45196   4.710   7.720   4.646
14985WAT     H145197   4.778   7.665   4.597
14985WAT     H245198   4.619   7.682   4.631
14986WAT      O45199   1.031   9.311   7.803
14986WAT     H145200   1.002   9.366   7.882
14986WAT     H245201   0.981   9.340   7.722
14987WAT      O45202   3.968   6.544   8.729
14987WAT     H145203   3.969   6.541   8.629
14987WAT     H245204   4.010   6.461   8.765
14988WAT      O45205   3.856   3.160   4.094
14988WAT     H145206   3.943   3.155   4.046
14988WAT     H245207   3.871   3.143   4.192
14989WAT      O45208   2.849   2.964   2.713
14989WAT     H145209   2.938   3.001   2.687
14989WAT     H245210   2.826   2.887   2.653
14990WAT      O45211   1.447   8.303   7.582
14990WAT     H145212   1.423   8.394   7.615
14990WAT     H245213   1.441   8.300   7.482
14991WAT      O45214   1.856   2.917   7.204
14991WAT     H145215   1.828   2.829   7.243
14991WAT     H245216   1.945   2.943   7.242
14992WAT      O45217   2.151   4.523   8.997
14992WAT     H145218   2.174   4.616   9.027
14992WAT     H245219   2.093   4.480   9.066
14993WAT      O45220   2.102   9.057   1.080
14993WAT     H145221   2.101   9.103   1.169
14993WAT     H245222   2.119   9.125   1.008
14994WAT      O45223   6.886   5.478   8.309
14994WAT     H145224   6.968   5.518   8.268
14994WAT     H245225   6.816   5.467   8.238
14995WAT      O45226   9.330   4.053   3.793
14995WAT     H145227   9.238   4.017   3.810
14995WAT     H245228   9.377   4.068   3.881
14996WAT      O45229   4.358   4.308   7.500
14996WAT     H145230   4.327   4.238   7.565
14996WAT     H245231   4.312   4.394   7.520
14997WAT      O45232   9.561   4.660   7.584
14997WAT     H145233   9.649   4.630   7.546
14997WAT     H245234   9.577   4.708   7.670
14998WAT      O45235   2.359   8.431   6.603
14998WAT     H145236   2.294   8.478   6.663
14998WAT     H245237   2.419   8.372   6.659
14999WAT      O45238   8.745   6.452   1.189
14999WAT     H145239   8.794   6.372   1.156
14999WAT     H245240   8.696   6.430   1.273
15000WAT      O45241   7.239   2.898   8.918
15000WAT     H145242   7.262   2.989   8.884
15000WAT     H245243   7.140   2.883   8.910
15001WAT      O45244   5.487   8.063   9.350
15001WAT     H145245   5.417   8.085   9.282
15001WAT     H245246   5.453   8.085   9.442
15002WAT      O45247   4.622   3.376   1.433
15002WAT     H145248   4.631   3.422   1.344
15002WAT     H245249   4.526   3.352   1.448
15003WAT      O45250   8.781   4.978   4.573
15003WAT     H145251   8.849   4.919   4.616
15003WAT     H245252   8.810   5.074   4.582
15004WAT      O45253   7.043   3.526   1.151
15004WAT     H145254   7.096   3.610   1.140
15004WAT     H245255   7.098   3.456   1.196
15005WAT      O45256   7.264   1.400   3.164
15005WAT     H145257   7.305   1.310   3.180
15005WAT     H245258   7.218   1.400   3.075
15006WAT      O45259   9.109   8.274   4.109
15006WAT     H145260   9.141   8.223   4.029
15006WAT     H245261   9.177   8.268   4.182
15007WAT      O45262   3.360   2.560   4.053
15007WAT     H145263   3.449   2.586   4.090
15007WAT     H245264   3.349   2.599   3.961
15008WAT      O45265   5.448   2.681   9.554
15008WAT     H145266   5.383   2.748   9.591
15008WAT     H245267   5.408   2.635   9.476
15009WAT      O45268   0.887   4.096   9.431
15009WAT     H145269   0.953   4.062   9.498
15009WAT     H245270   0.827   4.164   9.474
15010WAT      O45271   4.263   6.419   5.546
15010WAT     H145272   4.282   6.489   5.615
15010WAT     H245273   4.291   6.452   5.456
15011WAT      O45274   2.535   1.073   7.274
15011WAT     H145275   2.629   1.042   7.284
15011WAT     H245276   2.502   1.050   7.182
15012WAT      O45277   8.743   6.527   9.257
15012WAT     H145278   8.838   6.495   9.245
15012WAT     H245279   8.739   6.592   9.333
15013WAT      O45280   5.548   9.796   8.706
15013WAT     H145281   5.579   9.701   8.709
15013WAT     H245282   5.451   9.798   8.679
15014WAT      O45283   0.102   6.374   7.629
15014WAT     H145284   0.149   6.402   7.713
15014WAT     H245285   0.072   6.279   7.638
15015WAT      O45286   2.119   2.168   3.504
15015WAT     H145287   2.210   2.126   3.507
15015WAT     H245288   2.067   2.129   3.429
15016WAT      O45289   0.469   3.527   0.278
15016WAT     H145290   0.470   3.467   0.198
15016WAT     H245291   0.545   3.503   0.339
15017WAT      O45292   9.619   6.235   4.147
15017WAT     H145293   9.635   6.146   4.189
15017WAT     H245294   9.698   6.295   4.162
15018WAT      O45295   8.718   3.618   2.046
15018WAT     H145296   8.675   3.627   2.136
15018WAT     H245297   8.655   3.573   1.983
15019WAT      O45298   1.151   2.885   0.220
15019WAT     H145299   1.212   2.827   0.167
15019WAT     H245300   1.203   2.961   0.260
15020WAT      O45301   2.856   0.129   3.675
15020WAT     H145302   2.880   0.145   3.771
15020WAT     H245303   2.787   0.196   3.647
15021WAT      O45304   7.820   2.713   8.741
15021WAT     H145305   7.835   2.627   8.790
15021WAT     H245306   7.887   2.720   8.666
15022WAT      O45307   2.783   2.120   3.434
15022WAT     H145308   2.727   2.196   3.467
15022WAT     H245309   2.852   2.098   3.502
15023WAT      O45310   6.503   1.816   7.875
15023WAT     H145311   6.543   1.726   7.890
15023WAT     H245312   6.504   1.868   7.961
15024WAT      O45313   6.810   3.981   0.976
15024WAT     H145314   6.887   3.963   1.037
15024WAT     H245315   6.736   4.025   1.027
15025WAT      O45316   3.789   0.825   2.901
15025WAT     H145317   3.724   0.751   2.882
15025WAT     H245318   3.781   0.895   2.830
15026WAT      O45319   1.508   9.753   0.860
15026WAT     H145320   1.432   9.735   0.798
15026WAT     H245321   1.582   9.688   0.842
15027WAT      O45322   5.408   9.136   6.178
15027WAT     H145323   5.489   9.119   6.234
15027WAT     H245324   5.377   9.230   6.192
15028WAT      O45325   3.101   3.383   7.651
15028WAT     H145326   3.042   3.459   7.626
15028WAT     H245327   3.058   3.329   7.723
15029WAT      O45328   6.773   7.696   3.873
15029WAT     H145329   6.747   7.692   3.776
15029WAT     H245330   6.771   7.603   3.911
15030WAT      O45331   5.746   9.722   7.485
15030WAT     H145332   5.708   9.641   7.441
15030WAT     H245333   5.783   9.697   7.575
15031WAT      O45334   2.514   7.672   2.659
15031WAT     H145335   2.456   7.707   2.585
15031WAT     H245336   2.605   7.715   2.652
15032WAT      O45337   4.464   7.377   7.250
15032WAT     H145338   4.400   7.322   7.196
15032WAT     H245339   4.445   7.474   7.235
15033WAT      O45340   7.771   4.103   3.466
15033WAT     H145341   7.773   4.149   3.555
15033WAT     H245342   7.847   4.038   3.460
15034WAT      O45343   1.272   0.221   8.253
15034WAT     H145344   1.198   0.285   8.273
15034WAT     H245345   1.331   0.214   8.333
15035WAT      O45346   6.202   7.723   0.939
15035WAT     H145347   6.150   7.699   1.020
15035WAT     H245348   6.146   7.779   0.878
15036WAT      O45349   4.004   1.996   9.211
15036WAT     H145350   3.938   2.001   9.137
15036WAT     H245351   3.957   1.981   9.298
15037WAT      O45352   3.822   2.626   8.202
15037WAT     H145353   3.766   2.681   8.140
15037WAT     H245354   3.795   2.645   8.297
15038WAT      O45355   5.585   9.278   8.065
15038WAT     H145356   5.589   9.352   7.999
15038WAT     H245357   5.582   9.315   8.158
15039WAT      O45358   4.326   0.850   6.885
15039WAT     H145359   4.393   0.924   6.895
15039WAT     H245360   4.358   0.769   6.934
15040WAT      O45361   6.738   1.438   7.017
15040WAT     H145362   6.715   1.428   6.920
15040WAT     H245363   6.783   1.355   7.050
15041WAT      O45364   7.308   2.436   6.232
15041WAT     H145365   7.307   2.361   6.166
15041WAT     H245366   7.218   2.443   6.276
15042WAT      O45367   2.919   7.977   3.672
15042WAT     H145368   2.873   8.065   3.660
15042WAT     H245369   2.914   7.925   3.587
15043WAT      O45370   9.116   5.136   7.342
15043WAT     H145371   9.045   5.126   7.413
15043WAT     H245372   9.106   5.062   7.276
15044WAT      O45373   3.131   3.134   2.129
15044WAT     H145374   3.166   3.108   2.039
15044WAT     H245375   3.207   3.136   2.195
15045WAT      O45376   0.793   6.804   4.605
15045WAT     H145377   0.825   6.858   4.528
15045WAT     H245378   0.719   6.744   4.575
15046WAT      O45379   8.642   5.375   4.964
15046WAT     H145380   8.618   5.465   4.930
15046WAT     H245381   8.737   5.376   4.998
15047WAT      O45382   6.426   3.808   8.024
15047WAT     H145383   6.509   3.755   8.009
15047WAT     H245384   6.443   3.878   8.093
15048WAT      O45385   9.520   8.500   6.784
15048WAT     H145386   9.498   8.407   6.753
15048WAT     H245387   9.472   8.566   6.726
15049WAT      O45388   0.696   6.775   3.197
15049WAT     H145389   0.653   6.865   3.207
15049WAT     H245390   0.645   6.721   3.130
15050WAT      O45391   5.810   6.070   7.088
15050WAT     H145392   5.894   6.094   7.039
15050WAT     H245393   5.762   5.997   7.038
15051WAT      O45394   8.733   4.784   8.441
15051WAT     H145395   8.813   4.841   8.461
15051WAT     H245396   8.652   4.827   8.479
15052WAT      O45397   0.220   4.828   1.313
15052WAT     H145398   0.203   4.732   1.290
15052WAT     H245399   0.278   4.870   1.244
15053WAT      O45400   2.337   1.584   8.470
15053WAT     H145401   2.400   1.558   8.543
15053WAT     H245402   2.389   1.618   8.392
15054WAT      O45403   8.022   5.873   5.339
15054WAT     H145404   8.006   5.852   5.243
15054WAT     H245405   7.985   5.799   5.396
15055WAT      O45406   3.552   3.886   5.278
15055WAT     H145407   3.550   3.958   5.209
15055WAT     H245408   3.518   3.921   5.365
15056WAT      O45409   3.266   9.727   6.841
15056WAT     H145410   3.243   9.631   6.857
15056WAT     H245411   3.365   9.739   6.850
15057WAT      O45412   5.886   3.802   6.556
15057WAT     H145413   5.885   3.868   6.631
15057WAT     H245414   5.979   3.794   6.520
15058WAT      O45415   6.917   1.063   1.051
15058WAT     H145416   7.000   1.037   1.100
15058WAT     H245417   6.890   0.990   0.989
15059WAT      O45418   7.338   0.652   2.535
15059WAT     H145419   7.290   0.608   2.611
15059WAT     H245420   7.394   0.727   2.571
15060WAT      O45421   1.764   2.897   8.436
15060WAT     H145422   1.717   2.948   8.364
15060WAT     H245423   1.850   2.944   8.459
15061WAT      O45424   0.105   4.727   6.551
15061WAT     H145425   0.119   4.742   6.453
15061WAT     H245426   0.137   4.636   6.575
15062WAT      O45427   1.350   3.250   5.684
15062WAT     H145428   1.393   3.294   5.605
15062WAT     H245429   1.420   3.206   5.740
15063WAT      O45430   8.237   5.198   7.972
15063WAT     H145431   8.275   5.210   8.063
15063WAT     H245432   8.140   5.225   7.973
15064WAT      O45433   1.811   2.393   2.804
15064WAT     H145434   1.874   2.458   2.847
15064WAT     H245435   1.737   2.444   2.759
15065WAT      O45436   3.543   2.554   3.057
15065WAT     H145437   3.640   2.536   3.074
15065WAT     H245438   3.492   2.551   3.143
15066WAT      O45439   1.945   2.536   1.807
15066WAT     H145440   1.892   2.563   1.727
15066WAT     H245441   1.893   2.554   1.890
15067WAT      O45442   5.944   7.897   1.272
15067WAT     H145443   5.871   7.961   1.248
15067WAT     H245444   6.014   7.945   1.325
15068WAT      O45445   8.541   9.101   9.540
15068WAT     H145446   8.457   9.131   9.495
15068WAT     H245447   8.519   9.032   9.610
15069WAT      O45448   6.246   2.713   4.283
15069WAT     H145449   6.284   2.662   4.360
15069WAT     H245450   6.273   2.669   4.197
15070WAT      O45451   1.893   0.530   1.676
15070WAT     H145452   1.914   0.621   1.639
15070WAT     H245453   1.794   0.522   1.689
15071WAT      O45454   1.276   2.408   0.680
15071WAT     H145455   1.256   2.496   0.637
15071WAT     H245456   1.370   2.381   0.658
15072WAT      O45457   5.662   2.048   2.283
15072WAT     H145458   5.583   2.028   2.341
15072WAT     H245459   5.635   2.043   2.187
15073WAT      O45460   3.468   9.001   1.232
15073WAT     H145461   3.382   9.033   1.272
15073WAT     H245462   3.484   8.906   1.261
15074WAT      O45463   8.288   0.097   7.155
15074WAT     H145464   8.257   0.103   7.060
15074WAT     H245465   8.322   0.186   7.184
15075WAT      O45466   0.138   0.730   9.768
15075WAT     H145467   0.163   0.634   9.758
15075WAT     H245468   0.217   0.788   9.748
15076WAT      O45469   4.629   6.904   1.978
15076WAT     H145470   4.659   6.962   1.902
15076WAT     H245471   4.638   6.808   1.952
15077WAT      O45472   4.573   9.122   1.104
15077WAT     H145473   4.613   9.194   1.047
15077WAT     H245474   4.556   9.158   1.196
15078WAT      O45475   6.817   3.513   3.373
15078WAT     H145476   6.763   3.447   3.321
15078WAT     H245477   6.780   3.604   3.360
15079WAT      O45478   5.181   9.113   1.908
15079WAT     H145479   5.153   9.207   1.888
15079WAT     H245480   5.281   9.106   1.901
15080WAT      O45481   9.831   8.915   1.476
15080WAT     H145482   9.837   8.932   1.378
15080WAT     H245483   9.746   8.867   1.497
15081WAT      O45484   8.829   1.514   9.158
15081WAT     H145485   8.923   1.521   9.192
15081WAT     H245486   8.770   1.578   9.209
15082WAT      O45487   8.730   7.955   2.711
15082WAT     H145488   8.728   7.930   2.808
15082WAT     H245489   8.816   7.925   2.670
15083WAT      O45490   6.633   6.416   9.236
15083WAT     H145491   6.661   6.381   9.325
15083WAT     H245492   6.631   6.516   9.239
15084WAT      O45493   4.521   3.073   8.627
15084WAT     H145494   4.461   2.994   8.638
15084WAT     H245495   4.587   3.056   8.554
15085WAT      O45496   2.004   9.493   6.328
15085WAT     H145497   2.047   9.553   6.260
15085WAT     H245498   2.064   9.486   6.408
15086WAT      O45499   8.336   7.867   4.919
15086WAT     H145500   8.316   7.931   4.845
15086WAT     H245501   8.284   7.783   4.905
15087WAT      O45502   0.949   7.977   9.847
15087WAT     H145503   0.854   7.947   9.855
15087WAT     H245504   0.954   8.077   9.854
15088WAT      O45505   1.889   9.173   4.155
15088WAT     H145506   1.925   9.251   4.104
15088WAT     H245507   1.915   9.088   4.109
15089WAT      O45508   0.105   8.700   0.928
15089WAT     H145509   0.078   8.747   1.013
15089WAT     H245510   0.027   8.648   0.894
15090WAT      O45511   0.441   8.784   8.384
15090WAT     H145512   0.362   8.799   8.444
15090WAT     H245513   0.460   8.867   8.333
15091WAT      O45514   2.571   4.294   4.561
15091WAT     H145515   2.581   4.199   4.590
15091WAT     H245516   2.493   4.302   4.499
15092WAT      O45517   5.670   2.786   5.697
15092WAT     H145518   5.744   2.853   5.688
15092WAT     H245519   5.606   2.818   5.767
15093WAT      O45520   2.561   5.902   2.287
15093WAT     H145521   2.557   5.992   2.243
15093WAT     H245522   2.468   5.867   2.298
15094WAT      O45523   9.051   0.302   6.113
15094WAT     H145524   9.127   0.297   6.178
15094WAT     H245525   9.009   0.212   6.104
15095WAT      O45526   0.952   9.364   4.012
15095WAT     H145527   0.918   9.280   4.054
15095WAT     H245528   1.006   9.415   4.079
15096WAT      O45529   9.166   9.651   6.430
15096WAT     H145530   9.190   9.698   6.345
15096WAT     H245531   9.130   9.717   6.496
15097WAT      O45532   1.907   4.550   6.131
15097WAT     H145533   1.962   4.490   6.188
15097WAT     H245534   1.832   4.499   6.090
15098WAT      O45535   4.565   7.132   8.366
15098WAT     H145536   4.574   7.159   8.270
15098WAT     H245537   4.482   7.078   8.378
15099WAT      O45538   5.467   1.912   8.898
15099WAT     H145539   5.408   1.970   8.843
15099WAT     H245540   5.559   1.908   8.857
15100WAT      O45541   3.650   9.688   1.836
15100WAT     H145542   3.606   9.723   1.753
15100WAT     H245543   3.582   9.678   1.908
15101WAT      O45544   9.166   8.873   5.454
15101WAT     H145545   9.068   8.868   5.475
15101WAT     H245546   9.188   8.808   5.382
15102WAT      O45547   3.049   9.809   2.942
15102WAT     H145548   3.090   9.778   2.856
15102WAT     H245549   2.997   9.893   2.926
15103WAT      O45550   4.283   8.204   2.318
15103WAT     H145551   4.236   8.241   2.398
15103WAT     H245552   4.315   8.279   2.260
15104WAT      O45553   8.816   8.224   7.242
15104WAT     H145554   8.747   8.238   7.313
15104WAT     H245555   8.892   8.171   7.279
15105WAT      O45556   3.216   4.540   0.006
15105WAT     H145557   3.246   4.623   0.054
15105WAT     H245558   3.233   4.550  -0.092
15106WAT      O45559   7.924   4.717   2.826
15106WAT     H145560   7.931   4.737   2.924
15106WAT     H245561   7.992   4.771   2.776
15107WAT      O45562   8.196   4.223   7.052
15107WAT     H145563   8.237   4.279   6.980
15107WAT     H245564   8.106   4.260   7.076
15108WAT      O45565   1.618   5.286   8.201
15108WAT     H145566   1.554   5.222   8.244
15108WAT     H245567   1.687   5.235   8.151
15109WAT      O45568   8.978   5.936   6.075
15109WAT     H145569   9.001   5.850   6.030
15109WAT     H245570   9.021   5.939   6.165
15110WAT      O45571   7.258   5.224   3.633
15110WAT     H145572   7.191   5.186   3.569
15110WAT     H245573   7.291   5.312   3.597
15111WAT      O45574   5.985   1.909   4.171
15111WAT     H145575   5.924   1.983   4.197
15111WAT     H245576   5.945   1.858   4.095
15112WAT      O45577   3.912   9.135   8.251
15112WAT     H145578   3.946   9.087   8.331
15112WAT     H245579   3.813   9.147   8.259
15113WAT      O45580   3.388   2.925   4.333
15113WAT     H145581   3.418   2.885   4.419
15113WAT     H245582   3.452   2.996   4.305
15114WAT      O45583   8.811   2.169   4.028
15114WAT     H145584   8.901   2.199   4.058
15114WAT     H245585   8.740   2.212   4.084
15115WAT      O45586   8.279   5.406   5.351
15115WAT     H145587   8.180   5.417   5.349
15115WAT     H245588   8.314   5.409   5.257
15116WAT      O45589   3.926   4.898   1.847
15116WAT     H145590   3.956   4.829   1.913
15116WAT     H245591   3.836   4.872   1.811
15117WAT      O45592   6.745   8.858   6.261
15117WAT     H145593   6.771   8.775   6.311
15117WAT     H245594   6.668   8.902   6.307
15118WAT      O45595   9.780   5.056   3.007
15118WAT     H145596   9.735   5.042   2.919
15118WAT     H245597   9.879   5.050   2.995
15119WAT      O45598   7.567   0.060   5.042
15119WAT     H145599   7.590  -0.037   5.049
15119WAT     H245600   7.646   0.115   5.069
15120WAT      O45601   1.277   7.860   6.687
15120WAT     H145602   1.191   7.835   6.645
15120WAT     H245603   1.350   7.801   6.653
15121WAT      O45604   6.116   4.882   6.211
15121WAT     H145605   6.092   4.788   6.190
15121WAT     H245606   6.043   4.943   6.180
15122WAT      O45607   7.578   4.498   5.151
15122WAT     H145608   7.498   4.543   5.111
15122WAT     H245609   7.570   4.500   5.251
15123WAT      O45610   4.702   4.348   3.977
15123WAT     H145611   4.617   4.303   4.004
15123WAT     H245612   4.737   4.401   4.055
15124WAT      O45613   3.411   5.671   3.722
15124WAT     H145614   3.318   5.641   3.743
15124WAT     H245615   3.427   5.665   3.624
15125WAT      O45616   7.476   3.826   2.078
15125WAT     H145617   7.529   3.894   2.129
15125WAT     H245618   7.403   3.791   2.136
15126WAT      O45619   8.397   4.431   2.783
15126WAT     H145620   8.426   4.344   2.823
15126WAT     H245621   8.403   4.426   2.684
15127WAT      O45622   3.097   9.337   9.750
15127WAT     H145623   3.194   9.337   9.724
15127WAT     H245624   3.085   9.279   9.830
15128WAT      O45625   1.103   1.869   2.530
15128WAT     H145626   1.089   1.896   2.625
15128WAT     H245627   1.102   1.950   2.471
15129WAT      O45628   5.714   2.264   3.756
15129WAT     H145629   5.703   2.242   3.853
15129WAT     H245630   5.624   2.284   3.716
15130WAT      O45631   1.377   4.986   8.518
15130WAT     H145632   1.349   4.911   8.458
15130WAT     H245633   1.382   4.952   8.612
15131WAT      O45634   5.135   9.695   6.944
15131WAT     H145635   5.107   9.779   6.990
15131WAT     H245636   5.068   9.623   6.962
15132WAT      O45637   2.917   4.087   3.430
15132WAT     H145638   2.911   3.988   3.420
15132WAT     H245639   3.001   4.121   3.386
15133WAT      O45640   4.904   6.930   7.581
15133WAT     H145641   4.944   6.877   7.507
15133WAT     H245642   4.976   6.963   7.641
15134WAT      O45643   9.180   7.730   8.858
15134WAT     H145644   9.105   7.777   8.810
15134WAT     H245645   9.261   7.789   8.859
15135WAT      O45646   4.357   6.079   0.960
15135WAT     H145647   4.387   6.083   1.055
15135WAT     H245648   4.262   6.050   0.956
15136WAT      O45649   7.608   5.945   4.917
15136WAT     H145650   7.706   5.925   4.922
15136WAT     H245651   7.574   5.922   4.826
15137WAT      O45652   3.854   9.250   2.893
15137WAT     H145653   3.775   9.246   2.955
15137WAT     H245654   3.932   9.205   2.936
15138WAT      O45655   1.040   2.217   1.892
15138WAT     H145656   1.042   2.120   1.866
15138WAT     H245657   0.998   2.271   1.819
15139WAT      O45658   9.880   2.246   7.617
15139WAT     H145659   9.899   2.299   7.535
15139WAT     H245660   9.800   2.187   7.601
15140WAT      O45661   4.851   6.415   1.335
15140WAT     H145662   4.862   6.508   1.299
15140WAT     H245663   4.820   6.355   1.261
15141WAT      O45664   5.842   8.862   1.100
15141WAT     H145665   5.848   8.763   1.085
15141WAT     H245666   5.916   8.907   1.050
15142WAT      O45667   2.185   0.742   9.780
15142WAT     H145668   2.176   0.659   9.835
15142WAT     H245669   2.104   0.798   9.791
15143WAT      O45670   8.785   5.494   3.204
15143WAT     H145671   8.736   5.446   3.277
15143WAT     H245672   8.803   5.430   3.129
15144WAT      O45673   9.596   6.317   5.924
15144WAT     H145674   9.532   6.296   5.998
15144WAT     H245675   9.640   6.233   5.893
15145WAT      O45676   6.919   3.842   4.990
15145WAT     H145677   6.917   3.839   5.090
15145WAT     H245678   6.928   3.937   4.960
15146WAT      O45679   1.677   2.546   3.500
15146WAT     H145680   1.777   2.540   3.501
15146WAT     H245681   1.645   2.543   3.405
15147WAT      O45682   7.455   4.289   7.238
15147WAT     H145683   7.413   4.372   7.274
15147WAT     H245684   7.407   4.209   7.274
15148WAT      O45685   8.190   6.188   0.641
15148WAT     H145686   8.233   6.219   0.556
15148WAT     H245687   8.217   6.093   0.660
15149WAT      O45688   0.295   4.172   1.435
15149WAT     H145689   0.334   4.252   1.389
15149WAT     H245690   0.355   4.145   1.511
15150WAT      O45691   5.618   8.736   5.011
15150WAT     H145692   5.561   8.744   4.929
15150WAT     H245693   5.562   8.704   5.087
15151WAT      O45694   1.938   3.225   6.895
15151WAT     H145695   1.912   3.271   6.979
15151WAT     H245696   1.893   3.135   6.891
15152WAT      O45697   8.578   0.240   7.010
15152WAT     H145698   8.510   0.274   6.945
15152WAT     H245699   8.542   0.249   7.103
15153WAT      O45700   1.299   7.374   2.286
15153WAT     H145701   1.260   7.455   2.331
15153WAT     H245702   1.274   7.292   2.338
15154WAT      O45703   8.695   6.959   5.333
15154WAT     H145704   8.767   6.928   5.270
15154WAT     H245705   8.630   7.016   5.283
15155WAT      O45706   6.958   0.837   4.204
15155WAT     H145707   6.892   0.909   4.182
15155WAT     H245708   7.051   0.875   4.200
15156WAT      O45709   7.126   4.607   2.873
15156WAT     H145710   7.097   4.626   2.779
15156WAT     H245711   7.062   4.651   2.937
15157WAT      O45712   5.677   0.165   5.798
15157WAT     H145713   5.629   0.237   5.848
15157WAT     H245714   5.706   0.201   5.709
15158WAT      O45715   3.549   8.328   2.183
15158WAT     H145716   3.476   8.279   2.231
15158WAT     H245717   3.584   8.401   2.241
15159WAT      O45718   1.323   0.583   0.590
15159WAT     H145719   1.335   0.484   0.606
15159WAT     H245720   1.359   0.633   0.669
15160WAT      O45721   6.899   4.837   8.802
15160WAT     H145722   6.975   4.820   8.740
15160WAT     H245723   6.828   4.889   8.755
15161WAT      O45724   1.532   6.823   1.103
15161WAT     H145725   1.563   6.742   1.153
15161WAT     H245726   1.441   6.808   1.066
15162WAT      O45727   3.219   7.319   2.180
15162WAT     H145728   3.123   7.303   2.160
15162WAT     H245729   3.246   7.410   2.147
15163WAT      O45730   9.210   3.721   7.827
15163WAT     H145731   9.293   3.744   7.777
15163WAT     H245732   9.173   3.803   7.871
15164WAT      O45733   6.214   6.227   6.577
15164WAT     H145734   6.237   6.130   6.589
15164WAT     H245735   6.294   6.277   6.544
15165WAT      O45736   3.245   8.438   4.748
15165WAT     H145737   3.268   8.536   4.752
15165WAT     H245738   3.324   8.387   4.714
15166WAT      O45739   4.460   9.279   8.818
15166WAT     H145740   4.560   9.278   8.812
15166WAT     H245741   4.432   9.326   8.901
15167WAT      O45742   4.204   7.825   2.976
15167WAT     H145743   4.229   7.749   3.036
15167WAT     H245744   4.159   7.896   3.030
15168WAT      O45745   0.041   4.838   6.797
15168WAT     H145746   0.019   4.760   6.856
15168WAT     H245747   0.036   4.809   6.701
15169WAT      O45748   1.678   4.554   7.050
15169WAT     H145749   1.601   4.596   7.098
15169WAT     H245750   1.761   4.565   7.104
15170WAT      O45751   0.881   7.928   3.591
15170WAT     H145752   0.842   7.958   3.504
15170WAT     H245753   0.936   8.001   3.631
15171WAT      O45754   2.965   8.561   2.552
15171WAT     H145755   3.046   8.503   2.551
15171WAT     H245756   2.888   8.510   2.590
15172WAT      O45757   4.751   5.904   9.148
15172WAT     H145758   4.754   5.805   9.162
15172WAT     H245759   4.844   5.941   9.152
15173WAT      O45760   4.036   1.144   2.441
15173WAT     H145761   4.020   1.047   2.456
15173WAT     H245762   4.102   1.157   2.367
15174WAT      O45763   2.036   8.280   8.878
15174WAT     H145764   2.035   8.368   8.830
15174WAT     H245765   1.972   8.217   8.834
15175WAT      O45766   3.223   4.771   8.517
15175WAT     H145767   3.322   4.782   8.513
15175WAT     H245768   3.200   4.673   8.514
15176WAT      O45769   4.848   7.557   2.802
15176WAT     H145770   4.748   7.556   2.791
15176WAT     H245771   4.871   7.546   2.898
15177WAT      O45772   7.615   2.435   2.480
15177WAT     H145773   7.594   2.366   2.410
15177WAT     H245774   7.686   2.497   2.446
15178WAT      O45775   4.516   6.649   2.356
15178WAT     H145776   4.575   6.694   2.288
15178WAT     H245777   4.480   6.564   2.317
15179WAT      O45778   3.578   3.841   6.912
15179WAT     H145779   3.488   3.877   6.887
15179WAT     H245780   3.626   3.908   6.969
15180WAT      O45781   9.533   7.184   6.638
15180WAT     H145782   9.536   7.157   6.734
15180WAT     H245783   9.443   7.222   6.617
15181WAT      O45784   1.053   9.446   2.168
15181WAT     H145785   1.113   9.367   2.157
15181WAT     H245786   0.994   9.455   2.089
15182WAT      O45787   3.927   0.195   7.331
15182WAT     H145788   3.906   0.106   7.372
15182WAT     H245789   3.892   0.198   7.237
15183WAT      O45790   4.437   7.651   4.520
15183WAT     H145791   4.417   7.643   4.423
15183WAT     H245792   4.423   7.746   4.549
15184WAT      O45793   9.683   4.775   7.058
15184WAT     H145794   9.765   4.742   7.104
15184WAT     H245795   9.602   4.738   7.104
15185WAT      O45796   0.587   5.210   3.588
15185WAT     H145797   0.527   5.130   3.576
15185WAT     H245798   0.564   5.256   3.673
15186WAT      O45799   7.060   1.108   7.805
15186WAT     H145800   7.007   1.162   7.871
15186WAT     H245801   7.155   1.141   7.805
15187WAT      O45802   6.896   1.318   0.469
15187WAT     H145803   6.922   1.329   0.565
15187WAT     H245804   6.960   1.367   0.411
15188WAT      O45805   6.378   9.534   9.666
15188WAT     H145806   6.293   9.483   9.679
15188WAT     H245807   6.452   9.485   9.712
15189WAT      O45808   4.062   4.835   7.223
15189WAT     H145809   4.103   4.745   7.210
15189WAT     H245810   4.051   4.853   7.321
15190WAT      O45811   1.477   2.157   6.437
15190WAT     H145812   1.481   2.069   6.391
15190WAT     H245813   1.409   2.215   6.391
15191WAT      O45814   6.317   7.695   6.020
15191WAT     H145815   6.330   7.694   5.921
15191WAT     H245816   6.230   7.740   6.042
15192WAT      O45817   3.454   3.113   8.478
15192WAT     H145818   3.354   3.110   8.478
15192WAT     H245819   3.489   3.019   8.476
15193WAT      O45820   9.761   3.120   1.587
15193WAT     H145821   9.784   3.188   1.656
15193WAT     H245822   9.726   3.166   1.505
15194WAT      O45823   1.004   5.514   6.191
15194WAT     H145824   1.005   5.499   6.092
15194WAT     H245825   1.082   5.571   6.217
15195WAT      O45826   2.958   5.625   9.680
15195WAT     H145827   3.025   5.670   9.740
15195WAT     H245828   2.985   5.639   9.584
15196WAT      O45829   6.586   9.480   6.382
15196WAT     H145830   6.586   9.541   6.461
15196WAT     H245831   6.671   9.427   6.381
15197WAT      O45832   0.856   5.611   2.656
15197WAT     H145833   0.928   5.651   2.598
15197WAT     H245834   0.769   5.615   2.608
15198WAT      O45835   7.852   0.612   3.408
15198WAT     H145836   7.859   0.591   3.310
15198WAT     H245837   7.798   0.542   3.454
15199WAT      O45838   7.189   6.047   2.721
15199WAT     H145839   7.233   6.093   2.644
15199WAT     H245840   7.173   5.951   2.698
15200WAT      O45841   3.853   2.569   3.102
15200WAT     H145842   3.854   2.576   3.202
15200WAT     H245843   3.824   2.657   3.063
15201WAT      O45844   6.245   7.221   5.939
15201WAT     H145845   6.256   7.294   6.006
15201WAT     H245846   6.304   7.144   5.964
15202WAT      O45847   5.566   1.120   2.370
15202WAT     H145848   5.632   1.086   2.303
15202WAT     H245849   5.493   1.169   2.322
15203WAT      O45850   9.477   1.687   4.164
15203WAT     H145851   9.540   1.658   4.092
15203WAT     H245852   9.497   1.637   4.248
15204WAT      O45853   7.512   1.020   6.107
15204WAT     H145854   7.562   1.040   6.022
15204WAT     H245855   7.574   0.978   6.172
15205WAT      O45856   9.078   9.605   0.645
15205WAT     H145857   9.134   9.668   0.699
15205WAT     H245858   9.013   9.657   0.589
15206WAT      O45859   2.351   4.046   2.691
15206WAT     H145860   2.368   4.016   2.784
15206WAT     H245861   2.277   3.993   2.651
15207WAT      O45862   9.410   7.379   0.070
15207WAT     H145863   9.502   7.394   0.107
15207WAT     H245864   9.416   7.361  -0.028
15208WAT      O45865   5.210   8.395   6.026
15208WAT     H145866   5.223   8.487   6.061
15208WAT     H245867   5.117   8.364   6.045
15209WAT      O45868   5.774   2.285   8.686
15209WAT     H145869   5.873   2.274   8.691
15209WAT     H245870   5.745   2.285   8.590
15210WAT      O45871   5.361   2.055   4.101
15210WAT     H145872   5.342   1.965   4.140
15210WAT     H245873   5.303   2.123   4.146
15211WAT      O45874   7.321   6.632   4.346
15211WAT     H145875   7.254   6.557   4.349
15211WAT     H245876   7.275   6.715   4.312
15212WAT      O45877   4.982   6.455   5.340
15212WAT     H145878   4.943   6.458   5.248
15212WAT     H245879   5.080   6.436   5.335
15213WAT      O45880   7.765   3.970   1.774
15213WAT     H145881   7.744   3.872   1.768
15213WAT     H245882   7.699   4.021   1.719
15214WAT      O45883   4.151   1.652   2.627
15214WAT     H145884   4.230   1.606   2.587
15214WAT     H245885   4.072   1.590   2.627
15215WAT      O45886   7.751   2.653   3.239
15215WAT     H145887   7.788   2.563   3.261
15215WAT     H245888   7.825   2.720   3.239
15216WAT      O45889   0.996   7.991   8.068
15216WAT     H145890   1.037   8.078   8.094
15216WAT     H245891   0.923   7.967   8.133
15217WAT      O45892   8.650   8.086   9.681
15217WAT     H145893   8.656   7.987   9.688
15217WAT     H245894   8.718   8.119   9.615
15218WAT      O45895   5.216   4.681   6.716
15218WAT     H145896   5.127   4.706   6.677
15218WAT     H245897   5.279   4.758   6.708
15219WAT      O45898   8.094   8.865   2.093
15219WAT     H145899   8.125   8.842   2.186
15219WAT     H245900   7.999   8.834   2.081
15220WAT      O45901   9.115   4.714   6.816
15220WAT     H145902   9.077   4.719   6.724
15220WAT     H245903   9.144   4.805   6.845
15221WAT      O45904   0.587   2.172   6.470
15221WAT     H145905   0.642   2.252   6.493
15221WAT     H245906   0.544   2.136   6.553
15222WAT      O45907   0.010   1.535   4.022
15222WAT     H145908   0.053   1.449   3.993
15222WAT     H245909   0.038   1.555   4.116
15223WAT      O45910   0.658   7.751   0.584
15223WAT     H145911   0.732   7.764   0.518
15223WAT     H245912   0.662   7.657   0.620
15224WAT      O45913   5.948   2.974   5.206
15224WAT     H145914   5.966   2.876   5.212
15224WAT     H245915   5.878   3.000   5.273
15225WAT      O45916   0.047   3.047   5.556
15225WAT     H145917   0.038   3.001   5.467
15225WAT     H245918   0.085   2.983   5.623
15226WAT      O45919   5.724   6.919   7.938
15226WAT     H145920   5.706   6.861   7.858
15226WAT     H245921   5.815   6.958   7.930
15227WAT      O45922   2.984   5.588   6.348
15227WAT     H145923   3.037   5.513   6.389
15227WAT     H245924   2.992   5.584   6.248
15228WAT      O45925   1.799   6.301   2.089
15228WAT     H145926   1.849   6.333   2.170
15228WAT     H245927   1.805   6.370   2.017
15229WAT      O45928   5.236   1.770   0.615
15229WAT     H145929   5.171   1.787   0.689
15229WAT     H245930   5.207   1.691   0.562
15230WAT      O45931   8.008   7.842   2.226
15230WAT     H145932   7.980   7.898   2.148
15230WAT     H245933   8.075   7.775   2.196
15231WAT      O45934   8.451   8.812   8.888
15231WAT     H145935   8.352   8.803   8.896
15231WAT     H245936   8.477   8.908   8.904
15232WAT      O45937   5.583   2.155   4.345
15232WAT     H145938   5.546   2.225   4.284
15232WAT     H245939   5.551   2.171   4.438
15233WAT      O45940   9.393   1.678   6.563
15233WAT     H145941   9.320   1.722   6.615
15233WAT     H245942   9.382   1.579   6.568
15234WAT      O45943   1.585   7.653   9.474
15234WAT     H145944   1.523   7.684   9.546
15234WAT     H245945   1.573   7.710   9.393
15235WAT      O45946   9.468   2.638   1.965
15235WAT     H145947   9.446   2.695   1.886
15235WAT     H245948   9.448   2.543   1.943
15236WAT      O45949   1.534   4.563   8.077
15236WAT     H145950   1.453   4.520   8.118
15236WAT     H245951   1.601   4.583   8.148
15237WAT      O45952   6.750   3.673   3.989
15237WAT     H145953   6.824   3.740   3.982
15237WAT     H245954   6.719   3.667   4.084
15238WAT      O45955   2.316   1.855   4.228
15238WAT     H145956   2.329   1.912   4.147
15238WAT     H245957   2.297   1.761   4.200
15239WAT      O45958   8.653   9.692   4.977
15239WAT     H145959   8.716   9.615   4.986
15239WAT     H245960   8.688   9.757   4.909
15240WAT      O45961   4.755   0.367   3.747
15240WAT     H145962   4.702   0.310   3.811
15240WAT     H245963   4.720   0.354   3.654
15241WAT      O45964   9.486   7.837   3.556
15241WAT     H145965   9.458   7.917   3.503
15241WAT     H245966   9.573   7.802   3.520
15242WAT      O45967   2.093   8.669   1.819
15242WAT     H145968   2.190   8.691   1.812
15242WAT     H245969   2.054   8.715   1.899
15243WAT      O45970   0.349   4.198   6.917
15243WAT     H145971   0.444   4.168   6.923
15243WAT     H245972   0.343   4.282   6.864
15244WAT      O45973   6.660   6.352   6.447
15244WAT     H145974   6.614   6.265   6.430
15244WAT     H245975   6.755   6.336   6.472
15245WAT      O45976   5.021   4.514   1.752
15245WAT     H145977   5.106   4.503   1.702
15245WAT     H245978   5.034   4.485   1.847
15246WAT      O45979   8.257   2.069   0.250
15246WAT     H145980   8.249   2.158   0.205
15246WAT     H245981   8.169   2.041   0.287
15247WAT      O45982   8.083   7.232   9.164
15247WAT     H145983   8.121   7.149   9.125
15247WAT     H245984   8.137   7.260   9.243
15248WAT      O45985   7.248   5.021   7.091
15248WAT     H145986   7.334   4.986   7.129
15248WAT     H245987   7.257   5.032   6.992
15249WAT      O45988   8.090   1.733   2.056
15249WAT     H145989   8.116   1.688   1.970
15249WAT     H245990   8.034   1.671   2.111
15250WAT      O45991   2.371   4.375   8.067
15250WAT     H145992   2.380   4.310   8.143
15250WAT     H245993   2.458   4.381   8.017
15251WAT      O45994   0.918   9.794   5.157
15251WAT     H145995   0.869   9.835   5.080
15251WAT     H245996   0.887   9.700   5.169
15252WAT      O45997   3.841   5.286   3.177
15252WAT     H145998   3.922   5.240   3.214
15252WAT     H245999   3.866   5.342   3.099
15253WAT      O46000   1.052   5.131   7.102
15253WAT     H146001   1.098   5.049   7.069
15253WAT     H246002   0.975   5.153   7.042
15254WAT      O46003   3.584   6.758   6.814
15254WAT     H146004   3.517   6.759   6.887
15254WAT     H246005   3.581   6.844   6.764
15255WAT      O46006   1.477   0.746   2.077
15255WAT     H146007   1.517   0.786   1.995
15255WAT     H246008   1.471   0.815   2.149
15256WAT      O46009   8.003   2.981   9.683
15256WAT     H146010   8.061   2.906   9.653
15256WAT     H246011   8.057   3.065   9.689
15257WAT      O46012   6.178   3.384   0.021
15257WAT     H146013   6.100   3.426   0.065
15257WAT     H246014   6.161   3.377  -0.077
15258WAT      O46015   0.159   9.494   8.248
15258WAT     H146016   0.242   9.456   8.288
15258WAT     H246017   0.180   9.577   8.197
15259WAT      O46018   4.648   6.676   5.499
15259WAT     H146019   4.740   6.715   5.497
15259WAT     H246020   4.584   6.745   5.531
15260WAT      O46021   3.990   4.429   6.552
15260WAT     H146022   3.978   4.522   6.517
15260WAT     H246023   4.044   4.431   6.636
15261WAT      O46024   8.119   9.403   1.184
15261WAT     H146025   8.096   9.315   1.224
15261WAT     H246026   8.058   9.423   1.107
15262WAT      O46027   7.747   7.568   9.792
15262WAT     H146028   7.679   7.497   9.775
15262WAT     H246029   7.806   7.578   9.712
15263WAT      O46030   6.545   6.256   5.320
15263WAT     H146031   6.574   6.171   5.277
15263WAT     H246032   6.606   6.278   5.396
15264WAT      O46033   0.625   8.999   6.018
15264WAT     H146034   0.547   8.980   5.958
15264WAT     H246035   0.666   8.913   6.048
15265WAT      O46036   6.344   3.683   9.419
15265WAT     H146037   6.284   3.665   9.496
15265WAT     H246038   6.337   3.608   9.352
15266WAT      O46039   4.817   9.451   2.692
15266WAT     H146040   4.811   9.421   2.597
15266WAT     H246041   4.792   9.548   2.698
15267WAT      O46042   2.050   5.304   9.473
15267WAT     H146043   2.010   5.224   9.519
15267WAT     H246044   2.083   5.276   9.382
15268WAT      O46045   3.601   7.209   0.179
15268WAT     H146046   3.614   7.308   0.187
15268WAT     H246047   3.503   7.190   0.166
15269WAT      O46048   6.726   2.335   1.517
15269WAT     H146049   6.824   2.351   1.510
15269WAT     H246050   6.707   2.238   1.508
15270WAT      O46051   0.778   7.669   5.263
15270WAT     H146052   0.695   7.674   5.318
15270WAT     H246053   0.770   7.731   5.185
15271WAT      O46054   5.289   7.530   4.290
15271WAT     H146055   5.365   7.589   4.264
15271WAT     H246056   5.324   7.442   4.321
15272WAT      O46057   0.464   4.097   4.966
15272WAT     H146058   0.498   4.190   4.951
15272WAT     H246059   0.491   4.066   5.057
15273WAT      O46060   7.802   2.340   3.268
15273WAT     H146061   7.773   2.356   3.174
15273WAT     H246062   7.729   2.295   3.318
15274WAT      O46063   0.482   0.567   7.589
15274WAT     H146064   0.449   0.500   7.656
15274WAT     H246065   0.530   0.641   7.637
15275WAT      O46066   6.552   1.840   0.749
15275WAT     H146067   6.645   1.809   0.771
15275WAT     H246068   6.555   1.936   0.721
15276WAT      O46069   2.588   0.552   7.114
15276WAT     H146070   2.674   0.599   7.092
15276WAT     H246071   2.584   0.466   7.064
15277WAT      O46072   3.451   5.575   2.908
15277WAT     H146073   3.380   5.595   2.840
15277WAT     H246074   3.514   5.653   2.914
15278WAT      O46075   3.864   5.630   4.326
15278WAT     H146076   3.902   5.601   4.238
15278WAT     H246077   3.821   5.551   4.371
15279WAT      O46078   2.413   1.753   7.358
15279WAT     H146079   2.348   1.829   7.362
15279WAT     H246080   2.376   1.675   7.409
15280WAT      O46081   9.837   0.357   0.804
15280WAT     H146082   9.767   0.299   0.847
15280WAT     H246083   9.797   0.403   0.724
15281WAT      O46084   5.314   0.265   7.362
15281WAT     H146085   5.365   0.227   7.286
15281WAT     H246086   5.296   0.194   7.430
15282WAT      O46087   9.811   1.768   9.469
15282WAT     H146088   9.866   1.759   9.552
15282WAT     H246089   9.734   1.703   9.473
15283WAT      O46090   1.679   9.570   9.075
15283WAT     H146091   1.676   9.475   9.041
15283WAT     H246092   1.766   9.611   9.051
15284WAT      O46093   2.724   2.445   6.929
15284WAT     H146094   2.747   2.512   7.000
15284WAT     H246095   2.688   2.362   6.972
15285WAT      O46096   7.607   9.587   4.665
15285WAT     H146097   7.592   9.676   4.709
15285WAT     H246098   7.556   9.584   4.579
15286WAT      O46099   9.551   6.006   7.595
15286WAT     H146100   9.608   5.932   7.560
15286WAT     H246101   9.502   5.975   7.677
15287WAT      O46102   8.187   5.421   3.143
15287WAT     H146103   8.240   5.483   3.084
15287WAT     H246104   8.247   5.378   3.209
15288WAT      O46105   6.308   3.048   0.162
15288WAT     H146106   6.213   3.066   0.186
15288WAT     H246107   6.311   3.005   0.072
15289WAT      O46108   8.719   8.475   2.355
15289WAT     H146109   8.749   8.475   2.259
15289WAT     H246110   8.670   8.560   2.374
15290WAT      O46111   3.814   8.874   6.050
15290WAT     H146112   3.777   8.948   6.106
15290WAT     H246113   3.807   8.787   6.101
15291WAT      O46114   9.002   2.107   1.823
15291WAT     H146115   8.931   2.144   1.764
15291WAT     H246116   9.028   2.016   1.791
15292WAT      O46117   5.346   6.062   0.912
15292WAT     H146118   5.344   6.161   0.924
15292WAT     H246119   5.331   6.017   1.000
15293WAT      O46120   1.134   7.295   3.626
15293WAT     H146121   1.128   7.324   3.531
15293WAT     H246122   1.222   7.324   3.665
15294WAT      O46123   2.742   3.758   5.503
15294WAT     H146124   2.670   3.752   5.434
15294WAT     H246125   2.822   3.706   5.473
15295WAT      O46126   0.934   2.676   4.169
15295WAT     H146127   0.926   2.576   4.172
15295WAT     H246128   0.968   2.704   4.080
15296WAT      O46129   4.435   7.926   9.259
15296WAT     H146130   4.484   7.852   9.213
15296WAT     H246131   4.419   8.000   9.194
15297WAT      O46132   0.090   8.614   1.862
15297WAT     H146133   0.028   8.624   1.785
15297WAT     H246134   0.078   8.691   1.925
15298WAT      O46135   3.277   3.890   0.936
15298WAT     H146136   3.309   3.964   0.995
15298WAT     H246137   3.355   3.834   0.907
15299WAT      O46138   7.185   2.634   2.411
15299WAT     H146139   7.236   2.557   2.449
15299WAT     H246140   7.237   2.718   2.421
15300WAT      O46141   1.922   1.513   5.772
15300WAT     H146142   1.846   1.527   5.835
15300WAT     H246143   1.930   1.415   5.751
15301WAT      O46144   6.717   5.641   5.925
15301WAT     H146145   6.754   5.599   6.008
15301WAT     H246146   6.702   5.739   5.941
15302WAT      O46147   0.260   8.732   5.969
15302WAT     H146148   0.239   8.686   5.883
15302WAT     H246149   0.216   8.682   6.045
15303WAT      O46150   6.692   2.264   6.824
15303WAT     H146151   6.711   2.298   6.733
15303WAT     H246152   6.594   2.242   6.832
15304WAT      O46153   7.490   5.535   2.207
15304WAT     H146154   7.474   5.485   2.122
15304WAT     H246155   7.578   5.583   2.202
15305WAT      O46156   5.868   3.789   0.308
15305WAT     H146157   5.884   3.694   0.281
15305WAT     H246158   5.770   3.807   0.309
15306WAT      O46159   3.767   2.334   4.955
15306WAT     H146160   3.832   2.406   4.931
15306WAT     H246161   3.816   2.251   4.982
15307WAT      O46162   8.198   9.527   0.120
15307WAT     H146163   8.132   9.587   0.165
15307WAT     H246164   8.157   9.437   0.106
15308WAT      O46165   1.179   0.347   3.873
15308WAT     H146166   1.114   0.377   3.802
15308WAT     H246167   1.225   0.427   3.912
15309WAT      O46168   4.349   4.291   7.933
15309WAT     H146169   4.338   4.253   8.025
15309WAT     H246170   4.302   4.232   7.867
15310WAT      O46171   1.214   7.121   7.128
15310WAT     H146172   1.163   7.044   7.167
15310WAT     H246173   1.174   7.206   7.161
15311WAT      O46174   8.819   6.160   6.015
15311WAT     H146175   8.749   6.147   5.944
15311WAT     H246176   8.880   6.081   6.015
15312WAT      O46177   5.492   6.693   0.454
15312WAT     H146178   5.577   6.688   0.506
15312WAT     H246179   5.419   6.725   0.515
15313WAT      O46180   1.055   8.231   8.205
15313WAT     H146181   1.089   8.278   8.286
15313WAT     H246182   0.961   8.260   8.187
15314WAT      O46183   9.834   0.731   1.601
15314WAT     H146184   9.746   0.772   1.578
15314WAT     H246185   9.906   0.799   1.586
15315WAT      O46186   2.802   1.794   2.712
15315WAT     H146187   2.729   1.775   2.646
15315WAT     H246188   2.874   1.847   2.668
15316WAT      O46189   6.039   5.807   9.606
15316WAT     H146190   6.085   5.721   9.583
15316WAT     H246191   6.107   5.876   9.629
15317WAT      O46192   4.517   4.201   3.559
15317WAT     H146193   4.546   4.292   3.589
15317WAT     H246194   4.563   4.177   3.474
15318WAT      O46195   0.766   4.629   3.498
15318WAT     H146196   0.742   4.726   3.500
15318WAT     H246197   0.752   4.593   3.406
15319WAT      O46198   1.516   1.895   6.322
15319WAT     H146199   1.581   1.900   6.398
15319WAT     H246200   1.559   1.931   6.239
15320WAT      O46201   5.516   1.459   8.062
15320WAT     H146202   5.610   1.486   8.042
15320WAT     H246203   5.457   1.478   7.983
15321WAT      O46204   3.931   3.370   8.351
15321WAT     H146205   3.928   3.279   8.393
15321WAT     H246206   3.927   3.361   8.252
15322WAT      O46207   3.741   1.392   2.016
15322WAT     H146208   3.757   1.361   1.922
15322WAT     H246209   3.734   1.313   2.076
15323WAT      O46210   5.345   1.397   6.078
15323WAT     H146211   5.418   1.365   6.016
15323WAT     H246212   5.257   1.393   6.030
15324WAT      O46213   7.995   6.028   2.780
15324WAT     H146214   8.027   5.948   2.830
15324WAT     H246215   8.065   6.100   2.784
15325WAT      O46216   3.960   1.815   6.097
15325WAT     H146217   4.001   1.819   6.188
15325WAT     H246218   3.914   1.902   6.078
15326WAT      O46219   5.796   2.157   9.346
15326WAT     H146220   5.773   2.065   9.311
15326WAT     H246221   5.831   2.149   9.439
15327WAT      O46222   3.966   8.056   4.748
15327WAT     H146223   3.887   8.014   4.792
15327WAT     H246224   3.939   8.093   4.659
15328WAT      O46225   6.628   4.054   6.029
15328WAT     H146226   6.636   4.093   5.937
15328WAT     H246227   6.599   4.125   6.093
15329WAT      O46228   3.964   5.332   1.510
15329WAT     H146229   3.888   5.377   1.557
15329WAT     H246230   3.929   5.271   1.439
15330WAT      O46231   2.837   7.090   2.307
15330WAT     H146232   2.741   7.101   2.281
15330WAT     H246233   2.892   7.158   2.260
15331WAT      O46234   8.655   5.833   8.251
15331WAT     H146235   8.733   5.794   8.202
15331WAT     H246236   8.641   5.927   8.222
15332WAT      O46237   5.801   4.487   5.703
15332WAT     H146238   5.848   4.528   5.625
15332WAT     H246239   5.713   4.533   5.717
15333WAT      O46240   3.613   8.319   4.248
15333WAT     H146241   3.552   8.359   4.179
15333WAT     H246242   3.698   8.372   4.252
15334WAT      O46243   3.439   8.144   3.133
15334WAT     H146244   3.507   8.197   3.082
15334WAT     H246245   3.426   8.185   3.223
15335WAT      O46246   0.665   5.709   4.511
15335WAT     H146247   0.713   5.633   4.465
15335WAT     H246248   0.571   5.715   4.476
15336WAT      O46249   4.321   7.340   3.670
15336WAT     H146250   4.377   7.423   3.667
15336WAT     H246251   4.366   7.268   3.617
15337WAT      O46252   7.543   7.086   2.127
15337WAT     H146253   7.533   7.096   2.226
15337WAT     H246254   7.519   6.993   2.100
15338WAT      O46255   0.827   6.375   0.470
15338WAT     H146256   0.907   6.431   0.450
15338WAT     H246257   0.844   6.280   0.444
15339WAT      O46258   3.400   1.718   4.940
15339WAT     H146259   3.492   1.721   4.978
15339WAT     H246260   3.404   1.727   4.841
15340WAT      O46261   5.985   0.319   9.649
15340WAT     H146262   6.077   0.286   9.627
15340WAT     H246263   5.925   0.305   9.570
15341WAT      O46264   0.085   6.858   0.652
15341WAT     H146265   0.184   6.872   0.654
15341WAT     H246266   0.041   6.922   0.715
15342WAT      O46267   7.290   6.143   2.478
15342WAT     H146268   7.306   6.224   2.423
15342WAT     H246269   7.355   6.071   2.454
15343WAT      O46270   9.059   5.078   3.080
15343WAT     H146271   9.069   5.115   3.172
15343WAT     H246272   9.134   5.109   3.022
15344WAT      O46273   1.022   1.412   1.302
15344WAT     H146274   1.103   1.460   1.268
15344WAT     H246275   1.038   1.314   1.302
15345WAT      O46276   2.443   3.922   1.050
15345WAT     H146277   2.375   3.918   0.977
15345WAT     H246278   2.399   3.908   1.139
15346WAT      O46279   8.973   0.643   8.907
15346WAT     H146280   8.975   0.560   8.852
15346WAT     H246281   8.951   0.620   9.002
15347WAT      O46282   8.704   2.976   5.703
15347WAT     H146283   8.776   3.045   5.713
15347WAT     H246284   8.671   2.975   5.609
15348WAT      O46285   9.458   1.578   1.578
15348WAT     H146286   9.450   1.652   1.645
15348WAT     H246287   9.518   1.607   1.504
15349WAT      O46288   3.680   4.643   3.890
15349WAT     H146289   3.753   4.650   3.821
15349WAT     H246290   3.603   4.591   3.852
15350WAT      O46291   2.633   2.369   3.468
15350WAT     H146292   2.534   2.368   3.475
15350WAT     H246293   2.664   2.460   3.439
15351WAT      O46294   6.846   9.590   2.426
15351WAT     H146295   6.758   9.565   2.385
15351WAT     H246296   6.899   9.507   2.444
15352WAT      O46297   1.362   2.947   5.779
15352WAT     H146298   1.315   2.956   5.867
15352WAT     H246299   1.435   3.015   5.773
15353WAT      O46300   8.962   1.805   8.502
15353WAT     H146301   8.929   1.711   8.515
15353WAT     H246302   8.984   1.820   8.406
15354WAT      O46303   0.129   2.330   4.167
15354WAT     H146304   0.165   2.291   4.252
15354WAT     H246305   0.204   2.356   4.107
15355WAT      O46306   8.256   7.613   1.870
15355WAT     H146307   8.187   7.547   1.842
15355WAT     H246308   8.346   7.580   1.843
15356WAT      O46309   9.822   4.542   7.977
15356WAT     H146310   9.838   4.638   7.999
15356WAT     H246311   9.850   4.525   7.882
15357WAT      O46312   2.681   2.739   9.252
15357WAT     H146313   2.633   2.760   9.337
15357WAT     H246314   2.619   2.689   9.191
15358WAT      O46315   6.505   7.204   4.427
15358WAT     H146316   6.525   7.297   4.397
15358WAT     H246317   6.474   7.150   4.348
15359WAT      O46318   6.086   1.972   7.692
15359WAT     H146319   6.123   1.889   7.734
15359WAT     H246320   5.988   1.961   7.677
15360WAT      O46321   5.387   1.285   2.136
15360WAT     H146322   5.298   1.289   2.183
15360WAT     H246323   5.419   1.377   2.116
15361WAT      O46324   5.545   7.480   4.714
15361WAT     H146325   5.585   7.469   4.623
15361WAT     H246326   5.561   7.397   4.768
15362WAT      O46327   7.440   3.805   7.196
15362WAT     H146328   7.508   3.774   7.130
15362WAT     H246329   7.351   3.816   7.151
15363WAT      O46330   2.101   7.050   9.486
15363WAT     H146331   2.103   6.950   9.496
15363WAT     H246332   2.175   7.078   9.426
15364WAT      O46333   0.382   7.870   9.119
15364WAT     H146334   0.290   7.907   9.131
15364WAT     H246335   0.439   7.937   9.071
15365WAT      O46336   8.858   9.116   5.640
15365WAT     H146337   8.922   9.104   5.564
15365WAT     H246338   8.765   9.123   5.605
15366WAT      O46339   7.956   4.492   1.051
15366WAT     H146340   7.951   4.416   1.116
15366WAT     H246341   7.864   4.527   1.034
15367WAT      O46342   5.968   7.248   7.555
15367WAT     H146343   5.907   7.251   7.633
15367WAT     H246344   6.048   7.192   7.577
15368WAT      O46345   1.123   7.629   1.470
15368WAT     H146346   1.218   7.606   1.448
15368WAT     H246347   1.070   7.544   1.480
15369WAT      O46348   5.776   0.619   2.514
15369WAT     H146349   5.837   0.545   2.485
15369WAT     H246350   5.811   0.707   2.482
15370WAT      O46351   5.455   4.084   2.241
15370WAT     H146352   5.380   4.144   2.271
15370WAT     H246353   5.497   4.121   2.159
15371WAT      O46354   9.640   2.085   1.325
15371WAT     H146355   9.642   2.123   1.233
15371WAT     H246356   9.623   2.158   1.391
15372WAT      O46357   2.080   8.605   0.160
15372WAT     H146358   2.147   8.562   0.099
15372WAT     H246359   2.106   8.590   0.255
15373WAT      O46360   1.348   1.537   7.849
15373WAT     H146361   1.377   1.461   7.907
15373WAT     H246362   1.269   1.510   7.795
15374WAT      O46363   0.609   4.424   2.581
15374WAT     H146364   0.657   4.390   2.662
15374WAT     H246365   0.636   4.519   2.565
15375WAT      O46366   6.126   1.700   7.788
15375WAT     H146367   6.085   1.668   7.702
15375WAT     H246368   6.202   1.641   7.813
15376WAT      O46369   8.509   7.928   0.921
15376WAT     H146370   8.604   7.911   0.894
15376WAT     H246371   8.448   7.908   0.844
15377WAT      O46372   2.573   5.243   2.563
15377WAT     H146373   2.580   5.334   2.524
15377WAT     H246374   2.584   5.248   2.662
15378WAT      O46375   1.357   8.553   8.700
15378WAT     H146376   1.295   8.629   8.680
15378WAT     H246377   1.418   8.579   8.775
15379WAT      O46378   0.112   1.545   8.050
15379WAT     H146379   0.115   1.645   8.057
15379WAT     H246380   0.181   1.505   8.109
15380WAT      O46381   4.360   5.520   8.813
15380WAT     H146382   4.314   5.471   8.887
15380WAT     H246383   4.311   5.605   8.794
15381WAT      O46384   1.080   2.220   9.207
15381WAT     H146385   1.145   2.292   9.232
15381WAT     H246386   1.036   2.185   9.290
15382WAT      O46387   9.238   5.445   7.140
15382WAT     H146388   9.219   5.509   7.065
15382WAT     H246389   9.239   5.495   7.227
15383WAT      O46390   4.320   6.736   3.722
15383WAT     H146391   4.366   6.684   3.794
15383WAT     H246392   4.387   6.789   3.671
15384WAT      O46393   9.506   3.167   8.389
15384WAT     H146394   9.569   3.118   8.328
15384WAT     H246395   9.475   3.106   8.461
15385WAT      O46396   6.203   5.014   0.700
15385WAT     H146397   6.204   4.962   0.785
15385WAT     H246398   6.110   5.042   0.678
15386WAT      O46399   7.164   8.809   8.102
15386WAT     H146400   7.234   8.846   8.041
15386WAT     H246401   7.102   8.751   8.049
15387WAT      O46402   8.749   2.670   6.319
15387WAT     H146403   8.685   2.670   6.396
15387WAT     H246404   8.827   2.729   6.340
15388WAT      O46405   4.387   0.569   5.337
15388WAT     H146406   4.382   0.667   5.315
15388WAT     H246407   4.456   0.555   5.408
15389WAT      O46408   9.494   9.115   5.433
15389WAT     H146409   9.450   9.078   5.351
15389WAT     H246410   9.462   9.065   5.513
15390WAT      O46411   4.350   9.400   9.297
15390WAT     H146412   4.348   9.317   9.353
15390WAT     H246413   4.333   9.480   9.355
15391WAT      O46414   4.891   0.365   4.886
15391WAT     H146415   4.930   0.323   4.804
15391WAT     H246416   4.964   0.409   4.938
15392WAT      O46417   2.966   5.964   4.195
15392WAT     H146418   2.909   5.978   4.114
15392WAT     H246419   3.010   5.874   4.190
15393WAT      O46420   0.376   8.523   2.136
15393WAT     H146421   0.284   8.504   2.168
15393WAT     H246422   0.373   8.555   2.041
15394WAT      O46423   8.241   6.331   7.883
15394WAT     H146424   8.249   6.265   7.809
15394WAT     H246425   8.184   6.293   7.956
15395WAT      O46426   0.294   2.637   5.290
15395WAT     H146427   0.342   2.612   5.374
15395WAT     H246428   0.326   2.579   5.215
15396WAT      O46429   2.263   6.498   6.333
15396WAT     H146430   2.324   6.493   6.412
15396WAT     H246431   2.303   6.559   6.265
15397WAT      O46432   8.205   4.876   8.301
15397WAT     H146433   8.186   4.917   8.391
15397WAT     H246434   8.301   4.892   8.277
15398WAT      O46435   7.478   5.812   4.624
15398WAT     H146436   7.400   5.812   4.562
15398WAT     H246437   7.538   5.890   4.603
15399WAT      O46438   8.013   0.041   5.263
15399WAT     H146439   8.011   0.139   5.284
15399WAT     H246440   8.090   0.021   5.202
15400WAT      O46441   7.017   1.596   0.175
15400WAT     H146442   6.999   1.686   0.215
15400WAT     H246443   7.000   1.600   0.076
15401WAT      O46444   5.311   5.784   8.627
15401WAT     H146445   5.315   5.700   8.573
15401WAT     H246446   5.332   5.862   8.568
15402WAT      O46447   8.149   0.105   2.928
15402WAT     H146448   8.186   0.045   2.999
15402WAT     H246449   8.049   0.094   2.924
15403WAT      O46450   9.607   6.951   8.355
15403WAT     H146451   9.702   6.981   8.340
15403WAT     H246452   9.608   6.857   8.392
15404WAT      O46453   5.800   3.485   6.136
15404WAT     H146454   5.798   3.455   6.231
15404WAT     H246455   5.889   3.463   6.096
15405WAT      O46456   7.455   4.309   1.288
15405WAT     H146457   7.480   4.372   1.362
15405WAT     H246458   7.403   4.233   1.325
15406WAT      O46459   0.098   3.714   2.236
15406WAT     H146460   0.040   3.795   2.238
15406WAT     H246461   0.184   3.735   2.190
15407WAT      O46462   8.937   1.016   7.174
15407WAT     H146463   9.023   1.052   7.135
15407WAT     H246464   8.936   1.034   7.272
15408WAT      O46465   5.113   7.951   3.642
15408WAT     H146466   5.039   7.899   3.599
15408WAT     H246467   5.122   7.924   3.738
15409WAT      O46468   6.524   2.627   2.030
15409WAT     H146469   6.431   2.654   2.009
15409WAT     H246470   6.523   2.550   2.095
15410WAT      O46471   4.481   5.948   8.742
15410WAT     H146472   4.516   5.954   8.648
15410WAT     H246473   4.443   6.037   8.769
15411WAT      O46474   8.990   7.891   5.560
15411WAT     H146475   9.081   7.910   5.523
15411WAT     H246476   8.992   7.804   5.609
15412WAT      O46477   1.187   9.325   7.055
15412WAT     H146478   1.129   9.405   7.068
15412WAT     H246479   1.281   9.347   7.082
15413WAT      O46480   7.892   3.701   2.046
15413WAT     H146481   7.936   3.626   1.995
15413WAT     H246482   7.815   3.665   2.098
15414WAT      O46483   8.263   0.668   3.323
15414WAT     H146484   8.202   0.689   3.400
15414WAT     H246485   8.215   0.685   3.237
15415WAT      O46486   3.065   4.701   2.689
15415WAT     H146487   3.142   4.718   2.749
15415WAT     H246488   3.071   4.608   2.652
15416WAT      O46489   4.518   2.217   7.604
15416WAT     H146490   4.613   2.195   7.581
15416WAT     H246491   4.458   2.147   7.565
15417WAT      O46492   0.363   8.683   1.605
15417WAT     H146493   0.303   8.761   1.621
15417WAT     H246494   0.454   8.714   1.581
15418WAT      O46495   0.208   6.836   6.303
15418WAT     H146496   0.206   6.909   6.235
15418WAT     H246497   0.298   6.793   6.303
15419WAT      O46498   2.052   3.488   9.264
15419WAT     H146499   2.151   3.481   9.252
15419WAT     H246500   2.028   3.583   9.285
15420WAT      O46501   8.923   2.953   0.768
15420WAT     H146502   9.009   2.942   0.719
15420WAT     H246503   8.872   2.867   0.766
15421WAT      O46504   6.672   1.876   5.134
15421WAT     H146505   6.712   1.918   5.215
15421WAT     H246506   6.596   1.816   5.161
15422WAT      O46507   2.915   3.001   6.449
15422WAT     H146508   2.934   2.999   6.547
15422WAT     H246509   2.993   2.964   6.399
15423WAT      O46510   6.859   0.567   6.570
15423WAT     H146511   6.946   0.590   6.615
15423WAT     H246512   6.788   0.629   6.602
15424WAT      O46513   0.957   2.945   3.216
15424WAT     H146514   0.997   3.033   3.243
15424WAT     H246515   0.872   2.930   3.268
15425WAT      O46516   9.003   3.188   9.491
15425WAT     H146517   9.088   3.166   9.444
15425WAT     H246518   8.991   3.287   9.497
15426WAT      O46519   2.371   1.768   7.093
15426WAT     H146520   2.456   1.778   7.041
15426WAT     H246521   2.391   1.762   7.190
15427WAT      O46522   4.570   4.011   2.366
15427WAT     H146523   4.608   4.102   2.345
15427WAT     H246524   4.619   3.972   2.444
15428WAT      O46525   5.421   8.620   2.756
15428WAT     H146526   5.419   8.664   2.845
15428WAT     H246527   5.501   8.560   2.750
15429WAT      O46528   5.714   1.069   7.991
15429WAT     H146529   5.795   1.013   7.972
15429WAT     H246530   5.694   1.127   7.913
15430WAT      O46531   1.130   2.689   2.649
15430WAT     H146532   1.109   2.705   2.746
15430WAT     H246533   1.088   2.761   2.593
15431WAT      O46534   2.459   5.793   7.626
15431WAT     H146535   2.431   5.889   7.630
15431WAT     H246536   2.401   5.739   7.687
15432WAT      O46537   1.974   0.343   9.793
15432WAT     H146538   1.937   0.320   9.884
15432WAT     H246539   2.067   0.379   9.803
15433WAT      O46540   2.114   6.149   4.418
15433WAT     H146541   2.094   6.244   4.395
15433WAT     H246542   2.131   6.097   4.334
15434WAT      O46543   4.861   2.900   2.416
15434WAT     H146544   4.847   2.844   2.335
15434WAT     H246545   4.784   2.887   2.479
15435WAT      O46546   3.723   2.790   9.068
15435WAT     H146547   3.811   2.780   9.022
15435WAT     H246548   3.652   2.744   9.016
15436WAT      O46549   4.407   4.529   0.566
15436WAT     H146550   4.339   4.498   0.632
15436WAT     H246551   4.394   4.482   0.479
15437WAT      O46552   0.638   5.778   0.211
15437WAT     H146553   0.546   5.741   0.206
15437WAT     H246554   0.672   5.772   0.305
15438WAT      O46555   6.327   4.820   9.229
15438WAT     H146556   6.255   4.833   9.296
15438WAT     H246557   6.287   4.786   9.143
15439WAT      O46558   7.150   8.399   2.224
15439WAT     H146559   7.191   8.309   2.207
15439WAT     H246560   7.055   8.398   2.195
15440WAT      O46561   7.956   1.258   6.405
15440WAT     H146562   7.912   1.324   6.345
15440WAT     H246563   8.035   1.218   6.359
15441WAT      O46564   6.948   1.258   1.499
15441WAT     H146565   7.031   1.213   1.532
15441WAT     H246566   6.965   1.356   1.487
15442WAT      O46567   8.566   8.137   6.362
15442WAT     H146568   8.467   8.121   6.373
15442WAT     H246569   8.613   8.110   6.445
15443WAT      O46570   9.437   1.867   2.229
15443WAT     H146571   9.515   1.916   2.266
15443WAT     H246572   9.377   1.930   2.180
15444WAT      O46573   2.661   6.005   1.675
15444WAT     H146574   2.701   5.997   1.766
15444WAT     H246575   2.731   6.038   1.611
15445WAT      O46576   1.848   1.663   3.936
15445WAT     H146577   1.947   1.669   3.948
15445WAT     H246578   1.814   1.581   3.983
15446WAT      O46579   4.624   5.794   7.201
15446WAT     H146580   4.621   5.831   7.294
15446WAT     H246581   4.656   5.865   7.138
15447WAT      O46582   1.164   5.745   5.400
15447WAT     H146583   1.213   5.828   5.425
15447WAT     H246584   1.220   5.691   5.336
15448WAT      O46585   1.590   9.365   1.900
15448WAT     H146586   1.650   9.427   1.850
15448WAT     H246587   1.495   9.392   1.885
15449WAT      O46588   5.435   6.343   3.246
15449WAT     H146589   5.460   6.332   3.343
15449WAT     H246590   5.338   6.324   3.234
15450WAT      O46591   2.192   3.355   3.963
15450WAT     H146592   2.166   3.357   4.059
15450WAT     H246593   2.226   3.445   3.935
15451WAT      O46594   1.178   7.189   6.857
15451WAT     H146595   1.186   7.170   6.955
15451WAT     H246596   1.267   7.213   6.820
15452WAT      O46597   8.589   4.295   5.591
15452WAT     H146598   8.666   4.266   5.534
15452WAT     H246599   8.539   4.368   5.545
15453WAT      O46600   0.987   4.809   4.822
15453WAT     H146601   0.962   4.718   4.855
15453WAT     H246602   0.984   4.874   4.898
15454WAT      O46603   4.554   2.808   8.424
15454WAT     H146604   4.508   2.755   8.495
15454WAT     H246605   4.641   2.764   8.401
15455WAT      O46606   9.370   3.188   1.473
15455WAT     H146607   9.373   3.092   1.446
15455WAT     H246608   9.450   3.236   1.436
15456WAT      O46609   7.658   0.823   5.493
15456WAT     H146610   7.746   0.869   5.485
15456WAT     H246611   7.662   0.755   5.567
15457WAT      O46612   7.848   6.102   1.498
15457WAT     H146613   7.899   6.064   1.576
15457WAT     H246614   7.838   6.032   1.428
15458WAT      O46615   2.960   0.814   0.063
15458WAT     H146616   3.045   0.788   0.108
15458WAT     H246617   2.901   0.862   0.128
15459WAT      O46618   2.024   4.013   0.343
15459WAT     H146619   1.929   3.994   0.366
15459WAT     H246620   2.038   4.003   0.245
15460WAT      O46621   6.889   6.362   1.209
15460WAT     H146622   6.831   6.301   1.263
15460WAT     H246623   6.954   6.408   1.270
15461WAT      O46624   3.290   1.056   6.299
15461WAT     H146625   3.282   1.145   6.344
15461WAT     H246626   3.243   1.058   6.211
15462WAT      O46627   8.684   0.657   0.634
15462WAT     H146628   8.764   0.599   0.654
15462WAT     H246629   8.713   0.752   0.625
15463WAT      O46630   3.285   5.073   5.454
15463WAT     H146631   3.324   5.068   5.546
15463WAT     H246632   3.185   5.074   5.460
15464WAT      O46633   4.584   1.104   0.358
15464WAT     H146634   4.573   1.018   0.407
15464WAT     H246635   4.581   1.180   0.423
15465WAT      O46636   4.336   5.131   8.565
15465WAT     H146637   4.419   5.186   8.564
15465WAT     H246638   4.330   5.077   8.481
15466WAT      O46639   8.106   6.087   4.515
15466WAT     H146640   8.180   6.064   4.579
15466WAT     H246641   8.144   6.136   4.437
15467WAT      O46642   2.786   8.741   7.520
15467WAT     H146643   2.756   8.771   7.611
15467WAT     H246644   2.845   8.660   7.529
15468WAT      O46645   8.446   7.122   9.051
15468WAT     H146646   8.507   7.057   9.006
15468WAT     H246647   8.500   7.180   9.112
15469WAT      O46648   0.483   7.231   4.475
15469WAT     H146649   0.458   7.283   4.557
15469WAT     H246650   0.406   7.228   4.412
15470WAT      O46651   0.451   3.971   9.135
15470WAT     H146652   0.509   4.049   9.159
15470WAT     H246653   0.500   3.909   9.074
15471WAT      O46654   7.153   1.347   8.337
15471WAT     H146655   7.215   1.416   8.374
15471WAT     H246656   7.163   1.343   8.237
15472WAT      O46657   7.740   8.774   2.502
15472WAT     H146658   7.789   8.700   2.456
15472WAT     H246659   7.805   8.839   2.540
15473WAT      O46660   1.002   4.072   6.337
15473WAT     H146661   0.982   4.021   6.421
15473WAT     H246662   1.086   4.125   6.349
15474WAT      O46663   5.024   0.091   8.872
15474WAT     H146664   5.104   0.043   8.907
15474WAT     H246665   5.052   0.158   8.804
15475WAT      O46666   3.784   4.227   0.133
15475WAT     H146667   3.723   4.150   0.114
15475WAT     H246668   3.755   4.307   0.080
15476WAT      O46669   8.844   5.906   0.098
15476WAT     H146670   8.800   5.975   0.041
15476WAT     H246671   8.786   5.886   0.177
15477WAT      O46672   7.940   8.412   2.659
15477WAT     H146673   7.975   8.505   2.661
15477WAT     H246674   7.906   8.390   2.567
15478WAT      O46675   4.689   4.275   8.049
15478WAT     H146676   4.763   4.277   8.116
15478WAT     H246677   4.693   4.189   7.998
15479WAT      O46678   6.411   0.933   7.387
15479WAT     H146679   6.503   0.903   7.411
15479WAT     H246680   6.398   1.028   7.417
15480WAT      O46681   7.284   4.161   4.594
15480WAT     H146682   7.220   4.144   4.519
15480WAT     H246683   7.327   4.074   4.621
15481WAT      O46684   3.958   9.104   0.655
15481WAT     H146685   4.016   9.047   0.597
15481WAT     H246686   4.015   9.170   0.703
15482WAT      O46687   2.409   0.153   7.420
15482WAT     H146688   2.437   0.242   7.456
15482WAT     H246689   2.446   0.080   7.478
15483WAT      O46690   5.104   8.312   3.007
15483WAT     H146691   5.116   8.260   3.092
15483WAT     H246692   5.014   8.356   3.007
15484WAT      O46693   3.072   2.870   6.849
15484WAT     H146694   3.159   2.879   6.898
15484WAT     H246695   3.041   2.960   6.820
15485WAT      O46696   1.488   3.369   8.527
15485WAT     H146697   1.415   3.344   8.464
15485WAT     H246698   1.448   3.403   8.612
15486WAT      O46699   1.646   2.160   0.544
15486WAT     H146700   1.593   2.244   0.553
15486WAT     H246701   1.611   2.092   0.608
15487WAT      O46702   4.303   1.026   7.332
15487WAT     H146703   4.361   0.964   7.385
15487WAT     H246704   4.232   1.065   7.391
15488WAT      O46705   3.876   0.927   8.258
15488WAT     H146706   3.971   0.947   8.281
15488WAT     H246707   3.816   0.995   8.301
15489WAT      O46708   1.661   4.058   4.872
15489WAT     H146709   1.629   4.144   4.911
15489WAT     H246710   1.719   4.011   4.939
15490WAT      O46711   0.092   7.330   2.780
15490WAT     H146712   0.053   7.395   2.714
15490WAT     H246713   0.140   7.380   2.852
15491WAT      O46714   5.485   2.331   3.632
15491WAT     H146715   5.518   2.343   3.539
15491WAT     H246716   5.393   2.370   3.640
15492WAT      O46717   9.637   8.045   5.824
15492WAT     H146718   9.596   8.100   5.751
15492WAT     H246719   9.597   7.953   5.821
15493WAT      O46720   4.296   0.436   9.131
15493WAT     H146721   4.363   0.394   9.070
15493WAT     H246722   4.336   0.447   9.222
15494WAT      O46723   1.256   1.378   2.768
15494WAT     H146724   1.216   1.325   2.843
15494WAT     H246725   1.352   1.396   2.787
15495WAT      O46726   4.234   8.509   6.391
15495WAT     H146727   4.271   8.440   6.328
15495WAT     H246728   4.255   8.600   6.357
15496WAT      O46729   8.994   7.988   1.402
15496WAT     H146730   8.916   8.044   1.431
15496WAT     H246731   9.079   8.037   1.421
15497WAT      O46732   0.219   3.112   3.353
15497WAT     H146733   0.277   3.166   3.293
15497WAT     H246734   0.274   3.043   3.400
15498WAT      O46735   9.466   8.175   5.626
15498WAT     H146736   9.368   8.185   5.644
15498WAT     H246737   9.481   8.174   5.527
15499WAT      O46738   1.631   4.240   4.486
15499WAT     H146739   1.602   4.311   4.551
15499WAT     H246740   1.555   4.177   4.470
15500WAT      O46741   1.582   7.489   2.271
15500WAT     H146742   1.491   7.453   2.293
15500WAT     H246743   1.603   7.564   2.334
15501WAT      O46744   7.869   6.265   4.477
15501WAT     H146745   7.943   6.207   4.512
15501WAT     H246746   7.807   6.287   4.552
15502WAT      O46747   3.254   3.484   9.086
15502WAT     H146748   3.159   3.507   9.108
15502WAT     H246749   3.306   3.475   9.171
15503WAT      O46750   2.330   2.121   4.557
15503WAT     H146751   2.267   2.052   4.520
15503WAT     H246752   2.351   2.099   4.653
15504WAT      O46753   4.308   9.594   7.361
15504WAT     H146754   4.245   9.606   7.438
15504WAT     H246755   4.384   9.536   7.389
15505WAT      O46756   5.662   9.225   0.184
15505WAT     H146757   5.736   9.280   0.144
15505WAT     H246758   5.690   9.129   0.184
15506WAT      O46759   4.308   1.518   6.097
15506WAT     H146760   4.352   1.444   6.046
15506WAT     H246761   4.217   1.535   6.057
15507WAT      O46762   9.047   5.041   4.405
15507WAT     H146763   9.025   4.944   4.393
15507WAT     H246764   8.994   5.095   4.340
15508WAT      O46765   8.023   3.531   0.008
15508WAT     H146766   8.062   3.459   0.066
15508WAT     H246767   7.923   3.527   0.013
15509WAT      O46768   3.180   1.910   5.927
15509WAT     H146769   3.191   1.914   5.828
15509WAT     H246770   3.098   1.857   5.950
15510WAT      O46771   2.147   7.595   2.933
15510WAT     H146772   2.106   7.506   2.913
15510WAT     H246773   2.119   7.624   3.025
15511WAT      O46774   7.760   9.669   1.001
15511WAT     H146775   7.674   9.711   0.973
15511WAT     H246776   7.749   9.629   1.092
15512WAT      O46777   1.398   0.571   4.777
15512WAT     H146778   1.416   0.473   4.766
15512WAT     H246779   1.305   0.585   4.808
15513WAT      O46780   6.979   7.784   2.105
15513WAT     H146781   6.928   7.833   2.176
15513WAT     H246782   6.921   7.713   2.066
15514WAT      O46783   2.323   5.393   5.501
15514WAT     H146784   2.310   5.488   5.472
15514WAT     H246785   2.308   5.386   5.600
15515WAT      O46786   4.070   3.521   8.545
15515WAT     H146787   3.993   3.536   8.483
15515WAT     H246788   4.058   3.577   8.627
15516WAT      O46789   2.456   8.682   2.498
15516WAT     H146790   2.394   8.682   2.578
15516WAT     H246791   2.412   8.632   2.423
15517WAT      O46792   6.199   6.372   4.767
15517WAT     H146793   6.137   6.450   4.779
15517WAT     H246794   6.158   6.307   4.703
15518WAT      O46795   3.449   4.089   1.045
15518WAT     H146796   3.427   4.174   0.999
15518WAT     H246797   3.458   4.105   1.143
15519WAT      O46798   9.685   7.800   6.110
15519WAT     H146799   9.647   7.719   6.155
15519WAT     H246800   9.696   7.780   6.012
15520WAT      O46801   9.768   7.382   2.147
15520WAT     H146802   9.725   7.440   2.078
15520WAT     H246803   9.821   7.439   2.210
15521WAT      O46804   8.844   7.540   7.383
15521WAT     H146805   8.762   7.597   7.391
15521WAT     H246806   8.843   7.470   7.454
15522WAT      O46807   7.184   5.327   3.984
15522WAT     H146808   7.197   5.407   3.927
15522WAT     H246809   7.164   5.247   3.927
15523WAT      O46810   6.312   8.183   6.937
15523WAT     H146811   6.253   8.233   6.875
15523WAT     H246812   6.382   8.134   6.884
15524WAT      O46813   3.271   6.714   3.567
15524WAT     H146814   3.181   6.674   3.554
15524WAT     H246815   3.294   6.771   3.489
15525WAT      O46816   9.282   7.969   2.716
15525WAT     H146817   9.327   7.879   2.716
15525WAT     H246818   9.286   8.008   2.624
15526WAT      O46819   5.617   2.304   7.439
15526WAT     H146820   5.548   2.245   7.482
15526WAT     H246821   5.604   2.305   7.340
15527WAT      O46822   7.346   3.630   6.549
15527WAT     H146823   7.373   3.675   6.464
15527WAT     H246824   7.410   3.656   6.622
15528WAT      O46825   9.731   5.859   5.418
15528WAT     H146826   9.744   5.773   5.468
15528WAT     H246827   9.634   5.881   5.414
15529WAT      O46828   4.056   9.252   1.153
15529WAT     H146829   4.083   9.196   1.232
15529WAT     H246830   4.053   9.348   1.181
15530WAT      O46831   2.354   5.164   4.115
15530WAT     H146832   2.303   5.126   4.037
15530WAT     H246833   2.323   5.257   4.132
15531WAT      O46834   8.597   3.047   8.345
15531WAT     H146835   8.518   3.086   8.391
15531WAT     H246836   8.596   2.947   8.355
15532WAT      O46837   5.668   2.384   4.814
15532WAT     H146838   5.590   2.390   4.876
15532WAT     H246839   5.753   2.385   4.868
15533WAT      O46840   2.751   4.107   7.091
15533WAT     H146841   2.704   4.112   7.003
15533WAT     H246842   2.686   4.080   7.162
15534WAT      O46843   9.551   2.704   3.437
15534WAT     H146844   9.576   2.668   3.347
15534WAT     H246845   9.592   2.647   3.508
15535WAT      O46846   6.556   4.263   5.122
15535WAT     H146847   6.651   4.235   5.137
15535WAT     H246848   6.521   4.220   5.038
15536WAT      O46849   6.408   7.577   6.516
15536WAT     H146850   6.421   7.591   6.614
15536WAT     H246851   6.411   7.665   6.469
15537WAT      O46852   5.853   4.275   8.166
15537WAT     H146853   5.807   4.201   8.117
15537WAT     H246854   5.796   4.304   8.243
15538WAT      O46855   2.729   4.218   7.766
15538WAT     H146856   2.707   4.125   7.735
15538WAT     H246857   2.801   4.256   7.708
15539WAT      O46858   8.392   3.207   6.865
15539WAT     H146859   8.456   3.204   6.941
15539WAT     H246860   8.437   3.169   6.783
15540WAT      O46861   1.025   6.732   9.266
15540WAT     H146862   1.070   6.670   9.202
15540WAT     H246863   0.977   6.679   9.335
15541WAT      O46864   5.016   5.270   9.606
15541WAT     H146865   4.985   5.232   9.692
15541WAT     H246866   4.953   5.244   9.533
15542WAT      O46867   5.062   8.513   3.458
15542WAT     H146868   5.098   8.606   3.468
15542WAT     H246869   5.131   8.447   3.488
15543WAT      O46870   9.382   7.418   5.349
15543WAT     H146871   9.419   7.378   5.434
15543WAT     H246872   9.335   7.503   5.371
15544WAT      O46873   0.630   2.632   3.489
15544WAT     H146874   0.719   2.588   3.497
15544WAT     H246875   0.566   2.591   3.554
15545WAT      O46876   7.331   7.961   8.982
15545WAT     H146877   7.276   7.881   9.003
15545WAT     H246878   7.423   7.933   8.956
15546WAT      O46879   8.283   6.077   1.497
15546WAT     H146880   8.313   6.055   1.590
15546WAT     H246881   8.264   6.175   1.490
15547WAT      O46882   2.019   8.632   0.634
15547WAT     H146883   1.938   8.620   0.578
15547WAT     H246884   2.050   8.543   0.669
15548WAT      O46885   9.252   7.241   0.980
15548WAT     H146886   9.189   7.314   1.005
15548WAT     H246887   9.205   7.152   0.987
15549WAT      O46888   5.284   6.059   5.948
15549WAT     H146889   5.377   6.083   5.975
15549WAT     H246890   5.224   6.138   5.961
15550WAT      O46891   8.929   3.026   7.844
15550WAT     H146892   9.021   3.063   7.832
15550WAT     H246893   8.886   3.014   7.754
15551WAT      O46894   3.273   6.175   7.139
15551WAT     H146895   3.185   6.221   7.151
15551WAT     H246896   3.347   6.242   7.145
15552WAT      O46897   4.771   5.698   9.659
15552WAT     H146898   4.776   5.621   9.722
15552WAT     H246899   4.699   5.681   9.591
15553WAT      O46900   3.828   5.431   0.551
15553WAT     H146901   3.816   5.333   0.541
15553WAT     H246902   3.822   5.455   0.648
15554WAT      O46903   3.941   9.367   1.674
15554WAT     H146904   3.968   9.282   1.629
15554WAT     H246905   3.861   9.351   1.731
15555WAT      O46906   6.951   7.155   7.730
15555WAT     H146907   6.949   7.164   7.630
15555WAT     H246908   6.881   7.090   7.759
15556WAT      O46909   9.677   5.545   9.421
15556WAT     H146910   9.619   5.549   9.502
15556WAT     H246911   9.762   5.595   9.438
15557WAT      O46912   1.982   7.799   2.414
15557WAT     H146913   2.047   7.801   2.338
15557WAT     H246914   1.914   7.872   2.401
15558WAT      O46915   3.599   8.349   3.561
15558WAT     H146916   3.545   8.351   3.645
15558WAT     H246917   3.621   8.442   3.533
15559WAT      O46918   3.633   4.138   8.280
15559WAT     H146919   3.648   4.144   8.181
15559WAT     H246920   3.560   4.201   8.306
15560WAT      O46921   6.828   4.027   2.640
15560WAT     H146922   6.900   4.058   2.703
15560WAT     H246923   6.862   3.951   2.585
15561WAT      O46924   5.589   6.497   5.716
15561WAT     H146925   5.615   6.554   5.637
15561WAT     H246926   5.600   6.401   5.692
15562WAT      O46927   9.184   1.374   8.895
15562WAT     H146928   9.181   1.345   8.991
15562WAT     H246929   9.120   1.449   8.880
15563WAT      O46930   7.774   7.002   8.882
15563WAT     H146931   7.739   6.990   8.975
15563WAT     H246932   7.874   7.005   8.884
15564WAT      O46933   6.557   1.010   0.487
15564WAT     H146934   6.608   1.061   0.417
15564WAT     H246935   6.587   1.039   0.578
15565WAT      O46936   3.714   9.798   2.169
15565WAT     H146937   3.625   9.828   2.134
15565WAT     H246938   3.787   9.851   2.127
15566WAT      O46939   8.820   6.987   2.057
15566WAT     H146940   8.884   6.927   2.009
15566WAT     H246941   8.728   6.976   2.018
15567WAT      O46942   5.278   7.931   0.608
15567WAT     H146943   5.189   7.890   0.587
15567WAT     H246944   5.267   8.030   0.617
15568WAT      O46945   0.750   4.180   5.637
15568WAT     H146946   0.702   4.263   5.608
15568WAT     H246947   0.735   4.166   5.735
15569WAT      O46948   1.581   4.680   8.479
15569WAT     H146949   1.610   4.643   8.390
15569WAT     H246950   1.616   4.772   8.490
15570WAT      O46951   5.812   0.247   8.410
15570WAT     H146952   5.827   0.152   8.383
15570WAT     H246953   5.728   0.281   8.366
15571WAT      O46954   2.149   1.204   5.252
15571WAT     H146955   2.189   1.292   5.229
15571WAT     H246956   2.118   1.158   5.168
15572WAT      O46957   6.919   7.151   6.992
15572WAT     H146958   6.889   7.056   6.988
15572WAT     H246959   6.844   7.211   6.966
15573WAT      O46960   4.840   8.386   0.210
15573WAT     H146961   4.930   8.409   0.248
15573WAT     H246962   4.811   8.297   0.245
15574WAT      O46963   7.705   1.578   5.337
15574WAT     H146964   7.668   1.659   5.292
15574WAT     H246965   7.665   1.569   5.429
15575WAT      O46966   2.736   9.088   4.150
15575WAT     H146967   2.819   9.144   4.156
15575WAT     H246968   2.657   9.148   4.142
15576WAT      O46969   1.273   5.216   2.925
15576WAT     H146970   1.282   5.255   3.016
15576WAT     H246971   1.188   5.165   2.918
15577WAT      O46972   5.076   8.038   9.410
15577WAT     H146973   5.088   8.006   9.504
15577WAT     H246974   5.074   8.138   9.409
15578WAT      O46975   8.635   7.648   7.656
15578WAT     H146976   8.701   7.576   7.633
15578WAT     H246977   8.627   7.656   7.755
15579WAT      O46978   2.527   4.504   3.790
15579WAT     H146979   2.481   4.568   3.852
15579WAT     H246980   2.508   4.410   3.818
15580WAT      O46981   9.358   9.773   4.394
15580WAT     H146982   9.347   9.856   4.449
15580WAT     H246983   9.296   9.775   4.316
15581WAT      O46984   6.691   4.689   6.220
15581WAT     H146985   6.717   4.771   6.271
15581WAT     H246986   6.695   4.707   6.122
15582WAT      O46987   7.258   5.558   0.371
15582WAT     H146988   7.198   5.480   0.384
15582WAT     H246989   7.328   5.536   0.303
15583WAT      O46990   9.251   0.224   9.664
15583WAT     H146991   9.336   0.192   9.622
15583WAT     H246992   9.183   0.151   9.664
15584WAT      O46993   5.341   5.078   6.878
15584WAT     H146994   5.309   5.170   6.857
15584WAT     H246995   5.367   5.073   6.974
15585WAT      O46996   7.694   6.603   9.084
15585WAT     H146997   7.728   6.616   8.991
15585WAT     H246998   7.635   6.522   9.087
15586WAT      O46999   7.692   0.375   4.010
15586WAT     H147000   7.668   0.423   3.925
15586WAT     H247001   7.608   0.352   4.060
15587WAT      O47002   2.813   3.425   6.137
15587WAT     H147003   2.843   3.349   6.079
15587WAT     H247004   2.872   3.429   6.218
15588WAT      O47005   9.797   4.512   8.698
15588WAT     H147006   9.819   4.579   8.628
15588WAT     H247007   9.814   4.552   8.789
15589WAT      O47008   4.122   2.894   0.932
15589WAT     H147009   4.133   2.858   0.839
15589WAT     H247010   4.161   2.831   0.998
15590WAT      O47011   2.327   0.018   0.590
15590WAT     H147012   2.405   0.031   0.650
15590WAT     H247013   2.263   0.094   0.600
15591WAT      O47014   8.756   8.946   1.347
15591WAT     H147015   8.851   8.951   1.316
15591WAT     H247016   8.751   8.892   1.431
15592WAT      O47017   6.766   9.727   7.275
15592WAT     H147018   6.685   9.758   7.326
15592WAT     H247019   6.763   9.628   7.264
15593WAT      O47020   8.619   1.701   8.139
15593WAT     H147021   8.550   1.737   8.077
15593WAT     H247022   8.671   1.777   8.179
15594WAT      O47023   0.990   6.623   2.086
15594WAT     H147024   1.022   6.530   2.069
15594WAT     H247025   0.899   6.634   2.048
15595WAT      O47026   0.817   6.208   7.721
15595WAT     H147027   0.770   6.225   7.634
15595WAT     H247028   0.910   6.247   7.716
15596WAT      O47029   9.753   9.287   1.793
15596WAT     H147030   9.655   9.277   1.773
15596WAT     H247031   9.805   9.272   1.709
15597WAT      O47032   1.131   4.903   3.686
15597WAT     H147033   1.063   4.963   3.726
15597WAT     H247034   1.088   4.845   3.617
15598WAT      O47035   6.363   1.320   1.888
15598WAT     H147036   6.384   1.416   1.905
15598WAT     H247037   6.270   1.300   1.921
15599WAT      O47038   6.592   1.779   4.442
15599WAT     H147039   6.519   1.730   4.490
15599WAT     H247040   6.606   1.737   4.352
15600WAT      O47041   7.225   5.217   6.439
15600WAT     H147042   7.301   5.183   6.494
15600WAT     H247043   7.179   5.291   6.488
15601WAT      O47044   2.524   5.587   5.732
15601WAT     H147045   2.559   5.587   5.638
15601WAT     H247046   2.444   5.647   5.737
15602WAT      O47047   5.043   5.496   7.522
15602WAT     H147048   5.121   5.551   7.493
15602WAT     H247049   5.070   5.438   7.598
15603WAT      O47050   4.716   1.178   3.758
15603WAT     H147051   4.639   1.219   3.807
15603WAT     H247052   4.727   1.225   3.670
15604WAT      O47053   1.941   8.738   4.438
15604WAT     H147054   2.036   8.763   4.420
15604WAT     H247055   1.884   8.764   4.360
15605WAT      O47056   0.642   5.352   5.711
15605WAT     H147057   0.675   5.266   5.673
15605WAT     H247058   0.548   5.368   5.681
15606WAT      O47059   7.725   6.463   6.813
15606WAT     H147060   7.799   6.523   6.784
15606WAT     H247061   7.691   6.412   6.733
15607WAT      O47062   5.317   6.751   2.616
15607WAT     H147063   5.353   6.805   2.692
15607WAT     H247064   5.315   6.655   2.641
15608WAT      O47065   9.025   3.067   3.429
15608WAT     H147066   8.982   3.060   3.339
15608WAT     H247067   9.119   3.099   3.420
15609WAT      O47068   2.385   8.709   1.802
15609WAT     H147069   2.402   8.803   1.829
15609WAT     H247070   2.405   8.698   1.705
15610WAT      O47071   5.884   0.416   3.432
15610WAT     H147072   5.791   0.382   3.442
15610WAT     H247073   5.898   0.495   3.491
15611WAT      O47074   4.063   1.333   9.396
15611WAT     H147075   4.044   1.430   9.381
15611WAT     H247076   4.052   1.311   9.493
15612WAT      O47077   4.667   9.469   6.774
15612WAT     H147078   4.614   9.473   6.689
15612WAT     H247079   4.608   9.494   6.851
15613WAT      O47080   7.756   8.632   6.357
15613WAT     H147081   7.708   8.718   6.342
15613WAT     H247082   7.778   8.590   6.269
15614WAT      O47083   9.654   2.965   7.381
15614WAT     H147084   9.719   3.010   7.321
15614WAT     H247085   9.582   3.029   7.406
15615WAT      O47086   5.061   4.143   3.927
15615WAT     H147087   4.970   4.147   3.888
15615WAT     H247088   5.057   4.100   4.017
15616WAT      O47089   9.136   8.167   0.992
15616WAT     H147090   9.080   8.248   1.011
15616WAT     H247091   9.156   8.164   0.894
15617WAT      O47092   1.084   8.934   1.628
15617WAT     H147093   0.995   8.979   1.640
15617WAT     H247094   1.070   8.838   1.603
15618WAT      O47095   1.192   2.798   4.026
15618WAT     H147096   1.246   2.750   4.095
15618WAT     H247097   1.165   2.887   4.061
15619WAT      O47098   2.347   8.059   5.290
15619WAT     H147099   2.337   8.048   5.192
15619WAT     H247100   2.277   8.005   5.337
15620WAT      O47101   7.064   3.066   5.185
15620WAT     H147102   6.992   3.017   5.235
15620WAT     H247103   7.049   3.057   5.087
15621WAT      O47104   7.683   1.963   7.563
15621WAT     H147105   7.630   1.918   7.636
15621WAT     H247106   7.775   1.983   7.597
15622WAT      O47107   7.688   6.645   0.767
15622WAT     H147108   7.763   6.621   0.706
15622WAT     H247109   7.721   6.649   0.861
15623WAT      O47110   0.303   7.666   2.198
15623WAT     H147111   0.298   7.591   2.264
15623WAT     H247112   0.393   7.710   2.205
15624WAT      O47113   2.410   7.590   6.615
15624WAT     H147114   2.489   7.582   6.676
15624WAT     H247115   2.330   7.618   6.668
15625WAT      O47116   6.575   7.249   0.763
15625WAT     H147117   6.630   7.178   0.718
15625WAT     H247118   6.613   7.339   0.742
15626WAT      O47119   2.521   7.630   9.493
15626WAT     H147120   2.548   7.537   9.519
15626WAT     H247121   2.597   7.676   9.448
15627WAT      O47122   5.995   0.551   6.782
15627WAT     H147123   6.001   0.537   6.683
15627WAT     H247124   5.976   0.647   6.801
15628WAT      O47125   6.665   0.462   0.836
15628WAT     H147126   6.653   0.539   0.774
15628WAT     H247127   6.715   0.492   0.917
15629WAT      O47128   9.573   0.835   1.560
15629WAT     H147129   9.562   0.934   1.554
15629WAT     H247130   9.490   0.795   1.600
15630WAT      O47131   9.178   3.213   3.833
15630WAT     H147132   9.224   3.127   3.814
15630WAT     H247133   9.236   3.270   3.891
15631WAT      O47134   1.314   1.358   4.588
15631WAT     H147135   1.354   1.448   4.605
15631WAT     H247136   1.214   1.364   4.593
15632WAT      O47137   1.140   0.493   4.868
15632WAT     H147138   1.095   0.557   4.930
15632WAT     H247139   1.087   0.487   4.783
15633WAT      O47140   2.467   7.461   9.191
15633WAT     H147141   2.401   7.452   9.116
15633WAT     H247142   2.535   7.530   9.167
15634WAT      O47143   5.128   0.267   6.915
15634WAT     H147144   5.056   0.199   6.933
15634WAT     H247145   5.152   0.313   7.000
15635WAT      O47146   0.540   8.527   9.793
15635WAT     H147147   0.447   8.547   9.764
15635WAT     H247148   0.547   8.431   9.818
15636WAT      O47149   0.579   1.294   4.127
15636WAT     H147150   0.485   1.327   4.131
15636WAT     H247151   0.608   1.265   4.219
15637WAT      O47152   5.043   7.874   7.602
15637WAT     H147153   5.135   7.863   7.563
15637WAT     H247154   5.035   7.965   7.644
15638WAT      O47155   8.611   5.898   6.605
15638WAT     H147156   8.607   5.962   6.681
15638WAT     H247157   8.628   5.949   6.520
15639WAT      O47158   1.259   0.618   8.614
15639WAT     H147159   1.173   0.661   8.588
15639WAT     H247160   1.327   0.632   8.542
15640WAT      O47161   5.976   0.957   2.330
15640WAT     H147162   5.963   0.952   2.429
15640WAT     H247163   6.012   1.048   2.306
15641WAT      O47164   4.108   5.026   7.848
15641WAT     H147165   4.125   4.940   7.799
15641WAT     H247166   4.181   5.091   7.828
15642WAT      O47167   1.515   5.842   3.013
15642WAT     H147168   1.435   5.894   2.984
15642WAT     H247169   1.488   5.773   3.080
15643WAT      O47170   4.080   3.562   5.863
15643WAT     H147171   4.164   3.544   5.813
15643WAT     H247172   4.030   3.637   5.820
15644WAT      O47173   4.414   1.176   3.593
15644WAT     H147174   4.419   1.081   3.624
15644WAT     H247175   4.417   1.178   3.493
15645WAT      O47176   9.743   6.140   2.864
15645WAT     H147177   9.707   6.066   2.920
15645WAT     H247178   9.836   6.163   2.895
15646WAT      O47179   4.639   9.640   5.297
15646WAT     H147180   4.709   9.637   5.368
15646WAT     H247181   4.579   9.718   5.313
15647WAT      O47182   8.326   7.073   6.872
15647WAT     H147183   8.417   7.113   6.880
15647WAT     H247184   8.266   7.111   6.942
15648WAT      O47185   4.448   5.654   5.654
15648WAT     H147186   4.498   5.635   5.738
15648WAT     H247187   4.458   5.751   5.630
15649WAT      O47188   6.327   0.532   7.610
15649WAT     H147189   6.294   0.503   7.700
15649WAT     H247190   6.394   0.605   7.620
15650WAT      O47191   7.263   7.367   7.904
15650WAT     H147192   7.296   7.456   7.936
15650WAT     H247193   7.338   7.301   7.907
15651WAT      O47194   1.792   5.791   2.120
15651WAT     H147195   1.777   5.701   2.162
15651WAT     H247196   1.838   5.780   2.032
15652WAT      O47197   4.356   3.808   1.373
15652WAT     H147198   4.448   3.836   1.402
15652WAT     H247199   4.292   3.822   1.448
15653WAT      O47200   9.582   7.989   4.998
15653WAT     H147201   9.652   8.057   5.022
15653WAT     H247202   9.567   7.929   5.076
15654WAT      O47203   5.728   1.137   6.136
15654WAT     H147204   5.769   1.066   6.193
15654WAT     H247205   5.800   1.191   6.092
15655WAT      O47206   4.255   3.499   2.983
15655WAT     H147207   4.314   3.465   2.910
15655WAT     H247208   4.171   3.536   2.944
15656WAT      O47209   4.596   9.014   4.035
15656WAT     H147210   4.675   8.952   4.039
15656WAT     H247211   4.527   8.983   4.100
15657WAT      O47212   0.469   3.656   0.927
15657WAT     H147213   0.384   3.685   0.971
15657WAT     H247214   0.542   3.650   0.995
15658WAT      O47215   8.597   7.694   7.915
15658WAT     H147216   8.534   7.641   7.971
15658WAT     H247217   8.584   7.792   7.932
15659WAT      O47218   1.512   1.377   8.989
15659WAT     H147219   1.595   1.373   8.934
15659WAT     H247220   1.497   1.471   9.019
15660WAT      O47221   2.253   1.736   2.262
15660WAT     H147222   2.220   1.816   2.312
15660WAT     H247223   2.339   1.757   2.216
15661WAT      O47224   2.975   5.657   2.265
15661WAT     H147225   3.073   5.647   2.277
15661WAT     H247226   2.929   5.574   2.297
15662WAT      O47227   7.803   8.208   9.065
15662WAT     H147228   7.712   8.206   9.108
15662WAT     H247229   7.800   8.159   8.978
15663WAT      O47230   6.842   9.314   2.183
15663WAT     H147231   6.880   9.239   2.238
15663WAT     H247232   6.765   9.355   2.232
15664WAT      O47233   6.891   4.541   1.807
15664WAT     H147234   6.939   4.594   1.876
15664WAT     H247235   6.934   4.450   1.800
15665WAT      O47236   7.657   1.906   5.619
15665WAT     H147237   7.686   1.962   5.697
15665WAT     H247238   7.737   1.859   5.580
15666WAT      O47239   1.166   9.832   8.133
15666WAT     H147240   1.180   9.909   8.195
15666WAT     H247241   1.200   9.855   8.042
15667WAT      O47242   4.712   1.467   7.688
15667WAT     H147243   4.749   1.392   7.743
15667WAT     H247244   4.644   1.430   7.623
15668WAT      O47245   9.028   0.782   2.415
15668WAT     H147246   9.094   0.764   2.489
15668WAT     H247247   9.055   0.864   2.366
15669WAT      O47248   0.292   1.726   2.320
15669WAT     H147249   0.340   1.753   2.403
15669WAT     H247250   0.229   1.798   2.293
15670WAT      O47251   4.297   4.623   9.212
15670WAT     H147252   4.328   4.531   9.187
15670WAT     H247253   4.207   4.618   9.256
15671WAT      O47254   7.833   3.496   6.869
15671WAT     H147255   7.855   3.456   6.958
15671WAT     H247256   7.798   3.425   6.808
15672WAT      O47257   4.590   0.753   5.735
15672WAT     H147258   4.655   0.829   5.725
15672WAT     H247259   4.511   0.783   5.787
15673WAT      O47260   7.955   9.730   4.823
15673WAT     H147261   7.963   9.713   4.725
15673WAT     H247262   8.024   9.677   4.872
15674WAT      O47263   7.097   7.513   9.811
15674WAT     H147264   7.192   7.501   9.839
15674WAT     H247265   7.046   7.429   9.831
15675WAT      O47266   4.358   7.563   9.081
15675WAT     H147267   4.435   7.627   9.087
15675WAT     H247268   4.355   7.505   9.162
15676WAT      O47269   0.473   3.301   5.738
15676WAT     H147270   0.499   3.397   5.731
15676WAT     H247271   0.395   3.283   5.678
15677WAT      O47272   3.960   7.523   5.144
15677WAT     H147273   3.981   7.542   5.048
15677WAT     H247274   4.045   7.522   5.197
15678WAT      O47275   8.932   2.933   4.637
15678WAT     H147276   8.919   3.027   4.606
15678WAT     H247277   8.844   2.886   4.639
15679WAT      O47278   8.455   8.921   4.646
15679WAT     H147279   8.552   8.931   4.622
15679WAT     H247280   8.433   8.984   4.720
15680WAT      O47281   9.626   4.200   0.916
15680WAT     H147282   9.664   4.255   0.841
15680WAT     H247283   9.598   4.111   0.880
15681WAT      O47284   3.997   9.787   8.020
15681WAT     H147285   4.043   9.794   8.109
15681WAT     H247286   3.980   9.691   7.999
15682WAT      O47287   0.910   9.066   9.859
15682WAT     H147288   0.977   9.099   9.926
15682WAT     H247289   0.836   9.134   9.851
15683WAT      O47290   2.519   9.311   2.159
15683WAT     H147291   2.549   9.258   2.080
15683WAT     H247292   2.464   9.389   2.129
15684WAT      O47293   1.261   9.724   8.948
15684WAT     H147294   1.271   9.756   8.853
15684WAT     H247295   1.336   9.759   9.003
15685WAT      O47296   6.270   3.028   3.966
15685WAT     H147297   6.298   3.116   4.005
15685WAT     H247298   6.214   2.978   4.033
15686WAT      O47299   4.243   3.717   4.961
15686WAT     H147300   4.339   3.713   4.933
15686WAT     H247301   4.225   3.643   5.026
15687WAT      O47302   1.994   9.552   7.830
15687WAT     H147303   1.915   9.605   7.861
15687WAT     H247304   1.999   9.466   7.881
15688WAT      O47305   9.055   7.720   7.481
15688WAT     H147306   8.968   7.683   7.447
15688WAT     H247307   9.098   7.774   7.408
15689WAT      O47308   6.189   3.353   3.947
15689WAT     H147309   6.092   3.371   3.963
15689WAT     H247310   6.213   3.376   3.852
15690WAT      O47311   3.261   5.091   2.482
15690WAT     H147312   3.329   5.105   2.410
15690WAT     H247313   3.180   5.147   2.463
15691WAT      O47314   2.922   0.912   8.248
15691WAT     H147315   3.010   0.939   8.208
15691WAT     H247316   2.915   0.950   8.341
15692WAT      O47317   0.832   3.698   7.225
15692WAT     H147318   0.834   3.797   7.210
15692WAT     H247319   0.737   3.667   7.226
15693WAT      O47320   2.958   0.644   8.212
15693WAT     H147321   2.972   0.743   8.216
15693WAT     H247322   2.955   0.607   8.305
15694WAT      O47323   4.831   1.319   4.581
15694WAT     H147324   4.865   1.225   4.571
15694WAT     H247325   4.735   1.323   4.553
15695WAT      O47326   5.000   8.738   8.012
15695WAT     H147327   4.957   8.715   8.100
15695WAT     H247328   4.941   8.802   7.962
15696WAT      O47329   3.512   1.342   1.689
15696WAT     H147330   3.558   1.428   1.669
15696WAT     H247331   3.471   1.305   1.605
15697WAT      O47332   2.217   7.412   9.503
15697WAT     H147333   2.237   7.338   9.567
15697WAT     H247334   2.295   7.474   9.499
15698WAT      O47335   5.518   0.855   1.733
15698WAT     H147336   5.509   0.777   1.671
15698WAT     H247337   5.614   0.876   1.747
15699WAT      O47338   7.741   5.576   6.700
15699WAT     H147339   7.738   5.477   6.689
15699WAT     H247340   7.806   5.615   6.634
15700WAT      O47341   3.477   9.156   3.528
15700WAT     H147342   3.408   9.172   3.457
15700WAT     H247343   3.551   9.100   3.490
15701WAT      O47344   5.441   5.767   9.477
15701WAT     H147345   5.497   5.780   9.558
15701WAT     H247346   5.420   5.670   9.466
15702WAT      O47347   7.671   3.422   2.017
15702WAT     H147348   7.647   3.331   2.053
15702WAT     H247349   7.644   3.492   2.083
15703WAT      O47350   8.706   6.699   8.015
15703WAT     H147351   8.683   6.770   8.081
15703WAT     H247352   8.732   6.615   8.063
15704WAT      O47353   3.464   9.022   4.426
15704WAT     H147354   3.473   8.978   4.516
15704WAT     H247355   3.507   8.965   4.356
15705WAT      O47356   4.509   5.889   5.457
15705WAT     H147357   4.584   5.896   5.523
15705WAT     H247358   4.424   5.921   5.499
15706WAT      O47359   2.547   8.889   1.302
15706WAT     H147360   2.498   8.956   1.246
15706WAT     H247361   2.494   8.804   1.305
15707WAT      O47362   0.799   1.794   2.281
15707WAT     H147363   0.712   1.749   2.263
15707WAT     H247364   0.846   1.749   2.357
15708WAT      O47365   2.849   9.810   2.456
15708WAT     H147366   2.926   9.772   2.405
15708WAT     H247367   2.855   9.782   2.552
15709WAT      O47368   3.953   7.115   0.768
15709WAT     H147369   3.887   7.173   0.720
15709WAT     H247370   3.910   7.078   0.851
15710WAT      O47371   7.153   8.700   5.992
15710WAT     H147372   7.213   8.743   5.925
15710WAT     H247373   7.169   8.601   5.993
15711WAT      O47374   4.373   2.075   5.844
15711WAT     H147375   4.374   2.086   5.745
15711WAT     H247376   4.441   2.135   5.885
15712WAT      O47377   7.246   8.099   4.828
15712WAT     H147378   7.294   8.174   4.783
15712WAT     H247379   7.147   8.114   4.822
15713WAT      O47380   5.906   3.453   1.748
15713WAT     H147381   6.001   3.463   1.778
15713WAT     H247382   5.855   3.401   1.815
15714WAT      O47383   3.831   6.274   6.354
15714WAT     H147384   3.887   6.214   6.296
15714WAT     H247385   3.885   6.305   6.431
15715WAT      O47386   9.399   6.987   1.386
15715WAT     H147387   9.457   7.017   1.310
15715WAT     H247388   9.455   6.970   1.467
15716WAT      O47389   4.642   4.758   7.850
15716WAT     H147390   4.694   4.691   7.796
15716WAT     H247391   4.704   4.831   7.881
15717WAT      O47392   4.914   8.933   9.209
15717WAT     H147393   5.005   8.959   9.243
15717WAT     H247394   4.860   8.897   9.284
15718WAT      O47395   2.556   8.322   3.388
15718WAT     H147396   2.479   8.294   3.330
15718WAT     H247397   2.522   8.358   3.474
15719WAT      O47398   0.737   5.014   8.577
15719WAT     H147399   0.646   4.978   8.599
15719WAT     H247400   0.734   5.114   8.574
15720WAT      O47401   1.321   3.366   9.677
15720WAT     H147402   1.415   3.332   9.669
15720WAT     H247403   1.322   3.466   9.676
15721WAT      O47404   7.903   1.562   3.573
15721WAT     H147405   7.954   1.522   3.497
15721WAT     H247406   7.931   1.658   3.584
15722WAT      O47407   0.578   0.354   6.229
15722WAT     H147408   0.493   0.376   6.276
15722WAT     H247409   0.654   0.360   6.293
15723WAT      O47410   0.763   2.363   7.337
15723WAT     H147411   0.714   2.333   7.419
15723WAT     H247412   0.850   2.405   7.364
15724WAT      O47413   6.764   7.235   5.817
15724WAT     H147414   6.700   7.310   5.802
15724WAT     H247415   6.825   7.257   5.894
15725WAT      O47416   4.674   2.243   4.212
15725WAT     H147417   4.691   2.148   4.240
15725WAT     H247418   4.684   2.250   4.113
15726WAT      O47419   7.072   6.140   5.504
15726WAT     H147420   7.125   6.224   5.514
15726WAT     H247421   7.134   6.063   5.490
15727WAT      O47422   4.512   8.652   6.995
15727WAT     H147423   4.554   8.564   7.018
15727WAT     H247424   4.553   8.689   6.912
15728WAT      O47425   6.292   6.483   0.471
15728WAT     H147426   6.306   6.467   0.569
15728WAT     H247427   6.243   6.569   0.459
15729WAT      O47428   9.548   3.497   5.556
15729WAT     H147429   9.523   3.581   5.506
15729WAT     H247430   9.505   3.418   5.511
15730WAT      O47431   8.046   3.763   5.982
15730WAT     H147432   8.052   3.666   5.958
15730WAT     H247433   8.045   3.773   6.081
15731WAT      O47434   3.812   5.259   4.900
15731WAT     H147435   3.895   5.224   4.857
15731WAT     H247436   3.832   5.346   4.946
15732WAT      O47437   7.336   1.908   9.572
15732WAT     H147438   7.254   1.965   9.569
15732WAT     H247439   7.348   1.862   9.484
15733WAT      O47440   2.022   1.639   5.973
15733WAT     H147441   2.006   1.575   5.898
15733WAT     H247442   2.073   1.718   5.939
15734WAT      O47443   9.286   8.969   9.698
15734WAT     H147444   9.239   9.010   9.776
15734WAT     H247445   9.385   8.977   9.711
15735WAT      O47446   6.854   7.215   1.567
15735WAT     H147447   6.897   7.227   1.657
15735WAT     H247448   6.905   7.265   1.498
15736WAT      O47449   8.505   8.491   3.970
15736WAT     H147450   8.572   8.463   4.039
15736WAT     H247451   8.546   8.486   3.879
15737WAT      O47452   7.199   0.397   7.364
15737WAT     H147453   7.259   0.476   7.376
15737WAT     H247454   7.242   0.316   7.404
15738WAT      O47455   2.592   5.472   9.822
15738WAT     H147456   2.674   5.414   9.819
15738WAT     H247457   2.614   5.564   9.790
15739WAT      O47458   6.785   5.992   2.819
15739WAT     H147459   6.850   6.050   2.868
15739WAT     H247460   6.736   6.046   2.752
15740WAT      O47461   7.060   2.406   6.594
15740WAT     H147462   7.138   2.468   6.582
15740WAT     H247463   7.091   2.321   6.636
15741WAT      O47464   1.136   1.136   4.520
15741WAT     H147465   1.208   1.087   4.471
15741WAT     H247466   1.085   1.193   4.455
15742WAT      O47467   7.896   1.092   4.373
15742WAT     H147468   7.850   1.003   4.377
15742WAT     H247469   7.961   1.098   4.449
15743WAT      O47470   7.722   2.515   7.260
15743WAT     H147471   7.640   2.570   7.272
15743WAT     H247472   7.699   2.418   7.272
15744WAT      O47473   8.585   0.284   7.965
15744WAT     H147474   8.566   0.253   8.058
15744WAT     H247475   8.498   0.304   7.919
15745WAT      O47476   5.524   7.682   4.289
15745WAT     H147477   5.519   7.744   4.210
15745WAT     H247478   5.507   7.734   4.373
15746WAT      O47479   4.882   1.762   0.537
15746WAT     H147480   4.901   1.760   0.439
15746WAT     H247481   4.948   1.821   0.583
15747WAT      O47482   4.474   5.566   2.434
15747WAT     H147483   4.524   5.638   2.482
15747WAT     H247484   4.490   5.478   2.480
15748WAT      O47485   0.199   1.413   5.841
15748WAT     H147486   0.227   1.495   5.891
15748WAT     H247487   0.172   1.342   5.905
15749WAT      O47488   5.041   4.953   8.227
15749WAT     H147489   4.957   4.921   8.182
15749WAT     H247490   5.116   4.954   8.161
15750WAT      O47491   4.576   1.169   9.321
15750WAT     H147492   4.601   1.203   9.230
15750WAT     H247493   4.502   1.224   9.358
15751WAT      O47494   1.598   6.014   3.223
15751WAT     H147495   1.575   5.967   3.137
15751WAT     H247496   1.610   5.946   3.295
15752WAT      O47497   5.285   2.702   9.008
15752WAT     H147498   5.287   2.716   8.909
15752WAT     H247499   5.200   2.738   9.045
15753WAT      O47500   2.182   0.179   7.926
15753WAT     H147501   2.247   0.120   7.974
15753WAT     H247502   2.231   0.244   7.869
15754WAT      O47503   6.781   3.872   1.791
15754WAT     H147504   6.832   3.789   1.766
15754WAT     H247505   6.785   3.937   1.715
15755WAT      O47506   3.667   2.447   0.586
15755WAT     H147507   3.726   2.505   0.642
15755WAT     H247508   3.582   2.428   0.636
15756WAT      O47509   8.011   6.769   5.123
15756WAT     H147510   7.963   6.775   5.211
15756WAT     H247511   8.068   6.850   5.110
15757WAT      O47512   0.148   8.334   7.425
15757WAT     H147513   0.192   8.247   7.446
15757WAT     H247514   0.188   8.372   7.342
15758WAT      O47515   5.022   1.560   8.510
15758WAT     H147516   4.925   1.580   8.499
15758WAT     H247517   5.041   1.539   8.606
15759WAT      O47518   1.064   6.338   8.681
15759WAT     H147519   0.998   6.307   8.613
15759WAT     H247520   1.145   6.374   8.634
15760WAT      O47521   5.543   8.433   3.547
15760WAT     H147522   5.585   8.488   3.475
15760WAT     H247523   5.614   8.387   3.600
15761WAT      O47524   3.339   5.099   8.766
15761WAT     H147525   3.376   5.179   8.719
15761WAT     H247526   3.239   5.108   8.772
15762WAT      O47527   4.533   8.425   1.687
15762WAT     H147528   4.465   8.433   1.760
15762WAT     H247529   4.625   8.429   1.725
15763WAT      O47530   1.452   1.853   3.123
15763WAT     H147531   1.415   1.802   3.045
15763WAT     H247532   1.538   1.897   3.096
15764WAT      O47533   2.095   5.664   9.869
15764WAT     H147534   2.054   5.573   9.863
15764WAT     H247535   2.035   5.724   9.922
15765WAT      O47536   1.762   2.318   3.165
15765WAT     H147537   1.820   2.399   3.174
15765WAT     H247538   1.707   2.325   3.082
15766WAT      O47539   8.703   3.302   9.774
15766WAT     H147540   8.695   3.398   9.748
15766WAT     H247541   8.713   3.245   9.693
15767WAT      O47542   2.808   8.860   6.929
15767WAT     H147543   2.711   8.838   6.919
15767WAT     H247544   2.846   8.809   7.005
15768WAT      O47545   8.050   2.615   8.218
15768WAT     H147546   7.952   2.630   8.237
15768WAT     H247547   8.061   2.580   8.126
15769WAT      O47548   9.797   7.535   4.287
15769WAT     H147549   9.825   7.614   4.340
15769WAT     H247550   9.863   7.519   4.213
15770WAT      O47551   0.839   8.948   8.989
15770WAT     H147552   0.934   8.953   9.018
15770WAT     H247553   0.779   8.946   9.069
15771WAT      O47554   5.336   7.945   2.459
15771WAT     H147555   5.361   8.022   2.519
15771WAT     H247556   5.279   7.979   2.384
15772WAT      O47557   5.220   3.195   7.205
15772WAT     H147558   5.156   3.122   7.229
15772WAT     H247559   5.293   3.158   7.149
15773WAT      O47560   9.205   4.983   6.479
15773WAT     H147561   9.218   5.062   6.539
15773WAT     H247562   9.107   4.973   6.458
15774WAT      O47563   9.519   5.907   1.899
15774WAT     H147564   9.538   5.829   1.839
15774WAT     H247565   9.604   5.940   1.939
15775WAT      O47566   7.392   0.645   6.638
15775WAT     H147567   7.423   0.592   6.559
15775WAT     H247568   7.463   0.710   6.666
15776WAT      O47569   2.164   7.627   1.634
15776WAT     H147570   2.229   7.582   1.694
15776WAT     H247571   2.122   7.559   1.573
15777WAT      O47572   4.433   0.502   0.434
15777WAT     H147573   4.455   0.546   0.348
15777WAT     H247574   4.514   0.500   0.493
15778WAT      O47575   1.130   3.030   4.130
15778WAT     H147576   1.037   3.051   4.158
15778WAT     H247577   1.186   3.113   4.133
15779WAT      O47578   4.931   9.385   3.383
15779WAT     H147579   5.006   9.421   3.328
15779WAT     H247580   4.854   9.450   3.382
15780WAT      O47581   1.505   1.359   3.901
15780WAT     H147582   1.422   1.361   3.957
15780WAT     H247583   1.498   1.427   3.828
15781WAT      O47584   9.219   2.000   8.878
15781WAT     H147585   9.228   1.903   8.854
15781WAT     H247586   9.273   2.019   8.960
15782WAT      O47587   2.287   4.789   0.835
15782WAT     H147588   2.269   4.733   0.915
15782WAT     H247589   2.237   4.752   0.756
15783WAT      O47590   7.200   9.198   1.137
15783WAT     H147591   7.260   9.180   1.059
15783WAT     H247592   7.130   9.264   1.111
15784WAT      O47593   2.263   9.791   7.282
15784WAT     H147594   2.315   9.854   7.340
15784WAT     H247595   2.221   9.720   7.339
15785WAT      O47596   6.906   7.904   6.610
15785WAT     H147597   6.875   7.939   6.698
15785WAT     H247598   6.950   7.815   6.623
15786WAT      O47599   0.798   9.153   6.338
15786WAT     H147600   0.764   9.147   6.431
15786WAT     H247601   0.721   9.152   6.274
15787WAT      O47602   8.230   2.784   9.149
15787WAT     H147603   8.131   2.776   9.135
15787WAT     H247604   8.247   2.815   9.243
15788WAT      O47605   3.904   2.066   1.436
15788WAT     H147606   3.988   2.092   1.483
15788WAT     H247607   3.825   2.105   1.485
15789WAT      O47608   3.838   7.516   2.620
15789WAT     H147609   3.900   7.518   2.542
15789WAT     H247610   3.744   7.505   2.588
15790WAT      O47611   0.725   4.423   7.101
15790WAT     H147612   0.815   4.394   7.069
15790WAT     H247613   0.686   4.490   7.038
15791WAT      O47614   6.024   0.431   1.213
15791WAT     H147615   5.992   0.432   1.308
15791WAT     H247616   5.979   0.504   1.162
15792WAT      O47617   2.064   4.365   2.288
15792WAT     H147618   2.009   4.446   2.310
15792WAT     H247619   2.011   4.283   2.308
15793WAT      O47620   8.083   2.732   0.230
15793WAT     H147621   8.120   2.798   0.164
15793WAT     H247622   8.026   2.666   0.182
15794WAT      O47623   2.897   9.748   9.304
15794WAT     H147624   2.846   9.676   9.257
15794WAT     H247625   2.881   9.742   9.402
15795WAT      O47626   5.364   6.819   4.230
15795WAT     H147627   5.431   6.841   4.159
15795WAT     H247628   5.369   6.721   4.250
15796WAT      O47629   5.689   9.598   0.684
15796WAT     H147630   5.664   9.665   0.754
15796WAT     H247631   5.788   9.592   0.677
15797WAT      O47632   2.892   8.288   6.691
15797WAT     H147633   2.811   8.240   6.658
15797WAT     H247634   2.970   8.268   6.631
15798WAT      O47635   7.627   1.302   6.155
15798WAT     H147636   7.608   1.284   6.252
15798WAT     H247637   7.716   1.264   6.131
15799WAT      O47638   7.850   2.688   1.553
15799WAT     H147639   7.880   2.597   1.524
15799WAT     H247640   7.761   2.681   1.596
15800WAT      O47641   0.037   7.586   8.705
15800WAT     H147642   0.077   7.665   8.752
15800WAT     H247643   0.109   7.535   8.657
15801WAT      O47644   5.026   2.405   5.700
15801WAT     H147645   5.001   2.371   5.791
15801WAT     H247646   5.019   2.330   5.634
15802WAT      O47647   2.403   4.116   0.090
15802WAT     H147648   2.449   4.107   0.001
15802WAT     H247649   2.468   4.153   0.157
15803WAT      O47650   2.709   0.581   4.167
15803WAT     H147651   2.640   0.552   4.101
15803WAT     H247652   2.705   0.681   4.177
15804WAT      O47653   0.273   6.500   9.433
15804WAT     H147654   0.334   6.448   9.373
15804WAT     H247655   0.203   6.439   9.470
15805WAT      O47656   7.345   5.931   0.499
15805WAT     H147657   7.339   6.000   0.427
15805WAT     H247658   7.436   5.934   0.541
15806WAT      O47659   2.792   4.659   8.965
15806WAT     H147660   2.790   4.675   8.866
15806WAT     H247661   2.875   4.610   8.989
15807WAT      O47662   8.529   5.040   7.548
15807WAT     H147663   8.468   5.041   7.628
15807WAT     H247664   8.574   4.951   7.542
15808WAT      O47665   8.867   2.218   1.411
15808WAT     H147666   8.854   2.230   1.510
15808WAT     H247667   8.834   2.299   1.364
15809WAT      O47668   9.567   3.454   1.048
15809WAT     H147669   9.635   3.484   0.982
15809WAT     H247670   9.477   3.491   1.023
15810WAT      O47671   1.661   5.507   7.509
15810WAT     H147672   1.565   5.483   7.498
15810WAT     H247673   1.696   5.545   7.424
15811WAT      O47674   1.276   8.716   9.235
15811WAT     H147675   1.255   8.812   9.215
15811WAT     H247676   1.208   8.679   9.299
15812WAT      O47677   4.659   4.750   3.157
15812WAT     H147678   4.730   4.696   3.113
15812WAT     H247679   4.701   4.823   3.210
15813WAT      O47680   8.761   2.968   6.260
15813WAT     H147681   8.718   3.059   6.263
15813WAT     H247682   8.702   2.905   6.208
15814WAT      O47683   7.107   1.868   6.687
15814WAT     H147684   7.156   1.839   6.769
15814WAT     H247685   7.011   1.844   6.694
15815WAT      O47686   5.135   7.374   1.463
15815WAT     H147687   5.131   7.411   1.370
15815WAT     H247688   5.227   7.337   1.479
15816WAT      O47689   7.502   5.870   0.711
15816WAT     H147690   7.532   5.871   0.807
15816WAT     H247691   7.555   5.937   0.660
15817WAT      O47692   1.425   2.900   6.959
15817WAT     H147693   1.407   2.999   6.954
15817WAT     H247694   1.440   2.873   7.054
15818WAT      O47695   9.625   6.527   6.378
15818WAT     H147696   9.559   6.587   6.332
15818WAT     H247697   9.683   6.583   6.438
15819WAT      O47698   8.331   7.603   4.236
15819WAT     H147699   8.388   7.685   4.234
15819WAT     H247700   8.317   7.574   4.331
15820WAT      O47701   1.223   2.571   1.736
15820WAT     H147702   1.271   2.642   1.684
15820WAT     H247703   1.127   2.567   1.707
15821WAT      O47704   7.211   1.714   0.863
15821WAT     H147705   7.290   1.730   0.922
15821WAT     H247706   7.127   1.716   0.918
15822WAT      O47707   7.366   7.115   4.877
15822WAT     H147708   7.297   7.054   4.915
15822WAT     H247709   7.454   7.097   4.921
15823WAT      O47710   9.374   5.522   0.564
15823WAT     H147711   9.402   5.534   0.659
15823WAT     H247712   9.293   5.577   0.546
15824WAT      O47713   4.434   3.914   0.204
15824WAT     H147714   4.480   3.835   0.164
15824WAT     H247715   4.346   3.928   0.160
15825WAT      O47716   3.456   5.999   6.201
15825WAT     H147717   3.483   6.074   6.262
15825WAT     H247718   3.390   5.940   6.247
15826WAT      O47719   7.159   2.457   1.886
15826WAT     H147720   7.087   2.464   1.817
15826WAT     H247721   7.120   2.476   1.977
15827WAT      O47722   3.367   5.004   1.573
15827WAT     H147723   3.466   5.005   1.560
15827WAT     H247724   3.328   4.924   1.528
15828WAT      O47725   8.397   0.199   9.296
15828WAT     H147726   8.450   0.135   9.242
15828WAT     H247727   8.377   0.281   9.242
15829WAT      O47728   6.580   5.178   3.230
15829WAT     H147729   6.575   5.270   3.269
15829WAT     H247730   6.507   5.166   3.163
15830WAT      O47731   1.579   2.731   4.069
15830WAT     H147732   1.643   2.736   3.992
15830WAT     H247733   1.631   2.721   4.154
15831WAT      O47734   6.690   3.099   3.403
15831WAT     H147735   6.673   3.192   3.372
15831WAT     H247736   6.638   3.081   3.486
15832WAT      O47737   0.450   0.434   8.571
15832WAT     H147738   0.507   0.351   8.571
15832WAT     H247739   0.413   0.449   8.480
15833WAT      O47740   8.535   5.999   0.713
15833WAT     H147741   8.451   5.947   0.697
15833WAT     H247742   8.529   6.087   0.667
15834WAT      O47743   4.527   9.682   3.062
15834WAT     H147744   4.617   9.640   3.070
15834WAT     H247745   4.502   9.688   2.965
15835WAT      O47746   7.565   5.848   3.804
15835WAT     H147747   7.628   5.834   3.880
15835WAT     H247748   7.552   5.946   3.788
15836WAT      O47749   0.512   6.583   1.141
15836WAT     H147750   0.494   6.596   1.239
15836WAT     H247751   0.593   6.526   1.129
15837WAT      O47752   2.517   2.779   2.520
15837WAT     H147753   2.591   2.716   2.498
15837WAT     H247754   2.516   2.797   2.618
15838WAT      O47755   4.234   5.995   4.710
15838WAT     H147756   4.298   6.014   4.635
15838WAT     H247757   4.259   6.051   4.789
15839WAT      O47758   4.170   9.501   5.653
15839WAT     H147759   4.095   9.438   5.673
15839WAT     H247760   4.197   9.491   5.557
15840WAT      O47761   6.347   8.417   2.189
15840WAT     H147762   6.282   8.395   2.116
15840WAT     H247763   6.332   8.511   2.220
15841WAT      O47764   6.616   9.433   5.838
15841WAT     H147765   6.587   9.415   5.932
15841WAT     H247766   6.560   9.506   5.800
15842WAT      O47767   6.361   9.724   8.626
15842WAT     H147768   6.455   9.727   8.662
15842WAT     H247769   6.349   9.798   8.559
15843WAT      O47770   5.232   6.194   4.689
15843WAT     H147771   5.329   6.191   4.711
15843WAT     H247772   5.208   6.116   4.632
15844WAT      O47773   3.551   2.781   5.813
15844WAT     H147774   3.463   2.737   5.794
15844WAT     H247775   3.549   2.822   5.903
15845WAT      O47776   0.435   1.071   4.522
15845WAT     H147777   0.530   1.090   4.546
15845WAT     H247778   0.388   1.029   4.600
15846WAT      O47779   7.741   2.422   6.824
15846WAT     H147780   7.696   2.415   6.735
15846WAT     H247781   7.833   2.459   6.812
15847WAT      O47782   0.704   0.512   3.505
15847WAT     H147783   0.688   0.434   3.567
15847WAT     H247784   0.639   0.584   3.526
15848WAT      O47785   1.260   7.915   5.592
15848WAT     H147786   1.229   7.977   5.520
15848WAT     H247787   1.246   7.820   5.564
15849WAT      O47788   5.866   6.056   6.372
15849WAT     H147789   5.781   6.103   6.347
15849WAT     H247790   5.937   6.124   6.391
15850WAT      O47791   8.337   2.059   8.436
15850WAT     H147792   8.429   2.032   8.463
15850WAT     H247793   8.337   2.090   8.341
15851WAT      O47794   0.459   5.104   9.612
15851WAT     H147795   0.476   5.127   9.516
15851WAT     H247796   0.365   5.073   9.623
15852WAT      O47797   0.621   0.476   4.649
15852WAT     H147798   0.689   0.417   4.692
15852WAT     H247799   0.615   0.454   4.551
15853WAT      O47800   5.021   8.764   4.665
15853WAT     H147801   4.998   8.670   4.642
15853WAT     H247802   4.938   8.812   4.695
15854WAT      O47803   4.148   2.622   6.254
15854WAT     H147804   4.088   2.642   6.332
15854WAT     H247805   4.149   2.523   6.238
15855WAT      O47806   1.846   5.397   6.798
15855WAT     H147807   1.915   5.325   6.809
15855WAT     H247808   1.860   5.468   6.868
15856WAT      O47809   1.674   9.751   9.534
15856WAT     H147810   1.619   9.722   9.455
15856WAT     H247811   1.753   9.803   9.503
15857WAT      O47812   7.803   2.750   7.980
15857WAT     H147813   7.857   2.764   7.898
15857WAT     H247814   7.758   2.836   8.005
15858WAT      O47815   5.717   2.177   1.997
15858WAT     H147816   5.774   2.239   2.050
15858WAT     H247817   5.773   2.107   1.955
15859WAT      O47818   1.300   5.963   3.681
15859WAT     H147819   1.393   5.975   3.715
15859WAT     H247820   1.245   5.915   3.750
15860WAT      O47821   1.570   9.721   5.587
15860WAT     H147822   1.624   9.641   5.616
15860WAT     H247823   1.488   9.689   5.539
15861WAT      O47824   5.329   7.782   0.839
15861WAT     H147825   5.326   7.836   0.755
15861WAT     H247826   5.402   7.714   0.832
15862WAT      O47827   9.598   8.669   5.105
15862WAT     H147828   9.638   8.579   5.090
15862WAT     H247829   9.569   8.708   5.018
15863WAT      O47830   1.735   6.114   4.980
15863WAT     H147831   1.703   6.173   5.054
15863WAT     H247832   1.738   6.166   4.894
15864WAT      O47833   1.230   1.392   5.239
15864WAT     H147834   1.134   1.366   5.233
15864WAT     H247835   1.279   1.355   5.160
15865WAT      O47836   1.560   4.729   5.617
15865WAT     H147837   1.620   4.809   5.632
15865WAT     H247838   1.509   4.710   5.700
15866WAT      O47839   4.411   6.362   1.269
15866WAT     H147840   4.495   6.392   1.223
15866WAT     H247841   4.345   6.437   1.272
15867WAT      O47842   2.346   5.031   0.699
15867WAT     H147843   2.344   4.958   0.767
15867WAT     H247844   2.259   5.080   0.699
15868WAT      O47845   6.318   6.074   0.607
15868WAT     H147846   6.358   6.088   0.697
15868WAT     H247847   6.343   6.150   0.547
15869WAT      O47848   7.246   7.765   4.002
15869WAT     H147849   7.283   7.681   3.962
15869WAT     H247850   7.157   7.785   3.962
15870WAT      O47851   3.565   8.557   0.278
15870WAT     H147852   3.500   8.582   0.350
15870WAT     H247853   3.522   8.571   0.188
15871WAT      O47854   4.295   5.312   5.221
15871WAT     H147855   4.377   5.369   5.217
15871WAT     H247856   4.269   5.284   5.128
15872WAT      O47857   6.193   7.136   1.996
15872WAT     H147858   6.255   7.062   1.968
15872WAT     H247859   6.247   7.220   2.011
15873WAT      O47860   9.182   3.238   9.091
15873WAT     H147861   9.221   3.329   9.075
15873WAT     H247862   9.251   3.169   9.071
15874WAT      O47863   7.593   9.252   5.920
15874WAT     H147864   7.565   9.230   5.827
15874WAT     H247865   7.546   9.191   5.985
15875WAT      O47866   4.023   1.090   7.814
15875WAT     H147867   3.962   1.051   7.883
15875WAT     H247868   4.083   1.158   7.856
15876WAT      O47869   1.828   6.120   8.308
15876WAT     H147870   1.853   6.081   8.397
15876WAT     H247871   1.830   6.220   8.315
15877WAT      O47872   3.279   8.984   9.425
15877WAT     H147873   3.284   8.998   9.524
15877WAT     H247874   3.207   9.041   9.387
15878WAT      O47875   0.456   4.824   1.483
15878WAT     H147876   0.499   4.912   1.499
15878WAT     H247877   0.369   4.837   1.435
15879WAT      O47878   9.500   0.648   6.961
15879WAT     H147879   9.500   0.676   6.865
15879WAT     H247880   9.489   0.549   6.968
15880WAT      O47881   8.193   1.587   0.040
15880WAT     H147882   8.264   1.643   0.084
15880WAT     H247883   8.218   1.570  -0.055
15881WAT      O47884   5.300   2.385   0.054
15881WAT     H147885   5.221   2.392   0.114
15881WAT     H247886   5.281   2.430  -0.033
15882WAT      O47887   2.110   5.164   0.780
15882WAT     H147888   2.049   5.219   0.838
15882WAT     H247889   2.057   5.120   0.708
15883WAT      O47890   6.086   2.288   6.800
15883WAT     H147891   6.103   2.377   6.758
15883WAT     H247892   6.113   2.291   6.896
15884WAT      O47893   3.059   0.276   7.285
15884WAT     H147894   3.023   0.346   7.223
15884WAT     H247895   2.988   0.249   7.349
15885WAT      O47896   8.190   5.302   8.298
15885WAT     H147897   8.106   5.265   8.337
15885WAT     H247898   8.195   5.400   8.317
15886WAT      O47899   8.584   5.185   1.938
15886WAT     H147900   8.545   5.261   1.886
15886WAT     H247901   8.676   5.209   1.968
15887WAT      O47902   4.321   4.274   9.292
15887WAT     H147903   4.239   4.310   9.337
15887WAT     H247904   4.363   4.205   9.349
15888WAT      O47905   6.738   1.039   5.242
15888WAT     H147906   6.727   1.081   5.332
15888WAT     H247907   6.681   1.086   5.176
15889WAT      O47908   8.842   2.037   0.285
15889WAT     H147909   8.801   2.056   0.374
15889WAT     H247910   8.838   2.120   0.229
15890WAT      O47911   0.046   1.331   7.288
15890WAT     H147912  -0.000   1.347   7.201
15890WAT     H247913   0.045   1.414   7.343
15891WAT      O47914   4.769   7.210   2.524
15891WAT     H147915   4.713   7.240   2.447
15891WAT     H247916   4.847   7.271   2.534
15892WAT      O47917   5.438   5.432   4.420
15892WAT     H147918   5.381   5.512   4.437
15892WAT     H247919   5.490   5.446   4.336
15893WAT      O47920   3.218   9.117   1.337
15893WAT     H147921   3.169   9.100   1.422
15893WAT     H247922   3.152   9.126   1.262
15894WAT      O47923   7.423   2.362   5.113
15894WAT     H147924   7.400   2.312   5.196
15894WAT     H247925   7.345   2.360   5.050
15895WAT      O47926   0.632   5.811   5.645
15895WAT     H147927   0.700   5.857   5.702
15895WAT     H247928   0.676   5.782   5.560
15896WAT      O47929   7.181   9.589   9.560
15896WAT     H147930   7.204   9.530   9.637
15896WAT     H247931   7.180   9.535   9.476
15897WAT      O47932   2.315   8.850   3.824
15897WAT     H147933   2.301   8.949   3.820
15897WAT     H247934   2.377   8.828   3.899
15898WAT      O47935   0.800   9.233   5.315
15898WAT     H147936   0.890   9.221   5.357
15898WAT     H247937   0.800   9.317   5.260
15899WAT      O47938   7.801   8.530   6.107
15899WAT     H147939   7.778   8.433   6.114
15899WAT     H247940   7.733   8.576   6.049
15900WAT      O47941   7.237   2.199   7.400
15900WAT     H147942   7.246   2.180   7.498
15900WAT     H247943   7.140   2.204   7.376
15901WAT      O47944   4.908   8.668   8.251
15901WAT     H147945   4.842   8.645   8.323
15901WAT     H247946   4.991   8.706   8.293
15902WAT      O47947   7.475   0.321   6.058
15902WAT     H147948   7.537   0.247   6.030
15902WAT     H247949   7.415   0.288   6.130
15903WAT      O47950   2.337   0.362   6.356
15903WAT     H147951   2.384   0.450   6.359
15903WAT     H247952   2.341   0.325   6.264
15904WAT      O47953   7.200   1.775   4.105
15904WAT     H147954   7.132   1.849   4.106
15904WAT     H247955   7.225   1.753   4.200
15905WAT      O47956   2.703   0.433   8.453
15905WAT     H147957   2.724   0.529   8.440
15905WAT     H247958   2.762   0.377   8.395
15906WAT      O47959   5.220   4.601   6.371
15906WAT     H147960   5.211   4.657   6.289
15906WAT     H247961   5.306   4.623   6.417
15907WAT      O47962   9.068   3.829   9.522
15907WAT     H147963   9.127   3.910   9.515
15907WAT     H247964   9.106   3.756   9.466
15908WAT      O47965   6.743   1.452   7.566
15908WAT     H147966   6.769   1.546   7.542
15908WAT     H247967   6.754   1.393   7.486
15909WAT      O47968   0.033   2.853   9.873
15909WAT     H147969   0.092   2.869   9.794
15909WAT     H247970  -0.026   2.932   9.887
15910WAT      O47971   1.733   2.390   7.111
15910WAT     H147972   1.683   2.307   7.137
15910WAT     H247973   1.676   2.446   7.052
15911WAT      O47974   9.039   0.992   9.501
15911WAT     H147975   9.120   0.940   9.527
15911WAT     H247976   9.041   1.082   9.545
15912WAT      O47977   2.907   0.463   2.071
15912WAT     H147978   2.971   0.432   2.001
15912WAT     H247979   2.846   0.388   2.096
15913WAT      O47980   7.410   7.534   1.449
15913WAT     H147981   7.352   7.508   1.372
15913WAT     H247982   7.498   7.487   1.443
15914WAT      O47983   0.834   1.691   5.303
15914WAT     H147984   0.895   1.671   5.379
15914WAT     H247985   0.739   1.678   5.332
15915WAT      O47986   6.112   3.794   6.436
15915WAT     H147987   6.093   3.709   6.387
15915WAT     H247988   6.203   3.828   6.411
15916WAT      O47989   8.470   5.574   9.269
15916WAT     H147990   8.406   5.577   9.346
15916WAT     H247991   8.438   5.635   9.196
15917WAT      O47992   8.414   1.349   3.525
15917WAT     H147993   8.440   1.375   3.618
15917WAT     H247994   8.441   1.254   3.508
15918WAT      O47995   0.554   6.872   4.301
15918WAT     H147996   0.575   6.809   4.226
15918WAT     H247997   0.540   6.821   4.385
15919WAT      O47998   0.384   3.461   3.301
15919WAT     H147999   0.354   3.388   3.240
15919WAT     H248000   0.433   3.421   3.379
15920WAT      O48001   4.576   3.633   6.448
15920WAT     H148002   4.667   3.628   6.488
15920WAT     H248003   4.571   3.712   6.386
15921WAT      O48004   7.022   8.742   5.610
15921WAT     H148005   6.958   8.705   5.677
15921WAT     H248006   7.045   8.837   5.634
15922WAT      O48007   7.910   6.248   3.897
15922WAT     H148008   7.986   6.272   3.957
15922WAT     H248009   7.927   6.158   3.857
15923WAT      O48010   3.797   6.782   7.656
15923WAT     H148011   3.895   6.795   7.675
15923WAT     H248012   3.781   6.689   7.624
15924WAT      O48013   4.811   1.374   5.010
15924WAT     H148014   4.718   1.407   5.028
15924WAT     H248015   4.863   1.446   4.964
15925WAT      O48016   5.278   6.225   9.362
15925WAT     H148017   5.375   6.201   9.356
15925WAT     H248018   5.259   6.301   9.300
15926WAT      O48019   1.177   1.690   2.062
15926WAT     H148020   1.198   1.651   2.152
15926WAT     H248021   1.090   1.653   2.030
15927WAT      O48022   4.335   6.006   6.836
15927WAT     H148023   4.368   5.919   6.800
15927WAT     H248024   4.376   6.023   6.926
15928WAT      O48025   8.462   3.971   3.691
15928WAT     H148026   8.524   3.893   3.697
15928WAT     H248027   8.373   3.947   3.731
15929WAT      O48028   0.423   7.155   6.216
15929WAT     H148029   0.338   7.131   6.169
15929WAT     H248030   0.471   7.071   6.242
15930WAT      O48031   6.768   5.109   0.060
15930WAT     H148032   6.863   5.097   0.088
15930WAT     H248033   6.765   5.158  -0.027
15931WAT      O48034   3.117   6.897   6.104
15931WAT     H148035   3.077   6.898   6.195
15931WAT     H248036   3.197   6.957   6.101
15932WAT      O48037   0.384   0.409   2.449
15932WAT     H148038   0.426   0.378   2.364
15932WAT     H248039   0.319   0.340   2.481
15933WAT      O48040   4.418   7.834   4.746
15933WAT     H148041   4.329   7.852   4.789
15933WAT     H248042   4.455   7.919   4.710
15934WAT      O48043   5.273   2.729   8.042
15934WAT     H148044   5.318   2.706   8.128
15934WAT     H248045   5.328   2.697   7.965
15935WAT      O48046   7.286   7.089   7.611
15935WAT     H148047   7.264   7.186   7.623
15935WAT     H248048   7.239   7.035   7.682
15936WAT      O48049   5.198   6.057   6.880
15936WAT     H148050   5.124   5.992   6.899
15936WAT     H248051   5.167   6.149   6.900
15937WAT      O48052   2.244   7.080   6.256
15937WAT     H148053   2.303   7.135   6.197
15937WAT     H248054   2.213   6.999   6.206
15938WAT      O48055   8.558   1.327   4.563
15938WAT     H148056   8.625   1.283   4.624
15938WAT     H248057   8.519   1.258   4.502
15939WAT      O48058   5.705   1.513   3.182
15939WAT     H148059   5.721   1.414   3.175
15939WAT     H248060   5.661   1.533   3.269
15940WAT      O48061   7.783   2.780   9.252
15940WAT     H148062   7.779   2.880   9.254
15940WAT     H248063   7.692   2.744   9.271
15941WAT      O48064   2.460   0.267   8.892
15941WAT     H148065   2.378   0.257   8.949
15941WAT     H248066   2.486   0.364   8.887
15942WAT      O48067   7.231   5.509   7.311
15942WAT     H148068   7.169   5.585   7.331
15942WAT     H248069   7.235   5.495   7.213
15943WAT      O48070   2.571   9.620   3.770
15943WAT     H148071   2.500   9.688   3.749
15943WAT     H248072   2.654   9.642   3.719
15944WAT      O48073   3.924   1.344   1.221
15944WAT     H148074   3.868   1.410   1.172
15944WAT     H248075   3.942   1.265   1.162
15945WAT      O48076   2.615   7.903   3.913
15945WAT     H148077   2.663   7.849   3.983
15945WAT     H248078   2.590   7.843   3.837
15946WAT      O48079   2.266   6.964   0.704
15946WAT     H148080   2.189   6.982   0.643
15946WAT     H248081   2.267   6.866   0.727
15947WAT      O48082   0.636   9.634   3.552
15947WAT     H148083   0.644   9.588   3.464
15947WAT     H248084   0.721   9.623   3.603
15948WAT      O48085   8.389   1.650   3.539
15948WAT     H148086   8.400   1.550   3.536
15948WAT     H248087   8.411   1.689   3.450
15949WAT      O48088   5.704   3.791   8.516
15949WAT     H148089   5.610   3.818   8.495
15949WAT     H248090   5.716   3.790   8.616
15950WAT      O48091   0.920   4.436   1.404
15950WAT     H148092   0.916   4.403   1.310
15950WAT     H248093   0.867   4.375   1.463
15951WAT      O48094   8.330   7.689   9.249
15951WAT     H148095   8.309   7.717   9.343
15951WAT     H248096   8.374   7.765   9.201
15952WAT      O48097   5.496   4.236   4.045
15952WAT     H148098   5.574   4.202   3.994
15952WAT     H248099   5.476   4.175   4.122
15953WAT      O48100   3.884   4.070   2.524
15953WAT     H148101   3.929   4.047   2.438
15953WAT     H248102   3.801   4.122   2.506
15954WAT      O48103   8.818   9.605   8.832
15954WAT     H148104   8.722   9.603   8.804
15954WAT     H248105   8.851   9.700   8.833
15955WAT      O48106   4.567   0.543   5.548
15955WAT     H148107   4.566   0.597   5.632
15955WAT     H248108   4.653   0.559   5.499
15956WAT      O48109   8.680   3.253   7.322
15956WAT     H148110   8.635   3.301   7.397
15956WAT     H248111   8.778   3.273   7.325
15957WAT      O48112   7.173   2.154   8.968
15957WAT     H148113   7.170   2.165   9.067
15957WAT     H248114   7.266   2.171   8.935
15958WAT      O48115   9.661   5.373   4.310
15958WAT     H148116   9.609   5.389   4.227
15958WAT     H248117   9.698   5.459   4.345
15959WAT      O48118   2.630   9.603   2.305
15959WAT     H148119   2.617   9.518   2.356
15959WAT     H248120   2.594   9.680   2.358
15960WAT      O48121   8.036   2.167   7.066
15960WAT     H148122   8.088   2.204   6.990
15960WAT     H248123   7.944   2.143   7.035
15961WAT      O48124   5.444   0.646   5.323
15961WAT     H148125   5.356   0.631   5.278
15961WAT     H248126   5.492   0.721   5.277
15962WAT      O48127   9.129   2.389   8.616
15962WAT     H148128   9.175   2.448   8.550
15962WAT     H248129   9.198   2.335   8.666
15963WAT      O48130   2.251   2.745   5.017
15963WAT     H148131   2.293   2.817   4.961
15963WAT     H248132   2.313   2.667   5.023
15964WAT      O48133   8.040   0.134   4.946
15964WAT     H148134   8.003   0.062   4.888
15964WAT     H248135   8.132   0.108   4.976
15965WAT      O48136   7.463   8.268   6.487
15965WAT     H148137   7.413   8.209   6.550
15965WAT     H248138   7.523   8.212   6.430
15966WAT      O48139   7.101   8.424   4.165
15966WAT     H148140   7.172   8.466   4.109
15966WAT     H248141   7.055   8.495   4.218
15967WAT      O48142   8.424   7.250   0.573
15967WAT     H148143   8.506   7.211   0.533
15967WAT     H248144   8.422   7.349   0.555
15968WAT      O48145   5.437   6.163   5.621
15968WAT     H148146   5.419   6.067   5.596
15968WAT     H248147   5.535   6.178   5.629
15969WAT      O48148   3.587   9.404   1.564
15969WAT     H148149   3.646   9.482   1.544
15969WAT     H248150   3.593   9.338   1.489
15970WAT      O48151   6.528   2.641   9.741
15970WAT     H148152   6.546   2.740   9.746
15970WAT     H248153   6.476   2.614   9.823
15971WAT      O48154   4.845   2.637   8.890
15971WAT     H148155   4.884   2.715   8.841
15971WAT     H248156   4.914   2.566   8.901
15972WAT      O48157   8.457   2.828   8.707
15972WAT     H148158   8.526   2.891   8.670
15972WAT     H248159   8.434   2.854   8.800
15973WAT      O48160   9.385   7.550   2.914
15973WAT     H148161   9.403   7.497   2.997
15973WAT     H248162   9.314   7.505   2.860
15974WAT      O48163   1.979   8.927   8.932
15974WAT     H148164   1.922   8.950   8.853
15974WAT     H248165   2.003   9.011   8.981
15975WAT      O48166   1.621   8.768   3.168
15975WAT     H148167   1.652   8.795   3.259
15975WAT     H248168   1.526   8.796   3.156
15976WAT      O48169   5.505   1.307   7.410
15976WAT     H148170   5.494   1.290   7.508
15976WAT     H248171   5.416   1.327   7.370
15977WAT      O48172   3.458   9.531   3.379
15977WAT     H148173   3.367   9.524   3.337
15977WAT     H248174   3.461   9.476   3.463
15978WAT      O48175   7.380   3.952   6.641
15978WAT     H148176   7.438   3.950   6.722
15978WAT     H248177   7.436   3.932   6.560
15979WAT      O48178   8.386   6.723   6.680
15979WAT     H148179   8.319   6.657   6.646
15979WAT     H248180   8.363   6.748   6.774
15980WAT      O48181   3.842   5.340   5.335
15980WAT     H148182   3.781   5.303   5.265
15980WAT     H248183   3.801   5.422   5.376
15981WAT      O48184   6.507   1.053   4.093
15981WAT     H148185   6.606   1.040   4.100
15981WAT     H248186   6.487   1.121   4.023
15982WAT      O48187   5.371   0.553   9.440
15982WAT     H148188   5.358   0.465   9.485
15982WAT     H248189   5.390   0.538   9.343
15983WAT      O48190   9.002   1.388   1.446
15983WAT     H148191   8.945   1.322   1.397
15983WAT     H248192   9.098   1.372   1.424
15984WAT      O48193   5.828   8.761   5.533
15984WAT     H148194   5.899   8.766   5.463
15984WAT     H248195   5.741   8.733   5.491
15985WAT      O48196   3.944   5.970   4.712
15985WAT     H148197   3.919   5.882   4.752
15985WAT     H248198   4.041   5.988   4.729
15986WAT      O48199   3.176   8.396   2.516
15986WAT     H148200   3.272   8.420   2.527
15986WAT     H248201   3.147   8.335   2.590
15987WAT      O48202   4.664   5.514   8.499
15987WAT     H148203   4.733   5.527   8.427
15987WAT     H248204   4.704   5.539   8.587
15988WAT      O48205   7.668   4.921   5.954
15988WAT     H148206   7.625   4.959   6.036
15988WAT     H248207   7.768   4.925   5.964
15989WAT      O48208   5.681   5.695   9.739
15989WAT     H148209   5.687   5.600   9.771
15989WAT     H248210   5.740   5.753   9.795
15990WAT      O48211   0.285   2.104   2.502
15990WAT     H148212   0.316   2.060   2.586
15990WAT     H248213   0.268   2.201   2.519
15991WAT      O48214   5.276   6.435   2.280
15991WAT     H148215   5.275   6.373   2.358
15991WAT     H248216   5.369   6.442   2.243
15992WAT      O48217   4.711   8.786   4.425
15992WAT     H148218   4.626   8.785   4.479
15992WAT     H248219   4.710   8.710   4.360
15993WAT      O48220   1.303   2.080   6.928
15993WAT     H148221   1.324   2.177   6.936
15993WAT     H248222   1.237   2.067   6.854
15994WAT      O48223   7.122   1.977   0.106
15994WAT     H148224   7.070   1.945   0.185
15994WAT     H248225   7.184   1.904   0.075
15995WAT      O48226   0.331   1.869   1.777
15995WAT     H148227   0.379   1.783   1.761
15995WAT     H248228   0.387   1.945   1.744
15996WAT      O48229   4.138   8.068   8.618
15996WAT     H148230   4.117   8.024   8.530
15996WAT     H248231   4.207   8.014   8.666
15997WAT      O48232   2.729   2.543   9.592
15997WAT     H148233   2.782   2.461   9.611
15997WAT     H248234   2.784   2.608   9.540
15998WAT      O48235   9.089   7.255   8.759
15998WAT     H148236   9.001   7.298   8.738
15998WAT     H248237   9.156   7.326   8.782
15999WAT      O48238   5.185   9.003   7.490
15999WAT     H148239   5.152   8.910   7.510
15999WAT     H248240   5.239   9.036   7.567
16000WAT      O48241   6.600   3.849   7.640
16000WAT     H148242   6.626   3.928   7.696
16000WAT     H248243   6.683   3.806   7.603
16001WAT      O48244   3.884   5.426   7.012
16001WAT     H148245   3.812   5.389   6.953
16001WAT     H248246   3.972   5.420   6.965
16002WAT      O48247   9.102   7.265   0.089
16002WAT     H148248   9.161   7.195   0.050
16002WAT     H248249   9.105   7.259   0.189
16003WAT      O48250   0.120   1.385   7.809
16003WAT     H148251   0.111   1.432   7.898
16003WAT     H248252   0.104   1.451   7.736
16004WAT      O48253   0.745   9.418   4.489
16004WAT     H148254   0.651   9.451   4.498
16004WAT     H248255   0.807   9.483   4.532
16005WAT      O48256   3.810   6.407   4.892
16005WAT     H148257   3.711   6.394   4.903
16005WAT     H248258   3.857   6.324   4.921
16006WAT      O48259   6.187   0.345   6.868
16006WAT     H148260   6.143   0.418   6.816
16006WAT     H248261   6.266   0.382   6.917
16007WAT      O48262   1.476   1.677   9.777
16007WAT     H148263   1.498   1.596   9.723
16007WAT     H248264   1.554   1.701   9.834
16008WAT      O48265   9.451   3.869   0.109
16008WAT     H148266   9.383   3.811   0.154
16008WAT     H248267   9.491   3.932   0.176
16009WAT      O48268   8.339   6.376   0.196
16009WAT     H148269   8.240   6.359   0.192
16009WAT     H248270   8.366   6.431   0.117
16010WAT      O48271   1.260   5.395   1.085
16010WAT     H148272   1.348   5.383   1.039
16010WAT     H248273   1.269   5.461   1.160
16011WAT      O48274   8.650   6.863   4.630
16011WAT     H148275   8.702   6.895   4.709
16011WAT     H248276   8.574   6.925   4.613
16012WAT      O48277   4.722   0.183   4.987
16012WAT     H148278   4.759   0.273   4.962
16012WAT     H248279   4.676   0.190   5.076
16013WAT      O48280   2.332   7.463   7.856
16013WAT     H148281   2.266   7.536   7.870
16013WAT     H248282   2.418   7.487   7.900
16014WAT      O48283   1.407   9.028   4.356
16014WAT     H148284   1.478   9.098   4.356
16014WAT     H248285   1.318   9.070   4.343
16015WAT      O48286   8.012   0.554   2.679
16015WAT     H148287   8.070   0.539   2.599
16015WAT     H248288   8.028   0.645   2.715
16016WAT      O48289   5.820   1.249   5.720
16016WAT     H148290   5.741   1.201   5.681
16016WAT     H248291   5.885   1.270   5.648
16017WAT      O48292   0.634   1.833   6.640
16017WAT     H148293   0.666   1.806   6.549
16017WAT     H248294   0.671   1.770   6.708
16018WAT      O48295   3.210   6.839   4.881
16018WAT     H148296   3.286   6.826   4.819
16018WAT     H248297   3.124   6.830   4.830
16019WAT      O48298   7.008   1.328   2.763
16019WAT     H148299   6.985   1.397   2.695
16019WAT     H248300   7.091   1.356   2.812
16020WAT      O48301   8.235   9.506   4.664
16020WAT     H148302   8.203   9.414   4.640
16020WAT     H248303   8.198   9.572   4.598
16021WAT      O48304   6.580   3.180   4.630
16021WAT     H148305   6.662   3.211   4.678
16021WAT     H248306   6.499   3.205   4.683
16022WAT      O48307   2.511   8.934   2.344
16022WAT     H148308   2.481   8.852   2.394
16022WAT     H248309   2.465   9.015   2.382
16023WAT      O48310   4.625   6.553   0.695
16023WAT     H148311   4.562   6.475   0.690
16023WAT     H248312   4.575   6.637   0.675
16024WAT      O48313   7.985   5.518   8.137
16024WAT     H148314   7.891   5.496   8.161
16024WAT     H248315   7.999   5.617   8.144
16025WAT      O48316   9.848   4.259   6.634
16025WAT     H148317   9.897   4.211   6.706
16025WAT     H248318   9.815   4.194   6.566
16026WAT      O48319   3.832   1.752   7.575
16026WAT     H148320   3.820   1.773   7.672
16026WAT     H248321   3.916   1.794   7.542
16027WAT      O48322   8.737   6.157   3.505
16027WAT     H148323   8.784   6.244   3.488
16027WAT     H248324   8.647   6.159   3.462
16028WAT      O48325   3.361   6.139   6.736
16028WAT     H148326   3.439   6.174   6.684
16028WAT     H248327   3.296   6.095   6.674
16029WAT      O48328   8.853   2.036   8.626
16029WAT     H148329   8.878   1.954   8.573
16029WAT     H248330   8.855   2.014   8.723
16030WAT      O48331   2.670   2.963   7.831
16030WAT     H148332   2.708   3.056   7.825
16030WAT     H248333   2.701   2.920   7.916
16031WAT      O48334   1.905   4.513   7.226
16031WAT     H148335   1.920   4.478   7.133
16031WAT     H248336   1.993   4.530   7.270
16032WAT      O48337   6.168   6.053   4.338
16032WAT     H148338   6.183   5.957   4.316
16032WAT     H248339   6.251   6.105   4.319
16033WAT      O48340   7.368   9.064   2.455
16033WAT     H148341   7.269   9.074   2.471
16033WAT     H248342   7.416   9.069   2.543
16034WAT      O48343   9.776   8.345   8.064
16034WAT     H148344   9.780   8.347   7.965
16034WAT     H248345   9.758   8.438   8.098
16035WAT      O48346   7.886   2.948   5.996
16035WAT     H148347   7.908   3.028   5.940
16035WAT     H248348   7.840   2.977   6.080
16036WAT      O48349   0.400   9.740   1.147
16036WAT     H148350   0.309   9.756   1.110
16036WAT     H248351   0.463   9.809   1.111
16037WAT      O48352   5.728   3.292   0.042
16037WAT     H148353   5.746   3.337   0.130
16037WAT     H248354   5.771   3.344  -0.031
16038WAT      O48355   3.913   7.849   3.767
16038WAT     H148356   3.835   7.906   3.793
16038WAT     H248357   3.881   7.769   3.717
16039WAT      O48358   6.675   0.006   9.524
16039WAT     H148359   6.749  -0.052   9.557
16039WAT     H248360   6.661   0.083   9.587
16040WAT      O48361   9.857   8.361   8.997
16040WAT     H148362   9.863   8.365   9.097
16040WAT     H248363   9.909   8.282   8.964
16041WAT      O48364   2.039   2.104   2.170
16041WAT     H148365   2.066   2.045   2.093
16041WAT     H248366   1.959   2.066   2.215
16042WAT      O48367   6.030   9.028   7.859
16042WAT     H148368   6.095   9.098   7.828
16042WAT     H248369   5.937   9.058   7.839
16043WAT      O48370   8.817   6.162   0.748
16043WAT     H148371   8.786   6.083   0.695
16043WAT     H248372   8.886   6.212   0.696
16044WAT      O48373   9.030   6.149   8.255
16044WAT     H148374   9.112   6.205   8.249
16044WAT     H248375   9.050   6.056   8.226
16045WAT      O48376   0.172   5.118   8.437
16045WAT     H148377   0.161   5.182   8.361
16045WAT     H248378   0.203   5.030   8.401
16046WAT      O48379   4.671   3.319   0.612
16046WAT     H148380   4.673   3.308   0.513
16046WAT     H248381   4.667   3.416   0.635
16047WAT      O48382   2.582   9.771   6.869
16047WAT     H148383   2.624   9.801   6.783
16047WAT     H248384   2.498   9.719   6.849
16048WAT      O48385   2.622   9.425   9.619
16048WAT     H148386   2.579   9.471   9.541
16048WAT     H248387   2.561   9.432   9.699
16049WAT      O48388   9.623   4.761   8.720
16049WAT     H148389   9.530   4.750   8.756
16049WAT     H248390   9.636   4.698   8.643
16050WAT      O48391   6.275   2.330   3.804
16050WAT     H148392   6.350   2.355   3.865
16050WAT     H248393   6.269   2.398   3.730
16051WAT      O48394   5.393   1.005   7.989
16051WAT     H148395   5.356   0.914   8.008
16051WAT     H248396   5.468   0.998   7.923
16052WAT      O48397   4.573   2.438   2.406
16052WAT     H148398   4.668   2.468   2.404
16052WAT     H248399   4.567   2.348   2.450
16053WAT      O48400   5.636   4.492   4.378
16053WAT     H148401   5.706   4.424   4.360
16053WAT     H248402   5.676   4.584   4.376
16054WAT      O48403   8.077   2.540   6.132
16054WAT     H148404   8.099   2.444   6.147
16054WAT     H248405   8.082   2.562   6.035
16055WAT      O48406   8.502   4.585   4.086
16055WAT     H148407   8.484   4.512   4.152
16055WAT     H248408   8.531   4.545   3.999
16056WAT      O48409   5.025   8.581   9.426
16056WAT     H148410   5.057   8.590   9.332
16056WAT     H248411   5.100   8.601   9.489
16057WAT      O48412   7.543   8.055   5.503
16057WAT     H148413   7.506   8.011   5.421
16057WAT     H248414   7.467   8.083   5.562
16058WAT      O48415   1.322   6.792   6.964
16058WAT     H148416   1.417   6.766   6.984
16058WAT     H248417   1.265   6.766   7.042
16059WAT      O48418   6.197   6.611   4.049
16059WAT     H148419   6.103   6.645   4.045
16059WAT     H248420   6.256   6.670   3.993
16060WAT      O48421   0.037   9.594   9.810
16060WAT     H148422  -0.031   9.668   9.814
16060WAT     H248423   0.066   9.570   9.902
16061WAT      O48424   7.704   0.458   8.361
16061WAT     H148425   7.683   0.384   8.425
16061WAT     H248426   7.625   0.519   8.352
16062WAT      O48427   0.433   1.834   0.405
16062WAT     H148428   0.434   1.809   0.502
16062WAT     H248429   0.389   1.923   0.393
16063WAT      O48430   4.723   9.568   8.491
16063WAT     H148431   4.811   9.521   8.486
16063WAT     H248432   4.650   9.502   8.512
16064WAT      O48433   9.251   7.495   8.761
16064WAT     H148434   9.225   7.582   8.801
16064WAT     H248435   9.247   7.502   8.661
16065WAT      O48436   4.379   0.104   2.943
16065WAT     H148437   4.417   0.092   3.035
16065WAT     H248438   4.439   0.163   2.890
16066WAT      O48439   9.370   4.382   2.366
16066WAT     H148440   9.320   4.468   2.380
16066WAT     H248441   9.468   4.400   2.367
16067WAT      O48442   7.809   0.276   9.740
16067WAT     H148443   7.895   0.292   9.690
16067WAT     H248444   7.753   0.358   9.738
16068WAT      O48445   4.943   5.600   0.166
16068WAT     H148446   5.034   5.626   0.132
16068WAT     H248447   4.951   5.564   0.259
16069WAT      O48448   6.312   3.320   0.606
16069WAT     H148449   6.259   3.396   0.569
16069WAT     H248450   6.395   3.356   0.650
16070WAT      O48451   4.659   4.375   0.414
16070WAT     H148452   4.714   4.298   0.446
16070WAT     H248453   4.673   4.453   0.475
16071WAT      O48454   8.789   6.905   1.726
16071WAT     H148455   8.880   6.904   1.766
16071WAT     H248456   8.794   6.935   1.631
16072WAT      O48457   0.861   1.264   2.377
16072WAT     H148458   0.950   1.299   2.404
16072WAT     H248459   0.868   1.224   2.285
16073WAT      O48460   0.205   1.671   5.612
16073WAT     H148461   0.198   1.578   5.577
16073WAT     H248462   0.296   1.686   5.649
16074WAT      O48463   9.779   6.840   5.918
16074WAT     H148464   9.707   6.903   5.889
16074WAT     H248465   9.770   6.822   6.016
16075WAT      O48466   4.973   7.515   6.841
16075WAT     H148467   5.039   7.590   6.846
16075WAT     H248468   5.010   7.434   6.887
16076WAT      O48469   6.387   5.573   3.135
16076WAT     H148470   6.460   5.514   3.169
16076WAT     H248471   6.388   5.660   3.184
16077WAT      O48472   6.127   8.233   4.849
16077WAT     H148473   6.075   8.242   4.764
16077WAT     H248474   6.135   8.323   4.892
16078WAT      O48475   8.892   9.545   1.919
16078WAT     H148476   8.950   9.465   1.903
16078WAT     H248477   8.938   9.627   1.884
16079WAT      O48478   3.910   3.799   2.321
16079WAT     H148479   3.982   3.869   2.319
16079WAT     H248480   3.949   3.711   2.292
16080WAT      O48481   2.972   2.675   2.202
16080WAT     H148482   3.009   2.704   2.113
16080WAT     H248483   3.021   2.722   2.275
16081WAT      O48484   9.575   8.188   8.214
16081WAT     H148485   9.539   8.203   8.305
16081WAT     H248486   9.653   8.249   8.198
16082WAT      O48487   5.671   7.500   8.894
16082WAT     H148488   5.699   7.482   8.800
16082WAT     H248489   5.749   7.486   8.955
16083WAT      O48490   6.620   2.388   9.857
16083WAT     H148491   6.573   2.330   9.790
16083WAT     H248492   6.641   2.476   9.816
16084WAT      O48493   5.800   1.419   3.482
16084WAT     H148494   5.719   1.447   3.431
16084WAT     H248495   5.787   1.438   3.579
16085WAT      O48496   7.400   5.787   7.092
16085WAT     H148497   7.300   5.791   7.104
16085WAT     H248498   7.421   5.794   6.994
16086WAT      O48499   9.894   5.653   6.257
16086WAT     H148500   9.818   5.610   6.208
16086WAT     H248501   9.880   5.752   6.259
16087WAT      O48502   0.541   9.007   2.917
16087WAT     H148503   0.581   8.980   2.829
16087WAT     H248504   0.601   8.979   2.991
16088WAT      O48505   9.682   5.483   5.126
16088WAT     H148506   9.623   5.459   5.049
16088WAT     H248507   9.764   5.424   5.124
16089WAT      O48508   8.787   6.461   2.277
16089WAT     H148509   8.783   6.534   2.345
16089WAT     H248510   8.701   6.412   2.275
16090WAT      O48511   4.040   5.833   4.448
16090WAT     H148512   4.055   5.830   4.547
16090WAT     H248513   4.001   5.745   4.418
16091WAT      O48514   6.425   2.267   4.187
16091WAT     H148515   6.479   2.255   4.103
16091WAT     H248516   6.328   2.276   4.163
16092WAT      O48517   1.359   6.863   9.291
16092WAT     H148518   1.298   6.937   9.320
16092WAT     H248519   1.358   6.790   9.359
16093WAT      O48520   4.164   2.564   3.978
16093WAT     H148521   4.099   2.555   3.902
16093WAT     H248522   4.121   2.531   4.062
16094WAT      O48523   1.136   3.614   1.725
16094WAT     H148524   1.210   3.634   1.661
16094WAT     H248525   1.164   3.542   1.788
16095WAT      O48526   9.608   3.709   0.901
16095WAT     H148527   9.553   3.790   0.881
16095WAT     H248528   9.656   3.721   0.988
16096WAT      O48529   1.470   0.025   1.941
16096WAT     H148530   1.401  -0.002   1.874
16096WAT     H248531   1.560   0.028   1.898
16097WAT      O48532   0.982   0.717   0.802
16097WAT     H148533   0.892   0.751   0.827
16097WAT     H248534   1.041   0.715   0.884
16098WAT      O48535   2.888   9.741   0.165
16098WAT     H148536   2.925   9.654   0.199
16098WAT     H248537   2.921   9.815   0.223
16099WAT      O48538   6.490   8.329   6.312
16099WAT     H148539   6.532   8.364   6.229
16099WAT     H248540   6.395   8.360   6.318
16100WAT      O48541   6.317   4.115   0.493
16100WAT     H148542   6.328   4.035   0.435
16100WAT     H248543   6.372   4.190   0.457
16101WAT      O48544   8.163   9.565   2.384
16101WAT     H148545   8.156   9.582   2.286
16101WAT     H248546   8.131   9.472   2.404
16102WAT      O48547   8.985   7.865   9.786
16102WAT     H148548   8.960   7.771   9.761
16102WAT     H248549   8.916   7.902   9.847
16103WAT      O48550   1.799   3.533   4.809
16103WAT     H148551   1.802   3.434   4.822
16103WAT     H248552   1.846   3.578   4.885
16104WAT      O48553   5.488   7.334   0.793
16104WAT     H148554   5.487   7.237   0.815
16104WAT     H248555   5.404   7.377   0.828
16105WAT      O48556   6.176   6.780   7.738
16105WAT     H148557   6.216   6.690   7.727
16105WAT     H248558   6.243   6.851   7.715
16106WAT      O48559   9.060   3.951   4.610
16106WAT     H148560   9.155   3.966   4.584
16106WAT     H248561   9.052   3.952   4.710
16107WAT      O48562   5.452   4.200   5.622
16107WAT     H148563   5.526   4.262   5.596
16107WAT     H248564   5.413   4.229   5.709
16108WAT      O48565   4.626   3.539   3.924
16108WAT     H148566   4.533   3.535   3.887
16108WAT     H248567   4.691   3.510   3.853
16109WAT      O48568   7.306   7.340   2.220
16109WAT     H148569   7.387   7.399   2.229
16109WAT     H248570   7.279   7.336   2.124
16110WAT      O48571   2.185   4.956   5.657
16110WAT     H148572   2.237   5.040   5.673
16110WAT     H248573   2.239   4.893   5.601
16111WAT      O48574   2.003   7.386   8.635
16111WAT     H148575   1.924   7.335   8.668
16111WAT     H248576   2.068   7.322   8.592
16112WAT      O48577   2.022   8.298   8.421
16112WAT     H148578   2.090   8.368   8.440
16112WAT     H248579   2.033   8.222   8.486
16113WAT      O48580   9.369   6.870   5.897
16113WAT     H148581   9.287   6.864   5.839
16113WAT     H248582   9.438   6.807   5.863
16114WAT      O48583   6.544   8.959   3.335
16114WAT     H148584   6.509   9.050   3.313
16114WAT     H248585   6.642   8.964   3.354
16115WAT      O48586   1.516   0.318   4.708
16115WAT     H148587   1.445   0.275   4.764
16115WAT     H248588   1.509   0.285   4.614
16116WAT      O48589   1.803   8.322   5.895
16116WAT     H148590   1.714   8.288   5.866
16116WAT     H248591   1.875   8.271   5.848
16117WAT      O48592   6.518   8.242   0.018
16117WAT     H148593   6.419   8.241   0.029
16117WAT     H248594   6.560   8.288   0.097
16118WAT      O48595   6.695   7.811   6.466
16118WAT     H148596   6.657   7.884   6.410
16118WAT     H248597   6.748   7.851   6.541
16119WAT      O48598   6.920   9.617   3.535
16119WAT     H148599   6.935   9.526   3.573
16119WAT     H248600   6.868   9.609   3.450
16120WAT      O48601   2.568   8.975   6.749
16120WAT     H148602   2.511   9.027   6.813
16120WAT     H248603   2.568   8.878   6.775
16121WAT      O48604   1.451   1.185   9.176
16121WAT     H148605   1.502   1.107   9.139
16121WAT     H248606   1.440   1.254   9.104
16122WAT      O48607   9.236   4.722   3.495
16122WAT     H148608   9.334   4.708   3.484
16122WAT     H248609   9.205   4.794   3.433
16123WAT      O48610   0.538   9.183   5.411
16123WAT     H148611   0.630   9.198   5.375
16123WAT     H248612   0.509   9.263   5.464
16124WAT      O48613   3.321   1.928   5.394
16124WAT     H148614   3.333   2.010   5.338
16124WAT     H248615   3.390   1.927   5.466
16125WAT      O48616   4.520   2.109   8.418
16125WAT     H148617   4.460   2.100   8.339
16125WAT     H248618   4.509   2.030   8.478
16126WAT      O48619   4.864   7.332   7.318
16126WAT     H148620   4.801   7.290   7.252
16126WAT     H248621   4.811   7.376   7.390
16127WAT      O48622   5.708   7.835   9.071
16127WAT     H148623   5.654   7.904   9.118
16127WAT     H248624   5.721   7.756   9.131
16128WAT      O48625   1.299   1.134   9.817
16128WAT     H148626   1.341   1.132   9.727
16128WAT     H248627   1.355   1.191   9.878
16129WAT      O48628   6.627   6.966   6.253
16129WAT     H148629   6.666   7.020   6.327
16129WAT     H248630   6.594   6.878   6.290
16130WAT      O48631   1.128   9.806   3.282
16130WAT     H148632   1.080   9.718   3.279
16130WAT     H248633   1.150   9.829   3.377
16131WAT      O48634   8.446   0.789   6.128
16131WAT     H148635   8.439   0.887   6.109
16131WAT     H248636   8.535   0.755   6.097
16132WAT      O48637   6.223   7.569   2.144
16132WAT     H148638   6.206   7.486   2.091
16132WAT     H248639   6.255   7.642   2.082
16133WAT      O48640   2.816   2.231   5.895
16133WAT     H148641   2.819   2.221   5.994
16133WAT     H248642   2.866   2.313   5.868
16134WAT      O48643   1.754   5.769   8.148
16134WAT     H148644   1.739   5.679   8.107
16134WAT     H248645   1.673   5.795   8.202
16135WAT      O48646   6.024   0.737   4.841
16135WAT     H148647   5.988   0.796   4.914
16135WAT     H248648   6.054   0.650   4.880
16136WAT      O48649   1.961   0.947   0.193
16136WAT     H148650   1.869   0.936   0.156
16136WAT     H248651   1.956   0.972   0.289
16137WAT      O48652   4.290   8.419   4.202
16137WAT     H148653   4.266   8.337   4.149
16137WAT     H248654   4.381   8.407   4.243
16138WAT      O48655   9.606   1.496   0.422
16138WAT     H148656   9.618   1.505   0.323
16138WAT     H248657   9.523   1.442   0.441
16139WAT      O48658   0.350   3.141   7.637
16139WAT     H148659   0.387   3.189   7.717
16139WAT     H248660   0.386   3.047   7.635
16140WAT      O48661   2.616   0.104   4.810
16140WAT     H148662   2.690   0.097   4.744
16140WAT     H248663   2.644   0.064   4.897
16141WAT      O48664   1.000   0.456   4.611
16141WAT     H148665   1.027   0.388   4.543
16141WAT     H248666   0.939   0.414   4.678
16142WAT      O48667   7.642   6.161   7.945
16142WAT     H148668   7.589   6.155   8.030
16142WAT     H248669   7.728   6.112   7.956
16143WAT      O48670   4.532   6.839   1.553
16143WAT     H148671   4.439   6.852   1.588
16143WAT     H248672   4.562   6.923   1.508
16144WAT      O48673   1.396   3.377   0.241
16144WAT     H148674   1.337   3.346   0.166
16144WAT     H248675   1.340   3.400   0.320
16145WAT      O48676   5.223   0.385   9.076
16145WAT     H148677   5.232   0.309   9.011
16145WAT     H248678   5.214   0.470   9.025
16146WAT      O48679   8.131   7.539   7.811
16146WAT     H148680   8.204   7.546   7.742
16146WAT     H248681   8.155   7.594   7.890
16147WAT      O48682   6.559   6.801   5.280
16147WAT     H148683   6.625   6.774   5.210
16147WAT     H248684   6.584   6.760   5.368
16148WAT      O48685   6.367   6.956   1.935
16148WAT     H148686   6.386   6.926   2.029
16148WAT     H248687   6.378   6.879   1.873
16149WAT      O48688   9.348   6.993   2.274
16149WAT     H148689   9.435   7.033   2.244
16149WAT     H248690   9.280   7.002   2.202
16150WAT      O48691   6.790   4.139   1.317
16150WAT     H148692   6.881   4.116   1.284
16150WAT     H248693   6.723   4.127   1.243
16151WAT      O48694   3.451   6.658   5.409
16151WAT     H148695   3.546   6.660   5.438
16151WAT     H248696   3.394   6.706   5.477
16152WAT      O48697   4.744   9.068   3.438
16152WAT     H148698   4.678   9.016   3.383
16152WAT     H248699   4.787   9.008   3.505
16153WAT      O48700   1.200   4.490   1.798
16153WAT     H148701   1.156   4.460   1.713
16153WAT     H248702   1.224   4.586   1.790
16154WAT      O48703   9.115   1.860   5.618
16154WAT     H148704   9.071   1.921   5.684
16154WAT     H248705   9.092   1.765   5.640
16155WAT      O48706   5.066   8.603   2.401
16155WAT     H148707   5.131   8.643   2.466
16155WAT     H248708   5.109   8.594   2.311
16156WAT      O48709   6.243   3.603   6.778
16156WAT     H148710   6.263   3.697   6.749
16156WAT     H248711   6.230   3.546   6.697
16157WAT      O48712   8.497   6.780   7.789
16157WAT     H148713   8.500   6.877   7.763
16157WAT     H248714   8.546   6.768   7.875
16158WAT      O48715   7.851   6.019   5.783
16158WAT     H148716   7.757   6.049   5.765
16158WAT     H248717   7.849   5.942   5.848
16159WAT      O48718   2.185   6.221   3.249
16159WAT     H148719   2.201   6.144   3.310
16159WAT     H248720   2.154   6.188   3.160
16160WAT      O48721   3.358   1.399   7.428
16160WAT     H148722   3.402   1.469   7.373
16160WAT     H248723   3.382   1.309   7.393
16161WAT      O48724   7.888   6.301   3.249
16161WAT     H148725   7.875   6.343   3.339
16161WAT     H248726   7.892   6.372   3.179
16162WAT      O48727   8.014   9.541   6.743
16162WAT     H148728   8.081   9.524   6.816
16162WAT     H248729   7.960   9.622   6.766
16163WAT      O48730   9.855   8.220   1.387
16163WAT     H148731   9.847   8.245   1.484
16163WAT     H248732   9.860   8.121   1.378
16164WAT      O48733   2.921   5.115   0.717
16164WAT     H148734   2.863   5.085   0.640
16164WAT     H248735   2.863   5.133   0.796
16165WAT      O48736   4.545   0.389   0.032
16165WAT     H148737   4.533   0.475   0.081
16165WAT     H248738   4.568   0.317   0.096
16166WAT      O48739   1.837   4.693   4.973
16166WAT     H148740   1.791   4.753   5.038
16166WAT     H248741   1.922   4.660   5.012
16167WAT      O48742   9.453   3.040   8.607
16167WAT     H148743   9.377   2.986   8.644
16167WAT     H248744   9.533   3.028   8.666
16168WAT      O48745   5.684   1.356   1.979
16168WAT     H148746   5.588   1.384   1.987
16168WAT     H248747   5.727   1.407   1.904
16169WAT      O48748   2.227   1.828   9.888
16169WAT     H148749   2.210   1.902   9.822
16169WAT     H248750   2.324   1.803   9.887
16170WAT      O48751   1.692   2.932   4.639
16170WAT     H148752   1.695   3.028   4.666
16170WAT     H248753   1.703   2.874   4.719
16171WAT      O48754   8.454   1.753   6.070
16171WAT     H148755   8.519   1.677   6.062
16171WAT     H248756   8.491   1.833   6.023
16172WAT      O48757   5.559   5.465   0.329
16172WAT     H148758   5.538   5.401   0.403
16172WAT     H248759   5.615   5.418   0.260
16173WAT      O48760   0.430   7.595   5.095
16173WAT     H148761   0.482   7.681   5.092
16173WAT     H248762   0.489   7.519   5.068
16174WAT      O48763   6.995   6.479   3.750
16174WAT     H148764   7.014   6.383   3.730
16174WAT     H248765   6.935   6.516   3.680
16175WAT      O48766   9.691   1.117  -0.003
16175WAT     H148767   9.716   1.125   0.094
16175WAT     H248768   9.686   1.021  -0.029
16176WAT      O48769   4.606   0.316   6.555
16176WAT     H148770   4.693   0.359   6.578
16176WAT     H248771   4.565   0.364   6.477
16177WAT      O48772   1.698   2.715   5.345
16177WAT     H148773   1.635   2.745   5.416
16177WAT     H248774   1.732   2.795   5.294
16178WAT      O48775   7.153   9.527   9.278
16178WAT     H148776   7.170   9.618   9.240
16178WAT     H248777   7.219   9.462   9.240
16179WAT      O48778   5.913   9.368   1.558
16179WAT     H148779   5.987   9.335   1.617
16179WAT     H248780   5.886   9.295   1.495
16180WAT      O48781   8.438   1.114   8.469
16180WAT     H148782   8.378   1.061   8.529
16180WAT     H248783   8.406   1.208   8.464
16181WAT      O48784   6.545   8.815   3.595
16181WAT     H148785   6.639   8.822   3.628
16181WAT     H248786   6.540   8.850   3.502
16182WAT      O48787   1.814   6.758   7.828
16182WAT     H148788   1.883   6.818   7.786
16182WAT     H248789   1.782   6.800   7.913
16183WAT      O48790   1.982   1.281   4.898
16183WAT     H148791   1.923   1.359   4.916
16183WAT     H248792   1.973   1.213   4.972
16184WAT      O48793   0.821   8.503   3.267
16184WAT     H148794   0.855   8.455   3.348
16184WAT     H248795   0.893   8.562   3.231
16185WAT      O48796   2.457   9.751   9.259
16185WAT     H148797   2.497   9.821   9.199
16185WAT     H248798   2.375   9.787   9.303
16186WAT      O48799   2.068   8.081   0.711
16186WAT     H148800   2.015   8.055   0.792
16186WAT     H248801   2.015   8.060   0.629
16187WAT      O48802   9.828   3.941   7.451
16187WAT     H148803   9.808   3.849   7.418
16187WAT     H248804   9.925   3.949   7.473
16188WAT      O48805   3.518   4.253   3.834
16188WAT     H148806   3.520   4.346   3.797
16188WAT     H248807   3.601   4.237   3.888
16189WAT      O48808   6.437   6.120   5.798
16189WAT     H148809   6.449   6.143   5.894
16189WAT     H248810   6.504   6.050   5.771
16190WAT      O48811   2.601   1.474   3.039
16190WAT     H148812   2.595   1.403   2.969
16190WAT     H248813   2.615   1.563   2.996
16191WAT      O48814   5.573   0.278   5.145
16191WAT     H148815   5.632   0.209   5.103
16191WAT     H248816   5.622   0.365   5.152
16192WAT      O48817   6.053   7.524   0.647
16192WAT     H148818   6.009   7.439   0.617
16192WAT     H248819   6.137   7.502   0.697
16193WAT      O48820   2.043   5.095   1.788
16193WAT     H148821   2.099   5.090   1.870
16193WAT     H248822   2.026   5.191   1.765
16194WAT      O48823   6.592   7.576   7.295
16194WAT     H148824   6.645   7.517   7.356
16194WAT     H248825   6.494   7.555   7.305
16195WAT      O48826   9.245   1.068   8.060
16195WAT     H148827   9.193   1.153   8.058
16195WAT     H248828   9.326   1.077   8.004
16196WAT      O48829   9.359   6.649   0.747
16196WAT     H148830   9.283   6.608   0.797
16196WAT     H248831   9.361   6.613   0.654
16197WAT      O48832   3.927   7.220   7.188
16197WAT     H148833   3.988   7.151   7.225
16197WAT     H248834   3.833   7.199   7.215
16198WAT      O48835   7.773   9.097   3.103
16198WAT     H148836   7.752   9.026   3.170
16198WAT     H248837   7.833   9.165   3.144
16199WAT      O48838   8.346   3.890   4.673
16199WAT     H148839   8.332   3.874   4.771
16199WAT     H248840   8.297   3.821   4.620
16200WAT      O48841   0.661   0.838   5.256
16200WAT     H148842   0.640   0.824   5.352
16200WAT     H248843   0.597   0.785   5.200
16201WAT      O48844   9.814   3.285   5.876
16201WAT     H148845   9.818   3.241   5.965
16201WAT     H248846   9.907   3.306   5.845
16202WAT      O48847   1.402   5.817   2.653
16202WAT     H148848   1.321   5.801   2.596
16202WAT     H248849   1.374   5.855   2.741
16203WAT      O48850   8.375   2.409   9.282
16203WAT     H148851   8.350   2.456   9.198
16203WAT     H248852   8.323   2.324   9.289
16204WAT      O48853   6.488   3.563   2.017
16204WAT     H148854   6.542   3.608   1.945
16204WAT     H248855   6.442   3.633   2.072
16205WAT      O48856   3.123   5.035   9.662
16205WAT     H148857   3.040   5.090   9.652
16205WAT     H248858   3.188   5.083   9.722
16206WAT      O48859   0.967   3.417   2.555
16206WAT     H148860   0.918   3.418   2.468
16206WAT     H248861   0.998   3.510   2.577
16207WAT      O48862   4.618   7.868   8.199
16207WAT     H148863   4.598   7.816   8.116
16207WAT     H248864   4.715   7.857   8.223
16208WAT      O48865   4.245   0.809   5.606
16208WAT     H148866   4.192   0.832   5.688
16208WAT     H248867   4.336   0.850   5.612
16209WAT      O48868   9.758   8.460   2.608
16209WAT     H148869   9.797   8.391   2.547
16209WAT     H248870   9.717   8.533   2.553
16210WAT      O48871   1.708   9.206   3.944
16210WAT     H148872   1.791   9.260   3.930
16210WAT     H248873   1.722   9.144   4.021
16211WAT      O48874   6.084   3.944   8.715
16211WAT     H148875   6.009   3.958   8.649
16211WAT     H248876   6.135   4.029   8.725
16212WAT      O48877   0.119   0.640   7.798
16212WAT     H148878   0.161   0.550   7.786
16212WAT     H248879   0.022   0.635   7.776
16213WAT      O48880   0.791   7.495   3.630
16213WAT     H148881   0.791   7.553   3.711
16213WAT     H248882   0.827   7.405   3.653
16214WAT      O48883   5.752   0.203   9.030
16214WAT     H148884   5.770   0.203   8.931
16214WAT     H248885   5.836   0.180   9.079
16215WAT      O48886   4.772   9.255   6.538
16215WAT     H148887   4.841   9.245   6.466
16215WAT     H248888   4.816   9.284   6.623
16216WAT      O48889   0.972   6.042   2.316
16216WAT     H148890   1.050   5.989   2.281
16216WAT     H248891   0.922   6.081   2.239
16217WAT      O48892   6.082   3.716   5.938
16217WAT     H148893   6.136   3.800   5.934
16217WAT     H248894   5.991   3.736   5.974
16218WAT      O48895   4.613   1.710   8.901
16218WAT     H148896   4.610   1.745   8.995
16218WAT     H248897   4.707   1.691   8.875
16219WAT      O48898   0.050   8.407   0.248
16219WAT     H148899  -0.030   8.371   0.296
16219WAT     H248900   0.129   8.348   0.264
16220WAT      O48901   5.826   3.197   4.206
16220WAT     H148902   5.811   3.165   4.300
16220WAT     H248903   5.781   3.135   4.142
16221WAT      O48904   0.440   1.809   1.346
16221WAT     H148905   0.491   1.732   1.384
16221WAT     H248906   0.467   1.894   1.392
16222WAT      O48907   1.889   0.772   2.543
16222WAT     H148908   1.930   0.700   2.488
16222WAT     H248909   1.806   0.806   2.498
16223WAT      O48910   2.125   9.159   9.068
16223WAT     H148911   2.075   9.141   9.152
16223WAT     H248912   2.215   9.196   9.089
16224WAT      O48913   7.072   1.646   9.553
16224WAT     H148914   7.044   1.625   9.460
16224WAT     H248915   7.162   1.606   9.571
16225WAT      O48916   4.835   5.856   6.024
16225WAT     H148917   4.850   5.954   6.012
16225WAT     H248918   4.748   5.840   6.070
16226WAT      O48919   7.548   7.893   3.695
16226WAT     H148920   7.577   7.800   3.715
16226WAT     H248921   7.626   7.946   3.662
16227WAT      O48922   3.190   2.696   4.661
16227WAT     H148923   3.097   2.733   4.655
16227WAT     H248924   3.247   2.739   4.590
16228WAT      O48925   7.815   8.082   8.550
16228WAT     H148926   7.858   8.066   8.461
16228WAT     H248927   7.776   8.174   8.552
16229WAT      O48928   7.499   3.239   0.141
16229WAT     H148929   7.426   3.177   0.111
16229WAT     H248930   7.562   3.190   0.202
16230WAT      O48931   8.426   6.339   6.952
16230WAT     H148932   8.378   6.314   6.867
16230WAT     H248933   8.523   6.319   6.943
16231WAT      O48934   7.042   5.230   4.458
16231WAT     H148935   7.079   5.157   4.516
16231WAT     H248936   7.031   5.197   4.365
16232WAT      O48937   1.519   4.683   3.782
16232WAT     H148938   1.487   4.743   3.709
16232WAT     H248939   1.619   4.691   3.790
16233WAT      O48940   3.340   0.097   3.072
16233WAT     H148941   3.390   0.080   3.157
16233WAT     H248942   3.379   0.042   2.998
16234WAT      O48943   9.171   9.309   2.148
16234WAT     H148944   9.075   9.303   2.175
16234WAT     H248945   9.219   9.227   2.177
16235WAT      O48946   5.690   3.001   4.013
16235WAT     H148947   5.648   2.926   4.064
16235WAT     H248948   5.789   2.994   4.018
16236WAT      O48949   1.109   8.555   3.510
16236WAT     H148950   1.190   8.504   3.480
16236WAT     H248951   1.129   8.653   3.507
16237WAT      O48952   3.331   4.266   5.993
16237WAT     H148953   3.386   4.288   5.913
16237WAT     H248954   3.283   4.180   5.978
16238WAT      O48955   7.148   5.154   8.180
16238WAT     H148956   7.083   5.193   8.244
16238WAT     H248957   7.101   5.091   8.118
16239WAT      O48958   6.965   9.523   5.077
16239WAT     H148959   7.049   9.507   5.129
16239WAT     H248960   6.985   9.520   4.979
16240WAT      O48961   9.805   8.177   7.302
16240WAT     H148962   9.867   8.193   7.380
16240WAT     H248963   9.857   8.136   7.227
16241WAT      O48964   3.653   8.859   8.854
16241WAT     H148965   3.707   8.912   8.788
16241WAT     H248966   3.623   8.773   8.811
16242WAT      O48967   5.302   7.794   1.375
16242WAT     H148968   5.369   7.733   1.417
16242WAT     H248969   5.273   7.756   1.287
16243WAT      O48970   2.706   7.773   7.909
16243WAT     H148971   2.752   7.856   7.942
16243WAT     H248972   2.689   7.782   7.811
16244WAT      O48973   7.683   7.164   6.501
16244WAT     H148974   7.687   7.187   6.404
16244WAT     H248975   7.605   7.104   6.517
16245WAT      O48976   2.558   1.016   2.744
16245WAT     H148977   2.548   1.001   2.646
16245WAT     H248978   2.650   0.988   2.773
16246WAT      O48979   5.553   5.066   8.187
16246WAT     H148980   5.491   4.989   8.198
16246WAT     H248981   5.530   5.116   8.104
16247WAT      O48982   5.918   4.170   3.707
16247WAT     H148983   5.917   4.266   3.679
16247WAT     H248984   5.914   4.164   3.807
16248WAT      O48985   7.304   7.189   2.647
16248WAT     H148986   7.216   7.194   2.599
16248WAT     H248987   7.348   7.279   2.646
16249WAT      O48988   7.311   8.797   8.825
16249WAT     H148989   7.351   8.807   8.734
16249WAT     H248990   7.384   8.795   8.893
16250WAT      O48991   8.988   5.793   9.760
16250WAT     H148992   8.919   5.821   9.827
16250WAT     H248993   8.949   5.721   9.701
16251WAT      O48994   3.442   5.343   6.789
16251WAT     H148995   3.520   5.402   6.771
16251WAT     H248996   3.452   5.301   6.879
16252WAT      O48997   6.574   0.386   3.551
16252WAT     H148998   6.644   0.436   3.500
16252WAT     H248999   6.547   0.440   3.631
16253WAT      O49000   8.849   2.250   0.112
16253WAT     H149001   8.896   2.274   0.027
16253WAT     H249002   8.859   2.325   0.177
16254WAT      O49003   2.842   3.946   6.291
16254WAT     H149004   2.747   3.977   6.291
16254WAT     H249005   2.904   4.024   6.285
16255WAT      O49006   4.951   7.706   1.364
16255WAT     H149007   4.982   7.799   1.387
16255WAT     H249008   4.852   7.706   1.355
16256WAT      O49009   6.429   6.894   3.658
16256WAT     H149010   6.377   6.878   3.574
16256WAT     H249011   6.526   6.903   3.636
16257WAT      O49012   4.978   4.963   0.677
16257WAT     H149013   4.887   4.969   0.634
16257WAT     H249014   5.047   4.995   0.612
16258WAT      O49015   1.982   9.228   5.383
16258WAT     H149016   1.898   9.269   5.419
16258WAT     H249017   2.003   9.267   5.294
16259WAT      O49018   3.345   8.314   9.098
16259WAT     H149019   3.282   8.332   9.174
16259WAT     H249020   3.316   8.366   9.017
16260WAT      O49021   3.992   6.781   9.072
16260WAT     H149022   3.964   6.697   9.119
16260WAT     H249023   3.945   6.786   8.984
16261WAT      O49024   2.479   1.138   9.052
16261WAT     H149025   2.437   1.067   8.997
16261WAT     H249026   2.508   1.099   9.140
16262WAT      O49027   6.732   6.865   0.422
16262WAT     H149028   6.687   6.800   0.361
16262WAT     H249029   6.807   6.909   0.374
16263WAT      O49030   0.376   6.718   5.143
16263WAT     H149031   0.444   6.646   5.125
16263WAT     H249032   0.294   6.701   5.089
16264WAT      O49033   7.894   7.078   5.129
16264WAT     H149034   7.877   7.155   5.190
16264WAT     H249035   7.874   6.993   5.178
16265WAT      O49036   5.771   9.705   5.141
16265WAT     H149037   5.743   9.720   5.236
16265WAT     H249038   5.853   9.648   5.139
16266WAT      O49039   7.097   0.273   0.632
16266WAT     H149040   7.135   0.364   0.614
16266WAT     H249041   7.001   0.282   0.658
16267WAT      O49042   5.460   8.294   5.412
16267WAT     H149043   5.526   8.325   5.481
16267WAT     H249044   5.493   8.209   5.371
16268WAT      O49045   0.327   3.968   0.250
16268WAT     H149046   0.261   3.981   0.324
16268WAT     H249047   0.334   3.871   0.228
16269WAT      O49048   8.572   6.170   3.133
16269WAT     H149049   8.626   6.227   3.071
16269WAT     H249050   8.507   6.116   3.080
16270WAT      O49051   9.186   4.874   3.972
16270WAT     H149052   9.259   4.835   3.916
16270WAT     H249053   9.099   4.829   3.950
16271WAT      O49054   2.291   5.308   3.330
16271WAT     H149055   2.366   5.248   3.355
16271WAT     H249056   2.297   5.332   3.233
16272WAT      O49057   2.464   1.762   0.092
16272WAT     H149058   2.512   1.848   0.082
16272WAT     H249059   2.530   1.686   0.090
16273WAT      O49060   7.315   9.701   3.477
16273WAT     H149061   7.304   9.781   3.418
16273WAT     H249062   7.250   9.705   3.553
16274WAT      O49063   7.113   1.326   0.188
16274WAT     H149064   7.202   1.336   0.144
16274WAT     H249065   7.067   1.415   0.192
16275WAT      O49066   5.798   1.551   8.275
16275WAT     H149067   5.853   1.585   8.351
16275WAT     H249068   5.707   1.526   8.308
16276WAT      O49069   2.389   4.511   7.045
16276WAT     H149070   2.466   4.549   7.095
16276WAT     H249071   2.391   4.543   6.950
16277WAT      O49072   8.942   4.701   7.060
16277WAT     H149073   8.862   4.759   7.047
16277WAT     H249074   8.988   4.687   6.972
16278WAT      O49075   9.173   6.899   1.616
16278WAT     H149076   9.187   6.822   1.678
16278WAT     H249077   9.261   6.936   1.588
16279WAT      O49078   8.106   6.452   4.548
16279WAT     H149079   8.048   6.396   4.488
16279WAT     H249080   8.052   6.528   4.585
16280WAT      O49081   5.290   7.250   8.450
16280WAT     H149082   5.242   7.335   8.474
16280WAT     H249083   5.377   7.272   8.407
16281WAT      O49084   0.286   0.839   1.109
16281WAT     H149085   0.265   0.743   1.127
16281WAT     H249086   0.384   0.849   1.092
16282WAT      O49087   7.517   4.532   1.433
16282WAT     H149088   7.535   4.629   1.450
16282WAT     H249089   7.573   4.477   1.495
16283WAT      O49090   1.438   0.926   5.865
16283WAT     H149091   1.354   0.975   5.844
16283WAT     H249092   1.515   0.989   5.864
16284WAT      O49093   7.533   8.744   8.187
16284WAT     H149094   7.564   8.793   8.268
16284WAT     H249095   7.487   8.808   8.125
16285WAT      O49096   1.115   5.284   9.679
16285WAT     H149097   1.020   5.288   9.712
16285WAT     H249098   1.116   5.296   9.580
16286WAT      O49099   6.460   2.982   7.626
16286WAT     H149100   6.465   3.073   7.585
16286WAT     H249101   6.418   2.919   7.560
16287WAT      O49102   3.797   7.616   3.154
16287WAT     H149103   3.827   7.669   3.075
16287WAT     H249104   3.698   7.626   3.164
16288WAT      O49105   1.724   7.392   2.076
16288WAT     H149106   1.648   7.362   2.019
16288WAT     H249107   1.689   7.430   2.162
16289WAT      O49108   0.933   5.017   9.563
16289WAT     H149109   0.925   5.078   9.484
16289WAT     H249110   0.870   5.047   9.635
16290WAT      O49111   1.757   6.093   9.721
16290WAT     H149112   1.722   6.128   9.808
16290WAT     H249113   1.831   6.028   9.738
16291WAT      O49114   6.510   2.022   0.507
16291WAT     H149115   6.471   2.083   0.439
16291WAT     H249116   6.498   2.062   0.598
16292WAT      O49117   7.554   2.682   0.093
16292WAT     H149118   7.557   2.781   0.077
16292WAT     H249119   7.611   2.660   0.172
16293WAT      O49120   2.669   0.316   6.976
16293WAT     H149121   2.681   0.380   6.900
16293WAT     H249122   2.590   0.257   6.958
16294WAT      O49123   6.799   9.292   5.142
16294WAT     H149124   6.836   9.383   5.124
16294WAT     H249125   6.712   9.300   5.190
16295WAT      O49126   1.004   8.400   2.028
16295WAT     H149127   1.090   8.422   1.984
16295WAT     H249128   0.953   8.485   2.045
16296WAT      O49129   2.348   0.356   8.224
16296WAT     H149130   2.365   0.381   8.320
16296WAT     H249131   2.308   0.435   8.176
16297WAT      O49132   8.253   4.295   9.703
16297WAT     H149133   8.277   4.311   9.608
16297WAT     H249134   8.154   4.284   9.711
16298WAT      O49135   5.528   0.374   4.634
16298WAT     H149136   5.506   0.364   4.537
16298WAT     H249137   5.506   0.288   4.681
16299WAT      O49138   7.394   5.058   8.120
16299WAT     H149139   7.302   5.090   8.145
16299WAT     H249140   7.429   4.999   8.192
16300WAT      O49141   4.378   2.413   3.289
16300WAT     H149142   4.368   2.376   3.197
16300WAT     H249143   4.425   2.345   3.347
16301WAT      O49144   2.496   8.664   9.541
16301WAT     H149145   2.584   8.620   9.562
16301WAT     H249146   2.479   8.658   9.443
16302WAT      O49147   3.956   0.876   9.007
16302WAT     H149148   3.909   0.883   9.095
16302WAT     H249149   4.018   0.797   9.009
16303WAT      O49150   6.916   5.112   9.341
16303WAT     H149151   6.919   5.084   9.437
16303WAT     H249152   6.870   5.200   9.333
16304WAT      O49153   9.727   2.282   9.825
16304WAT     H149154   9.730   2.193   9.868
16304WAT     H249155   9.758   2.274   9.730
16305WAT      O49156   0.936   0.411   2.928
16305WAT     H149157   0.919   0.449   2.837
16305WAT     H249158   0.857   0.430   2.987
16306WAT      O49159   8.774   0.563   2.108
16306WAT     H149160   8.701   0.631   2.112
16306WAT     H249161   8.737   0.474   2.083
16307WAT      O49162   8.506   7.845   9.100
16307WAT     H149163   8.511   7.900   9.184
16307WAT     H249164   8.507   7.906   9.021
16308WAT      O49165   5.525   4.237   0.864
16308WAT     H149166   5.604   4.263   0.921
16308WAT     H249167   5.508   4.307   0.796
16309WAT      O49168   9.285   9.558   1.787
16309WAT     H149169   9.360   9.582   1.725
16309WAT     H249170   9.239   9.641   1.817
16310WAT      O49171   0.476   2.536   5.787
16310WAT     H149172   0.509   2.616   5.838
16310WAT     H249173   0.554   2.484   5.752
16311WAT      O49174   8.004   7.968   5.726
16311WAT     H149175   8.068   7.966   5.649
16311WAT     H249176   7.914   7.999   5.694
16312WAT      O49177   8.778   6.952   6.847
16312WAT     H149178   8.866   6.910   6.823
16312WAT     H249179   8.720   6.955   6.766
16313WAT      O49180   7.356   8.310   6.789
16313WAT     H149181   7.282   8.250   6.818
16313WAT     H249182   7.329   8.361   6.707
16314WAT      O49183   6.884   3.413   3.083
16314WAT     H149184   6.848   3.356   3.157
16314WAT     H249185   6.981   3.391   3.070
16315WAT      O49186   1.961   3.638   1.643
16315WAT     H149187   2.038   3.683   1.597
16315WAT     H249188   1.993   3.593   1.726
16316WAT      O49189   8.133   8.194   4.554
16316WAT     H149190   8.095   8.261   4.490
16316WAT     H249191   8.059   8.155   4.609
16317WAT      O49192   6.467   1.612   3.003
16317WAT     H149193   6.520   1.528   2.989
16317WAT     H249194   6.467   1.635   3.101
16318WAT      O49195   6.617   6.276   3.035
16318WAT     H149196   6.670   6.195   3.010
16318WAT     H249197   6.520   6.251   3.040
16319WAT      O49198   1.652   0.091   5.753
16319WAT     H149199   1.574   0.104   5.813
16319WAT     H249200   1.639   0.007   5.699
16320WAT      O49201   1.218   3.168   7.935
16320WAT     H149202   1.198   3.100   8.006
16320WAT     H249203   1.315   3.164   7.911
16321WAT      O49204   6.843   1.817   6.725
16321WAT     H149205   6.885   1.744   6.778
16321WAT     H249206   6.748   1.828   6.753
16322WAT      O49207   7.732   3.017   9.624
16322WAT     H149208   7.814   2.959   9.632
16322WAT     H249209   7.746   3.101   9.675
16323WAT      O49210   9.207   1.507   0.563
16323WAT     H149211   9.195   1.425   0.506
16323WAT     H249212   9.279   1.490   0.630
16324WAT      O49213   0.450   6.698   6.287
16324WAT     H149214   0.547   6.672   6.288
16324WAT     H249215   0.401   6.646   6.357
16325WAT      O49216   8.361   1.637   1.669
16325WAT     H149217   8.411   1.696   1.733
16325WAT     H249218   8.317   1.693   1.599
16326WAT      O49219   1.708   6.078   0.779
16326WAT     H149220   1.656   6.157   0.811
16326WAT     H249221   1.654   6.029   0.710
16327WAT      O49222   4.054   4.194   5.662
16327WAT     H149223   4.153   4.209   5.666
16327WAT     H249224   4.029   4.120   5.724
16328WAT      O49225   2.941   0.987   0.983
16328WAT     H149226   2.977   0.930   0.909
16328WAT     H249227   2.841   0.984   0.982
16329WAT      O49228   8.201   4.464   6.889
16329WAT     H149229   8.298   4.448   6.870
16329WAT     H249230   8.191   4.521   6.971
16330WAT      O49231   6.054   1.495   2.985
16330WAT     H149232   5.999   1.421   2.946
16330WAT     H249233   6.151   1.476   2.969
16331WAT      O49234   4.786   0.871   4.127
16331WAT     H149235   4.868   0.899   4.177
16331WAT     H249236   4.740   0.798   4.177
16332WAT      O49237   9.704   9.729   7.233
16332WAT     H149238   9.711   9.782   7.148
16332WAT     H249239   9.733   9.786   7.310
16333WAT      O49240   9.263   2.001   8.195
16333WAT     H149241   9.316   1.986   8.279
16333WAT     H249242   9.269   2.098   8.170
16334WAT      O49243   7.522   0.521   5.343
16334WAT     H149244   7.618   0.550   5.340
16334WAT     H249245   7.465   0.593   5.303
16335WAT      O49246   1.837   3.951   3.462
16335WAT     H149247   1.897   4.028   3.445
16335WAT     H249248   1.777   3.972   3.540
16336WAT      O49249   1.382   3.451   2.811
16336WAT     H149250   1.371   3.357   2.778
16336WAT     H249251   1.446   3.452   2.888
16337WAT      O49252   9.621   2.929   4.977
16337WAT     H149253   9.549   2.975   5.028
16337WAT     H249254   9.706   2.982   4.985
16338WAT      O49255   8.062   8.648   4.225
16338WAT     H149256   8.140   8.623   4.167
16338WAT     H249257   7.980   8.657   4.169
16339WAT      O49258   6.025   1.616   0.989
16339WAT     H149259   6.068   1.527   0.971
16339WAT     H249260   5.977   1.647   0.908
16340WAT      O49261   1.162   6.569   2.827
16340WAT     H149262   1.171   6.488   2.884
16340WAT     H249263   1.162   6.651   2.884
16341WAT      O49264   5.773   9.063   8.051
16341WAT     H149265   5.696   9.123   8.027
16341WAT     H249266   5.801   9.081   8.145
16342WAT      O49267   4.442   8.049   7.619
16342WAT     H149268   4.437   8.024   7.716
16342WAT     H249269   4.490   8.136   7.609
16343WAT      O49270   4.518   7.581   8.489
16343WAT     H149271   4.520   7.642   8.568
16343WAT     H249272   4.470   7.497   8.512
16344WAT      O49273   5.717   3.684   2.001
16344WAT     H149274   5.672   3.723   2.082
16344WAT     H249275   5.813   3.711   2.000
16345WAT      O49276   8.673   4.382   4.965
16345WAT     H149277   8.718   4.352   5.049
16345WAT     H249278   8.575   4.391   4.982
16346WAT      O49279   2.178   1.919   7.458
16346WAT     H149280   2.202   2.015   7.469
16346WAT     H249281   2.081   1.911   7.432
16347WAT      O49282   4.967   3.100   2.094
16347WAT     H149283   5.045   3.043   2.117
16347WAT     H249284   4.941   3.155   2.173
16348WAT      O49285   2.646   1.565   0.029
16348WAT     H149286   2.724   1.541   0.087
16348WAT     H249287   2.646   1.508  -0.053
16349WAT      O49288   2.324   2.351   3.818
16349WAT     H149289   2.315   2.340   3.917
16349WAT     H249290   2.377   2.276   3.780
16350WAT      O49291   4.688   0.976   4.414
16350WAT     H149292   4.672   1.032   4.332
16350WAT     H249293   4.671   0.880   4.392
16351WAT      O49294   5.939   5.828   7.582
16351WAT     H149295   5.986   5.901   7.632
16351WAT     H249296   5.918   5.859   7.490
16352WAT      O49297   8.952   7.844   8.678
16352WAT     H149298   8.868   7.830   8.731
16352WAT     H249299   8.940   7.807   8.586
16353WAT      O49300   5.817   5.708   9.489
16353WAT     H149301   5.857   5.799   9.486
16353WAT     H249302   5.764   5.697   9.573
16354WAT      O49303   2.857   0.209   9.095
16354WAT     H149304   2.928   0.153   9.137
16354WAT     H249305   2.827   0.279   9.161
16355WAT      O49306   5.645   5.272   1.446
16355WAT     H149307   5.602   5.291   1.534
16355WAT     H249308   5.575   5.242   1.381
16356WAT      O49309   5.387   9.350   8.725
16356WAT     H149310   5.295   9.375   8.755
16356WAT     H249311   5.394   9.360   8.626
16357WAT      O49312   5.881   4.524   2.548
16357WAT     H149313   5.791   4.483   2.533
16357WAT     H249314   5.918   4.491   2.636
16358WAT      O49315   3.543   6.452   4.269
16358WAT     H149316   3.544   6.548   4.239
16358WAT     H249317   3.537   6.448   4.368
16359WAT      O49318   2.853   3.176   0.985
16359WAT     H149319   2.889   3.159   0.893
16359WAT     H249320   2.864   3.273   1.008
16360WAT      O49321   8.028   8.920   2.479
16360WAT     H149322   8.022   8.822   2.459
16360WAT     H249323   8.096   8.935   2.551
16361WAT      O49324   2.782   6.425   7.394
16361WAT     H149325   2.875   6.424   7.431
16361WAT     H249326   2.780   6.378   7.306
16362WAT      O49327   0.709   4.463   3.937
16362WAT     H149328   0.742   4.386   3.881
16362WAT     H249329   0.784   4.498   3.993
16363WAT      O49330   8.247   4.013   2.227
16363WAT     H149331   8.188   3.983   2.151
16363WAT     H249332   8.341   3.982   2.211
16364WAT      O49333   6.976   1.475   1.181
16364WAT     H149334   6.949   1.549   1.120
16364WAT     H249335   6.898   1.415   1.198
16365WAT      O49336   2.573   0.983   9.658
16365WAT     H149337   2.620   1.037   9.728
16365WAT     H249338   2.519   0.911   9.703
16366WAT      O49339   5.185   8.798   1.905
16366WAT     H149340   5.191   8.735   1.982
16366WAT     H249341   5.144   8.884   1.936
16367WAT      O49342   9.696   9.192   1.365
16367WAT     H149343   9.768   9.169   1.300
16367WAT     H249344   9.620   9.127   1.355
16368WAT      O49345   0.253   2.388   3.198
16368WAT     H149346   0.182   2.446   3.238
16368WAT     H249347   0.342   2.413   3.236
16369WAT      O49348   9.083   8.039   5.975
16369WAT     H149349   9.128   7.956   5.943
16369WAT     H249350   9.003   8.059   5.917
16370WAT      O49351   8.937   9.394   6.675
16370WAT     H149352   8.864   9.326   6.668
16370WAT     H249353   8.936   9.453   6.594
16371WAT      O49354   9.031   4.412   2.160
16371WAT     H149355   9.077   4.496   2.130
16371WAT     H249356   8.955   4.392   2.098
16372WAT      O49357  -0.000   6.312   8.485
16372WAT     H149358  -0.023   6.235   8.545
16372WAT     H249359   0.070   6.285   8.420
16373WAT      O49360   6.196   9.317   5.898
16373WAT     H149361   6.193   9.386   5.970
16373WAT     H249362   6.191   9.361   5.809
16374WAT      O49363   5.429   7.707   6.074
16374WAT     H149364   5.505   7.648   6.046
16374WAT     H249365   5.366   7.718   5.997
16375WAT      O49366   9.596   0.666   8.273
16375WAT     H149367   9.500   0.653   8.299
16375WAT     H249368   9.655   0.641   8.350
16376WAT      O49369   2.209   8.732   2.285
16376WAT     H149370   2.199   8.832   2.284
16376WAT     H249371   2.118   8.690   2.284
16377WAT      O49372   1.335   1.030   4.890
16377WAT     H149373   1.375   0.974   4.963
16377WAT     H249374   1.264   0.978   4.843
16378WAT      O49375   8.415   0.950   2.237
16378WAT     H149376   8.376   0.993   2.155
16378WAT     H249377   8.358   0.873   2.264
16379WAT      O49378   5.889   4.149   5.146
16379WAT     H149379   5.861   4.204   5.224
16379WAT     H249380   5.812   4.139   5.083
16380WAT      O49381   7.090   5.843   0.008
16380WAT     H149382   7.009   5.844  -0.050
16380WAT     H249383   7.072   5.788   0.090
16381WAT      O49384   5.152   3.135   5.109
16381WAT     H149385   5.224   3.070   5.134
16381WAT     H249386   5.160   3.216   5.167
16382WAT      O49387   7.351   6.152   6.333
16382WAT     H149388   7.432   6.201   6.302
16382WAT     H249389   7.374   6.056   6.350
16383WAT      O49390   5.457   9.735   0.055
16383WAT     H149391   5.550   9.765   0.078
16383WAT     H249392   5.420   9.680   0.130
16384WAT      O49393   8.489   5.926   9.773
16384WAT     H149394   8.535   6.013   9.753
16384WAT     H249395   8.455   5.886   9.688
16385WAT      O49396   3.503   4.567   8.772
16385WAT     H149397   3.517   4.666   8.770
16385WAT     H249398   3.405   4.548   8.774
16386WAT      O49399   4.659   0.575   4.621
16386WAT     H149400   4.636   0.661   4.667
16386WAT     H249401   4.591   0.506   4.645
16387WAT      O49402   6.031   6.607   5.945
16387WAT     H149403   5.936   6.616   5.914
16387WAT     H249404   6.069   6.520   5.915
16388WAT      O49405   0.010   1.776   6.401
16388WAT     H149406   0.088   1.795   6.342
16388WAT     H249407  -0.032   1.861   6.431
16389WAT      O49408   3.429   0.017   2.488
16389WAT     H149409   3.425   0.092   2.554
16389WAT     H249410   3.386   0.047   2.402
16390WAT      O49411   1.427   7.786   1.199
16390WAT     H149412   1.400   7.740   1.115
16390WAT     H249413   1.400   7.731   1.278
16391WAT      O49414   2.061   9.102   0.808
16391WAT     H149415   2.061   9.156   0.724
16391WAT     H249416   1.977   9.048   0.814
16392WAT      O49417   6.872   4.428   0.671
16392WAT     H149418   6.949   4.396   0.615
16392WAT     H249419   6.844   4.519   0.640
16393WAT      O49420   5.274   4.891   1.687
16393WAT     H149421   5.175   4.877   1.691
16393WAT     H249422   5.316   4.816   1.636
16394WAT      O49423   6.604   8.634   3.928
16394WAT     H149424   6.668   8.602   3.999
16394WAT     H249425   6.545   8.559   3.899
16395WAT      O49426   9.001   8.809   3.578
16395WAT     H149427   8.993   8.771   3.670
16395WAT     H249428   9.035   8.738   3.516
16396WAT      O49429   3.282   0.922   0.922
16396WAT     H149430   3.329   1.006   0.895
16396WAT     H249431   3.209   0.903   0.857
16397WAT      O49432   5.935   2.692   5.141
16397WAT     H149433   5.941   2.647   5.052
16397WAT     H249434   5.866   2.646   5.197
16398WAT      O49435   0.679   8.987   2.273
16398WAT     H149436   0.769   9.031   2.274
16398WAT     H249437   0.660   8.948   2.362
16399WAT      O49438   5.585   9.348   7.125
16399WAT     H149439   5.508   9.407   7.101
16399WAT     H249440   5.646   9.339   7.046
16400WAT      O49441   4.831   3.369   3.433
16400WAT     H149442   4.770   3.448   3.420
16400WAT     H249443   4.799   3.293   3.375
16401WAT      O49444   1.855   6.419   0.550
16401WAT     H149445   1.876   6.468   0.466
16401WAT     H249446   1.756   6.405   0.557
16402WAT      O49447   4.845   8.457   6.450
16402WAT     H149448   4.781   8.433   6.522
16402WAT     H249449   4.939   8.452   6.485
16403WAT      O49450   2.277   5.189   7.600
16403WAT     H149451   2.285   5.272   7.544
16403WAT     H249452   2.188   5.188   7.645
16404WAT      O49453   2.700   1.172   6.231
16404WAT     H149454   2.722   1.247   6.293
16404WAT     H249455   2.783   1.117   6.215
16405WAT      O49456   7.760   3.280   4.116
16405WAT     H149457   7.785   3.230   4.199
16405WAT     H249458   7.697   3.224   4.062
16406WAT      O49459   5.243   2.780   8.618
16406WAT     H149460   5.283   2.710   8.559
16406WAT     H249461   5.305   2.858   8.624
16407WAT      O49462   7.196   0.184   2.575
16407WAT     H149463   7.200   0.270   2.524
16407WAT     H249464   7.241   0.112   2.521
16408WAT      O49465   9.516   2.866   9.477
16408WAT     H149466   9.593   2.867   9.412
16408WAT     H249467   9.479   2.958   9.486
16409WAT      O49468   4.873   4.354   7.557
16409WAT     H149469   4.963   4.323   7.587
16409WAT     H249470   4.874   4.368   7.458
16410WAT      O49471   6.490   0.914   4.856
16410WAT     H149472   6.411   0.930   4.915
16410WAT     H249473   6.463   0.928   4.761
16411WAT      O49474   1.225   1.005   0.688
16411WAT     H149475   1.184   1.080   0.636
16411WAT     H249476   1.197   0.918   0.648
16412WAT      O49477   0.249   3.824   5.210
16412WAT     H149478   0.212   3.914   5.236
16412WAT     H249479   0.228   3.758   5.281
16413WAT      O49480   1.398   1.711   2.903
16413WAT     H149481   1.456   1.697   2.822
16413WAT     H249482   1.304   1.683   2.882
16414WAT      O49483   5.081   7.945   1.445
16414WAT     H149484   5.165   7.897   1.420
16414WAT     H249485   5.095   7.994   1.531
16415WAT      O49486   4.354   8.837   5.827
16415WAT     H149487   4.364   8.867   5.922
16415WAT     H249488   4.319   8.743   5.826
16416WAT      O49489   5.629   7.548   6.012
16416WAT     H149490   5.609   7.450   6.016
16416WAT     H249491   5.714   7.566   6.061
16417WAT      O49492   8.164   5.885   9.473
16417WAT     H149493   8.123   5.803   9.514
16417WAT     H249494   8.173   5.871   9.374
16418WAT      O49495   3.901   8.505   4.005
16418WAT     H149496   3.854   8.438   3.948
16418WAT     H249497   3.860   8.507   4.096
16419WAT      O49498   7.371   6.179   4.103
16419WAT     H149499   7.444   6.242   4.076
16419WAT     H249500   7.388   6.145   4.196
16420WAT      O49501   1.484   6.972   7.138
16420WAT     H149502   1.554   7.038   7.109
16420WAT     H249503   1.394   7.010   7.120
16421WAT      O49504   0.531   9.576   5.300
16421WAT     H149505   0.500   9.537   5.387
16421WAT     H249506   0.452   9.592   5.241
16422WAT      O49507   1.629   6.528   5.730
16422WAT     H149508   1.589   6.557   5.817
16422WAT     H249509   1.651   6.431   5.734
16423WAT      O49510   8.691   6.809   3.638
16423WAT     H149511   8.753   6.803   3.716
16423WAT     H249512   8.689   6.721   3.589
16424WAT      O49513   4.977   7.915   6.461
16424WAT     H149514   5.043   7.847   6.431
16424WAT     H249515   5.023   7.987   6.512
16425WAT      O49516   2.544   6.353   6.822
16425WAT     H149517   2.627   6.378   6.872
16425WAT     H249518   2.566   6.337   6.726
16426WAT      O49519   1.420   8.574   4.423
16426WAT     H149520   1.406   8.603   4.518
16426WAT     H249521   1.425   8.655   4.364
16427WAT      O49522   8.422   4.776   4.328
16427WAT     H149523   8.409   4.719   4.247
16427WAT     H249524   8.449   4.719   4.405
16428WAT      O49525   6.735   2.713   8.120
16428WAT     H149526   6.766   2.662   8.039
16428WAT     H249527   6.814   2.752   8.166
16429WAT      O49528   5.396   2.771   4.407
16429WAT     H149529   5.306   2.770   4.363
16429WAT     H249530   5.422   2.865   4.427
16430WAT      O49531   6.340   8.231   3.058
16430WAT     H149532   6.295   8.238   3.147
16430WAT     H249533   6.282   8.180   2.995
16431WAT      O49534   1.793   1.409   9.725
16431WAT     H149535   1.861   1.467   9.680
16431WAT     H249536   1.780   1.440   9.819
16432WAT      O49537   8.231   0.293   7.953
16432WAT     H149538   8.159   0.359   7.972
16432WAT     H249539   8.274   0.313   7.865
16433WAT      O49540   2.326   5.649   6.123
16433WAT     H149541   2.267   5.667   6.202
16433WAT     H249542   2.421   5.640   6.153
16434WAT      O49543   3.606   3.004   4.647
16434WAT     H149544   3.704   3.024   4.639
16434WAT     H249545   3.557   3.089   4.668
16435WAT      O49546   5.384   7.394   2.735
16435WAT     H149547   5.455   7.444   2.784
16435WAT     H249548   5.322   7.459   2.691
16436WAT      O49549   9.789   5.268   8.249
16436WAT     H149550   9.755   5.184   8.290
16436WAT     H249551   9.760   5.346   8.305
16437WAT      O49552   7.856   4.194   3.725
16437WAT     H149553   7.888   4.187   3.819
16437WAT     H249554   7.903   4.269   3.679
16438WAT      O49555   4.320   6.983   2.054
16438WAT     H149556   4.368   6.899   2.030
16438WAT     H249557   4.325   7.048   1.978
16439WAT      O49558   4.939   0.382   0.220
16439WAT     H149559   4.873   0.354   0.290
16439WAT     H249560   4.901   0.365   0.129
16440WAT      O49561   6.407   2.032   6.784
16440WAT     H149562   6.318   2.005   6.748
16440WAT     H249563   6.397   2.063   6.879
16441WAT      O49564   3.772   9.307   0.885
16441WAT     H149565   3.735   9.372   0.951
16441WAT     H249566   3.847   9.349   0.835
16442WAT      O49567   8.790   3.394   6.475
16442WAT     H149568   8.726   3.468   6.497
16442WAT     H249569   8.796   3.331   6.553
16443WAT      O49570   5.679   2.372   2.358
16443WAT     H149571   5.600   2.417   2.398
16443WAT     H249572   5.662   2.273   2.352
16444WAT      O49573   2.831   4.766   0.203
16444WAT     H149574   2.870   4.697   0.143
16444WAT     H249575   2.896   4.786   0.277
16445WAT      O49576   0.498   4.334   2.028
16445WAT     H149577   0.569   4.302   2.091
16445WAT     H249578   0.514   4.430   2.004
16446WAT      O49579   2.257   6.890   3.605
16446WAT     H149580   2.239   6.823   3.533
16446WAT     H249581   2.176   6.903   3.661
16447WAT      O49582   7.376   3.722   3.901
16447WAT     H149583   7.457   3.777   3.880
16447WAT     H249584   7.326   3.702   3.817
16448WAT      O49585   3.626   3.391   1.467
16448WAT     H149586   3.559   3.453   1.508
16448WAT     H249587   3.654   3.323   1.535
16449WAT      O49588   5.636   3.842   9.656
16449WAT     H149589   5.553   3.895   9.676
16449WAT     H249590   5.612   3.764   9.597
16450WAT      O49591   4.765   0.835   7.493
16450WAT     H149592   4.764   0.830   7.592
16450WAT     H249593   4.672   0.829   7.458
16451WAT      O49594   1.307   0.532   5.369
16451WAT     H149595   1.342   0.467   5.302
16451WAT     H249596   1.383   0.586   5.406
16452WAT      O49597   5.475   8.062   5.078
16452WAT     H149598   5.454   8.013   4.993
16452WAT     H249599   5.446   8.007   5.156
16453WAT      O49600   8.829   5.191   4.269
16453WAT     H149601   8.836   5.186   4.169
16453WAT     H249602   8.783   5.109   4.303
16454WAT      O49603   9.305   9.204   3.475
16454WAT     H149604   9.250   9.283   3.447
16454WAT     H249605   9.399   9.233   3.493
16455WAT      O49606   7.719   7.510   8.041
16455WAT     H149607   7.676   7.537   7.955
16455WAT     H249608   7.811   7.474   8.023
16456WAT      O49609   2.271   4.450   4.137
16456WAT     H149610   2.358   4.492   4.112
16456WAT     H249611   2.198   4.517   4.128
16457WAT      O49612   2.335   7.837   3.334
16457WAT     H149613   2.378   7.901   3.398
16457WAT     H249614   2.401   7.766   3.310
16458WAT      O49615   4.639   7.347   6.894
16458WAT     H149616   4.666   7.444   6.892
16458WAT     H249617   4.660   7.309   6.984
16459WAT      O49618   9.423   8.927   9.318
16459WAT     H149619   9.353   8.975   9.371
16459WAT     H249620   9.495   8.894   9.379
16460WAT      O49621   7.391   0.559   7.463
16460WAT     H149622   7.438   0.629   7.409
16460WAT     H249623   7.391   0.586   7.559
16461WAT      O49624   4.286   6.325   9.653
16461WAT     H149625   4.188   6.334   9.667
16461WAT     H249626   4.332   6.320   9.742
16462WAT      O49627   0.145   7.695   8.455
16462WAT     H149628   0.064   7.734   8.498
16462WAT     H249629   0.195   7.640   8.522
16463WAT      O49630   0.632   7.712   7.990
16463WAT     H149631   0.604   7.616   7.982
16463WAT     H249632   0.701   7.720   8.062
16464WAT      O49633   9.714   9.797   1.156
16464WAT     H149634   9.632   9.750   1.190
16464WAT     H249635   9.782   9.800   1.229
16465WAT      O49636   5.783   3.420   2.076
16465WAT     H149637   5.758   3.514   2.050
16465WAT     H249638   5.721   3.386   2.146
16466WAT      O49639   7.140   6.264   4.641
16466WAT     H149640   7.132   6.166   4.654
16466WAT     H249641   7.070   6.311   4.694
16467WAT      O49642   6.378   7.359   7.931
16467WAT     H149643   6.388   7.273   7.982
16467WAT     H249644   6.447   7.424   7.962
16468WAT      O49645   9.563   5.369   4.611
16468WAT     H149646   9.618   5.353   4.529
16468WAT     H249647   9.502   5.447   4.595
16469WAT      O49648   9.203   6.553   4.832
16469WAT     H149649   9.166   6.461   4.819
16469WAT     H249650   9.274   6.570   4.764
16470WAT      O49651   9.883   0.351   4.372
16470WAT     H149652   9.956   0.373   4.307
16470WAT     H249653   9.869   0.428   4.434
16471WAT      O49654   4.480   3.956   1.025
16471WAT     H149655   4.513   3.932   1.116
16471WAT     H249656   4.550   3.933   0.957
16472WAT      O49657   3.560   5.528   6.546
16472WAT     H149658   3.488   5.499   6.483
16472WAT     H249659   3.537   5.618   6.583
16473WAT      O49660   8.941   8.479   3.119
16473WAT     H149661   8.869   8.495   3.051
16473WAT     H249662   8.939   8.552   3.187
16474WAT      O49663   3.043   3.213   7.868
16474WAT     H149664   2.983   3.232   7.945
16474WAT     H249665   3.137   3.238   7.891
16475WAT      O49666   2.978   6.710   2.864
16475WAT     H149667   2.902   6.771   2.888
16475WAT     H249668   3.044   6.760   2.807
16476WAT      O49669   5.256   7.062   4.554
16476WAT     H149670   5.183   6.992   4.556
16476WAT     H249671   5.336   7.025   4.507
16477WAT      O49672   8.717   9.216   4.015
16477WAT     H149673   8.737   9.311   3.989
16477WAT     H249674   8.619   9.200   4.011
16478WAT      O49675   9.669   7.280   4.397
16478WAT     H149676   9.595   7.248   4.338
16478WAT     H249677   9.684   7.377   4.381
16479WAT      O49678   0.830   2.435   9.309
16479WAT     H149679   0.780   2.364   9.360
16479WAT     H249680   0.799   2.525   9.339
16480WAT      O49681   8.536   7.884   3.164
16480WAT     H149682   8.580   7.945   3.230
16480WAT     H249683   8.576   7.793   3.171
16481WAT      O49684   9.297   8.074   6.897
16481WAT     H149685   9.262   7.981   6.906
16481WAT     H249686   9.349   8.081   6.812
16482WAT      O49687   0.912   0.113   3.162
16482WAT     H149688   1.008   0.094   3.181
16482WAT     H249689   0.879   0.185   3.224
16483WAT      O49690   7.402   4.599   4.767
16483WAT     H149691   7.440   4.520   4.718
16483WAT     H249692   7.303   4.586   4.778
16484WAT      O49693   8.863   2.463   5.027
16484WAT     H149694   8.796   2.413   4.971
16484WAT     H249695   8.949   2.469   4.977
16485WAT      O49696   4.828   6.656   1.186
16485WAT     H149697   4.894   6.716   1.230
16485WAT     H249698   4.792   6.700   1.104
16486WAT      O49699   6.397   5.672   6.295
16486WAT     H149700   6.354   5.610   6.229
16486WAT     H249701   6.407   5.626   6.383
16487WAT      O49702   7.275   0.914   2.055
16487WAT     H149703   7.264   0.892   2.152
16487WAT     H249704   7.197   0.880   2.004
16488WAT      O49705   2.857   9.625   2.706
16488WAT     H149706   2.852   9.526   2.693
16488WAT     H249707   2.825   9.648   2.798
16489WAT      O49708   4.318   7.050   3.586
16489WAT     H149709   4.226   7.018   3.567
16489WAT     H249710   4.378   6.972   3.604
16490WAT      O49711   9.148   4.022   7.490
16490WAT     H149712   9.157   3.990   7.395
16490WAT     H249713   9.236   4.011   7.537
16491WAT      O49714   1.252   9.839   2.854
16491WAT     H149715   1.281   9.797   2.940
16491WAT     H249716   1.230   9.935   2.870
16492WAT      O49717   3.889   3.272   2.159
16492WAT     H149718   3.984   3.248   2.142
16492WAT     H249719   3.862   3.347   2.098
16493WAT      O49720   1.873   7.975   3.985
16493WAT     H149721   1.948   8.035   4.011
16493WAT     H249722   1.792   7.997   4.039
16494WAT      O49723   9.631   3.286   0.346
16494WAT     H149724   9.646   3.352   0.420
16494WAT     H249725   9.719   3.246   0.319
16495WAT      O49726   8.302   6.467   8.734
16495WAT     H149727   8.235   6.531   8.696
16495WAT     H249728   8.336   6.407   8.661
16496WAT      O49729   6.384   2.544   7.959
16496WAT     H149730   6.303   2.565   7.905
16496WAT     H249731   6.429   2.629   7.987
16497WAT      O49732   0.755   6.273   4.602
16497WAT     H149733   0.741   6.368   4.627
16497WAT     H249734   0.675   6.239   4.553
16498WAT      O49735   8.111   6.090   8.814
16498WAT     H149736   8.156   6.113   8.727
16498WAT     H249737   8.016   6.066   8.797
16499WAT      O49738   7.498   3.788   3.031
16499WAT     H149739   7.540   3.879   3.036
16499WAT     H249740   7.403   3.794   3.061
16500WAT      O49741   8.749   0.262   0.843
16500WAT     H149742   8.732   0.261   0.942
16500WAT     H249743   8.684   0.324   0.799
16501WAT      O49744   2.868   6.270   5.233
16501WAT     H149745   2.871   6.284   5.332
16501WAT     H249746   2.877   6.358   5.186
16502WAT      O49747   8.526   5.352   9.004
16502WAT     H149748   8.444   5.392   9.044
16502WAT     H249749   8.507   5.325   8.909
16503WAT      O49750   6.704   1.456   4.408
16503WAT     H149751   6.771   1.529   4.415
16503WAT     H249752   6.625   1.477   4.466
16504WAT      O49753   7.286   3.639   5.425
16504WAT     H149754   7.386   3.643   5.416
16504WAT     H249755   7.260   3.552   5.466
16505WAT      O49756   8.165   2.398   0.342
16505WAT     H149757   8.099   2.417   0.270
16505WAT     H249758   8.123   2.341   0.413
16506WAT      O49759   5.069   6.550   0.493
16506WAT     H149760   5.026   6.517   0.409
16506WAT     H249761   5.002   6.601   0.547
16507WAT      O49762   2.714   9.814   7.795
16507WAT     H149763   2.766   9.748   7.741
16507WAT     H249764   2.697   9.896   7.740
16508WAT      O49765   3.400   8.558   5.083
16508WAT     H149766   3.312   8.583   5.042
16508WAT     H249767   3.405   8.592   5.177
16509WAT      O49768   0.626   8.068   5.061
16509WAT     H149769   0.609   8.136   5.133
16509WAT     H249770   0.669   8.112   4.983
16510WAT      O49771   0.699   3.857   3.081
16510WAT     H149772   0.671   3.941   3.035
16510WAT     H249773   0.730   3.879   3.174
16511WAT      O49774   1.927   2.367   9.358
16511WAT     H149775   1.965   2.375   9.266
16511WAT     H249776   2.001   2.365   9.425
16512WAT      O49777   8.311   6.239   4.385
16512WAT     H149778   8.374   6.222   4.460
16512WAT     H249779   8.309   6.336   4.363
16513WAT      O49780   9.206   7.938   0.049
16513WAT     H149781   9.170   7.916   0.139
16513WAT     H249782   9.130   7.943  -0.016
16514WAT      O49783   8.524   5.625   3.134
16514WAT     H149784   8.572   5.547   3.173
16514WAT     H249785   8.462   5.594   3.063
16515WAT      O49786   5.792   9.816   9.615
16515WAT     H149787   5.815   9.719   9.604
16515WAT     H249788   5.700   9.832   9.579
16516WAT      O49789   4.781   3.526   1.578
16516WAT     H149790   4.720   3.460   1.533
16516WAT     H249791   4.815   3.591   1.510
16517WAT      O49792   9.683   7.549   8.958
16517WAT     H149793   9.618   7.528   9.031
16517WAT     H249794   9.676   7.481   8.885
16518WAT      O49795   8.145   7.608   3.677
16518WAT     H149796   8.132   7.681   3.743
16518WAT     H249797   8.137   7.519   3.723
16519WAT      O49798   1.841   3.749   6.620
16519WAT     H149799   1.806   3.840   6.599
16519WAT     H249800   1.926   3.733   6.570
16520WAT      O49801   8.582   6.538   6.063
16520WAT     H149802   8.553   6.477   5.989
16520WAT     H249803   8.547   6.504   6.150
16521WAT      O49804   6.807   7.442   8.138
16521WAT     H149805   6.861   7.416   8.058
16521WAT     H249806   6.868   7.457   8.216
16522WAT      O49807   5.983   2.119   1.666
16522WAT     H149808   5.883   2.124   1.674
16522WAT     H249809   6.024   2.192   1.720
16523WAT      O49810   6.850   4.590   4.900
16523WAT     H149811   6.775   4.657   4.906
16523WAT     H249812   6.829   4.523   4.829
16524WAT      O49813   8.033   6.716   4.288
16524WAT     H149814   8.032   6.780   4.364
16524WAT     H249815   7.975   6.637   4.309
16525WAT      O49816   8.784   2.044   3.753
16525WAT     H149817   8.801   2.092   3.839
16525WAT     H249818   8.685   2.034   3.740
16526WAT      O49819   1.372   6.109   5.617
16526WAT     H149820   1.302   6.126   5.686
16526WAT     H249821   1.379   6.010   5.600
16527WAT      O49822   2.702   0.454   1.486
16527WAT     H149823   2.610   0.420   1.468
16527WAT     H249824   2.703   0.500   1.575
16528WAT      O49825   1.884   1.772   6.815
16528WAT     H149826   1.830   1.825   6.881
16528WAT     H249827   1.944   1.834   6.764
16529WAT      O49828   4.106   2.623   7.049
16529WAT     H149829   4.069   2.602   6.959
16529WAT     H249830   4.184   2.685   7.040
16530WAT      O49831   2.958   4.232   6.272
16530WAT     H149832   2.898   4.306   6.303
16530WAT     H249833   3.033   4.221   6.337
16531WAT      O49834   4.689   8.733   3.431
16531WAT     H149835   4.721   8.790   3.507
16531WAT     H249836   4.706   8.637   3.452
16532WAT      O49837   4.341   4.245   3.009
16532WAT     H149838   4.382   4.331   2.978
16532WAT     H249839   4.337   4.245   3.109
16533WAT      O49840   5.550   6.133   4.440
16533WAT     H149841   5.620   6.193   4.400
16533WAT     H249842   5.541   6.152   4.537
16534WAT      O49843   8.279   5.799   6.861
16534WAT     H149844   8.356   5.748   6.822
16534WAT     H249845   8.304   5.895   6.869
16535WAT      O49846   3.815   5.676   6.684
16535WAT     H149847   3.774   5.735   6.753
16535WAT     H249848   3.814   5.581   6.715
16536WAT      O49849   6.697   1.517   0.137
16536WAT     H149850   6.779   1.464   0.116
16536WAT     H249851   6.713   1.613   0.118
16537WAT      O49852   1.369   0.667   7.158
16537WAT     H149853   1.448   0.696   7.213
16537WAT     H249854   1.383   0.693   7.063
16538WAT      O49855   8.319   2.725   6.043
16538WAT     H149856   8.264   2.803   6.074
16538WAT     H249857   8.286   2.694   5.954
16539WAT      O49858   4.094   4.922   0.985
16539WAT     H149859   4.132   4.953   1.072
16539WAT     H249860   4.044   4.836   1.000
16540WAT      O49861   1.367   9.434   4.296
16540WAT     H149862   1.363   9.410   4.393
16540WAT     H249863   1.455   9.406   4.258
16541WAT      O49864   8.134   6.065   9.656
16541WAT     H149865   8.152   6.006   9.577
16541WAT     H249866   8.064   6.024   9.713
16542WAT      O49867   1.432   5.146   5.641
16542WAT     H149868   1.512   5.184   5.596
16542WAT     H249869   1.391   5.076   5.583
16543WAT      O49870   7.818   5.801   5.106
16543WAT     H149871   7.818   5.736   5.031
16543WAT     H249872   7.770   5.761   5.184
16544WAT      O49873   8.902   5.427   5.028
16544WAT     H149874   8.933   5.339   4.992
16544WAT     H249875   8.928   5.500   4.965
16545WAT      O49876   4.409   1.368   8.263
16545WAT     H149877   4.503   1.388   8.289
16545WAT     H249878   4.350   1.374   8.344
16546WAT      O49879   1.516   5.570   2.678
16546WAT     H149880   1.455   5.497   2.710
16546WAT     H249881   1.464   5.653   2.661
16547WAT      O49882   1.201   3.415   2.125
16547WAT     H149883   1.263   3.436   2.200
16547WAT     H249884   1.145   3.335   2.149
16548WAT      O49885   2.596   9.258   8.569
16548WAT     H149886   2.579   9.336   8.509
16548WAT     H249887   2.678   9.276   8.625
16549WAT      O49888   9.618   0.632   4.581
16549WAT     H149889   9.542   0.567   4.590
16549WAT     H249890   9.700   0.583   4.552
16550WAT      O49891   1.877   0.531   3.646
16550WAT     H149892   1.972   0.512   3.671
16550WAT     H249893   1.859   0.629   3.657
16551WAT      O49894   5.182   8.047   5.613
16551WAT     H149895   5.177   8.060   5.712
16551WAT     H249896   5.097   8.005   5.581
16552WAT      O49897   5.409   9.725   6.380
16552WAT     H149898   5.400   9.812   6.429
16552WAT     H249899   5.468   9.663   6.432
16553WAT      O49900   4.769   4.721   0.800
16553WAT     H149901   4.719   4.699   0.716
16553WAT     H249902   4.867   4.709   0.785
16554WAT      O49903   6.192   3.770   2.438
16554WAT     H149904   6.136   3.800   2.360
16554WAT     H249905   6.170   3.825   2.518
16555WAT      O49906   6.076   0.489   5.978
16555WAT     H149907   6.023   0.421   5.927
16555WAT     H249908   6.086   0.458   6.072
16556WAT      O49909   4.202   5.937   5.896
16556WAT     H149910   4.182   5.841   5.879
16556WAT     H249911   4.129   5.994   5.858
16557WAT      O49912   4.204   0.867   4.344
16557WAT     H149913   4.292   0.912   4.328
16557WAT     H249914   4.135   0.936   4.369
16558WAT      O49915   5.685   6.982   2.672
16558WAT     H149916   5.593   6.950   2.695
16558WAT     H249917   5.681   7.077   2.643
16559WAT      O49918   6.189   8.483   9.081
16559WAT     H149919   6.201   8.406   9.144
16559WAT     H249920   6.215   8.568   9.126
16560WAT      O49921   9.767   8.209   4.884
16560WAT     H149922   9.781   8.266   4.803
16560WAT     H249923   9.737   8.265   4.961
16561WAT      O49924   3.820   8.433   9.841
16561WAT     H149925   3.883   8.419   9.918
16561WAT     H249926   3.734   8.385   9.859
16562WAT      O49927   7.959   3.849   7.198
16562WAT     H149928   7.946   3.920   7.129
16562WAT     H249929   8.019   3.778   7.162
16563WAT      O49930   5.228   2.953   9.279
16563WAT     H149931   5.208   2.867   9.326
16563WAT     H249932   5.327   2.962   9.267
16564WAT      O49933   1.643   2.879   3.072
16564WAT     H149934   1.620   2.966   3.029
16564WAT     H249935   1.592   2.871   3.158
16565WAT      O49936   1.812   8.133   7.415
16565WAT     H149937   1.786   8.210   7.356
16565WAT     H249938   1.759   8.137   7.499
16566WAT      O49939   0.272   5.620   1.565
16566WAT     H149940   0.233   5.672   1.642
16566WAT     H249941   0.326   5.543   1.601
16567WAT      O49942   2.281   5.324   1.957
16567WAT     H149943   2.358   5.347   2.017
16567WAT     H249944   2.312   5.258   1.887
16568WAT      O49945   6.350   9.659   3.014
16568WAT     H149946   6.263   9.697   3.045
16568WAT     H249947   6.420   9.731   3.015
16569WAT      O49948   4.268   5.459   9.276
16569WAT     H149949   4.346   5.430   9.331
16569WAT     H249950   4.284   5.552   9.242
16570WAT      O49951   0.032   5.670   4.038
16570WAT     H149952   0.092   5.595   4.009
16570WAT     H249953   0.087   5.739   4.085
16571WAT      O49954   1.788   1.905   7.019
16571WAT     H149955   1.858   1.976   7.009
16571WAT     H249956   1.698   1.945   7.001
16572WAT      O49957   0.934   5.837   8.946
16572WAT     H149958   0.927   5.893   8.863
16572WAT     H249959   0.898   5.746   8.928
16573WAT      O49960   1.623   0.224   6.368
16573WAT     H149961   1.602   0.126   6.364
16573WAT     H249962   1.695   0.240   6.436
16574WAT      O49963   8.670   1.906   1.612
16574WAT     H149964   8.602   1.970   1.648
16574WAT     H249965   8.716   1.860   1.688
16575WAT      O49966   1.635   0.887   5.358
16575WAT     H149967   1.581   0.970   5.343
16575WAT     H249968   1.676   0.858   5.272
16576WAT      O49969   9.558   9.487   5.846
16576WAT     H149970   9.543   9.444   5.757
16576WAT     H249971   9.561   9.587   5.834
16577WAT      O49972   5.962   5.084   6.577
16577WAT     H149973   5.979   5.136   6.493
16577WAT     H249974   5.863   5.076   6.591
16578WAT      O49975   3.720   0.944   5.698
16578WAT     H149976   3.630   0.956   5.739
16578WAT     H249977   3.723   0.992   5.610
16579WAT      O49978   3.211   0.822   1.605
16579WAT     H149979   3.112   0.815   1.617
16579WAT     H249980   3.257   0.801   1.692
16580WAT      O49981   2.098   1.595   0.870
16580WAT     H149982   2.039   1.624   0.794
16580WAT     H249983   2.192   1.585   0.837
16581WAT      O49984   5.044   1.734   1.500
16581WAT     H149985   5.136   1.696   1.503
16581WAT     H249986   5.002   1.715   1.412
16582WAT      O49987   6.316   3.859   0.359
16582WAT     H149988   6.269   3.807   0.287
16582WAT     H249989   6.273   3.840   0.447
16583WAT      O49990   6.450   5.925   0.090
16583WAT     H149991   6.421   5.848   0.034
16583WAT     H249992   6.370   5.969   0.130
16584WAT      O49993   1.695   1.107   5.009
16584WAT     H149994   1.725   1.108   4.913
16584WAT     H249995   1.658   1.017   5.031
16585WAT      O49996   4.480   5.815   0.328
16585WAT     H149997   4.473   5.850   0.421
16585WAT     H249998   4.431   5.876   0.265
16586WAT      O49999   1.007   2.678   8.809
16586WAT     H150000   0.910   2.702   8.804
16586WAT     H250001   1.023   2.620   8.890
16587WAT      O50002   0.502   1.196   9.684
16587WAT     H150003   0.506   1.252   9.601
16587WAT     H250004   0.584   1.139   9.689
16588WAT      O50005   0.287   3.432   9.376
16588WAT     H150006   0.352   3.504   9.352
16588WAT     H250007   0.331   3.342   9.368
16589WAT      O50008   8.800   6.400   8.509
16589WAT     H150009   8.782   6.457   8.429
16589WAT     H250010   8.829   6.309   8.479
16590WAT      O50011   5.345   8.947   5.809
16590WAT     H150012   5.425   8.891   5.833
16590WAT     H250013   5.286   8.955   5.889
16591WAT      O50014   6.747   1.595   0.480
16591WAT     H150015   6.839   1.628   0.458
16591WAT     H250016   6.720   1.524   0.415
16592WAT      O50017   7.059   8.983   2.855
16592WAT     H150018   7.035   9.024   2.943
16592WAT     H250019   7.108   8.897   2.871
16593WAT      O50020   1.452   9.189   8.450
16593WAT     H150021   1.365   9.169   8.405
16593WAT     H250022   1.482   9.281   8.425
16594WAT      O50023   8.395   6.582   7.130
16594WAT     H150024   8.436   6.670   7.108
16594WAT     H250025   8.427   6.513   7.064
16595WAT      O50026   7.610   8.598   7.557
16595WAT     H150027   7.625   8.685   7.510
16595WAT     H250028   7.634   8.609   7.654
16596WAT      O50029   9.800   8.499   8.641
16596WAT     H150030   9.724   8.539   8.692
16596WAT     H250031   9.885   8.514   8.691
16597WAT      O50032   9.111   8.522   6.519
16597WAT     H150033   9.086   8.480   6.431
16597WAT     H250034   9.200   8.486   6.549
16598WAT      O50035   8.356   8.465   9.140
16598WAT     H150036   8.424   8.426   9.077
16598WAT     H250037   8.270   8.414   9.132
16599WAT      O50038   8.342   6.802   6.940
16599WAT     H150039   8.422   6.816   6.998
16599WAT     H250040   8.319   6.888   6.893
16600WAT      O50041   6.061   1.312   4.184
16600WAT     H150042   6.022   1.403   4.199
16600WAT     H250043   6.110   1.311   4.097
16601WAT      O50044   9.323   0.906   9.526
16601WAT     H150045   9.313   0.968   9.448
16601WAT     H250046   9.374   0.952   9.599
16602WAT      O50047   9.264   6.222   8.629
16602WAT     H150048   9.258   6.263   8.720
16602WAT     H250049   9.265   6.122   8.638
16603WAT      O50050   0.626   6.437   3.815
16603WAT     H150051   0.631   6.385   3.729
16603WAT     H250052   0.718   6.460   3.845
16604WAT      O50053   6.191   2.564   6.775
16604WAT     H150054   6.207   2.560   6.677
16604WAT     H250055   6.119   2.630   6.795
16605WAT      O50056   1.699   0.016   6.775
16605WAT     H150057   1.680  -0.079   6.801
16605WAT     H250058   1.795   0.037   6.792
16606WAT      O50059   0.711   7.201   6.867
16606WAT     H150060   0.803   7.240   6.862
16606WAT     H250061   0.670   7.201   6.776
16607WAT      O50062   2.493   1.821   2.162
16607WAT     H150063   2.545   1.775   2.090
16607WAT     H250064   2.527   1.914   2.173
16608WAT      O50065   1.019   7.750   0.839
16608WAT     H150066   1.116   7.762   0.859
16608WAT     H250067   0.973   7.712   0.919
16609WAT      O50068   7.887   9.593   0.335
16609WAT     H150069   7.897   9.617   0.431
16609WAT     H250070   7.852   9.499   0.327
16610WAT      O50071   0.540   1.006   0.119
16610WAT     H150072   0.556   1.033   0.214
16610WAT     H250073   0.628   0.994   0.073
16611WAT      O50074   0.123   0.603   5.064
16611WAT     H150075   0.061   0.598   5.142
16611WAT     H250076   0.210   0.560   5.088
16612WAT      O50077   0.418   8.556   4.133
16612WAT     H150078   0.350   8.524   4.199
16612WAT     H250079   0.371   8.592   4.052
16613WAT      O50080   8.823   4.062   1.466
16613WAT     H150081   8.829   3.971   1.426
16613WAT     H250082   8.831   4.055   1.566
16614WAT      O50083   6.603   8.024   1.648
16614WAT     H150084   6.623   8.084   1.725
16614WAT     H250085   6.505   8.028   1.627
16615WAT      O50086   1.091   4.790   1.951
16615WAT     H150087   1.048   4.879   1.936
16615WAT     H250088   1.181   4.803   1.992
16616WAT      O50089   6.238   7.345   3.005
16616WAT     H150090   6.154   7.361   3.058
16616WAT     H250091   6.282   7.262   3.038
16617WAT      O50092   6.468   0.222   2.264
16617WAT     H150093   6.430   0.312   2.242
16617WAT     H250094   6.475   0.211   2.363
16618WAT      O50095   2.123   6.460   9.346
16618WAT     H150096   2.038   6.446   9.396
16618WAT     H250097   2.118   6.414   9.258
16619WAT      O50098   2.939   7.587   4.492
16619WAT     H150099   2.936   7.537   4.579
16619WAT     H250100   2.915   7.525   4.417
16620WAT      O50101   7.586   3.424   9.832
16620WAT     H150102   7.646   3.384   9.763
16620WAT     H250103   7.548   3.351   9.889
16621WAT      O50104   6.391   3.953   1.622
16621WAT     H150105   6.461   3.937   1.552
16621WAT     H250106   6.382   4.051   1.639
16622WAT      O50107   6.109   9.092   9.635
16622WAT     H150108   6.165   9.020   9.676
16622WAT     H250109   6.160   9.137   9.563
16623WAT      O50110   3.870   9.333   2.166
16623WAT     H150111   3.904   9.260   2.106
16623WAT     H250112   3.818   9.292   2.241
16624WAT      O50113   0.838   3.615   3.034
16624WAT     H150114   0.934   3.638   3.050
16624WAT     H250115   0.780   3.689   3.069
16625WAT      O50116   0.616   9.168   8.768
16625WAT     H150117   0.596   9.170   8.866
16625WAT     H250118   0.711   9.140   8.755
16626WAT      O50119   9.266   7.682   9.859
16626WAT     H150120   9.291   7.641   9.947
16626WAT     H250121   9.235   7.776   9.874
16627WAT      O50122   1.066   5.583   9.132
16627WAT     H150123   1.007   5.595   9.052
16627WAT     H250124   1.161   5.592   9.104
16628WAT      O50125   5.526   0.386   7.658
16628WAT     H150126   5.541   0.417   7.564
16628WAT     H250127   5.606   0.334   7.688
16629WAT      O50128   1.202   2.952   7.649
16629WAT     H150129   1.257   2.978   7.569
16629WAT     H250130   1.138   3.026   7.671
16630WAT      O50131   0.968   2.475   7.486
16630WAT     H150132   1.043   2.420   7.523
16630WAT     H250133   0.995   2.571   7.484
16631WAT      O50134   5.713   0.579   6.870
16631WAT     H150135   5.808   0.566   6.840
16631WAT     H250136   5.704   0.548   6.965
16632WAT      O50137   4.513   6.429   2.182
16632WAT     H150138   4.482   6.361   2.248
16632WAT     H250139   4.606   6.409   2.154
16633WAT      O50140   6.745   0.040   6.497
16633WAT     H150141   6.779   0.127   6.462
16633WAT     H250142   6.821  -0.011   6.540
16634WAT      O50143   8.392   4.082   4.329
16634WAT     H150144   8.361   4.094   4.423
16634WAT     H250145   8.317   4.104   4.266
16635WAT      O50146   8.077   4.509   0.395
16635WAT     H150147   8.003   4.450   0.427
16635WAT     H250148   8.077   4.511   0.295
16636WAT      O50149   2.009   3.875   6.295
16636WAT     H150150   2.033   3.782   6.267
16636WAT     H250151   2.022   3.937   6.218
16637WAT      O50152   3.649   7.414   4.411
16637WAT     H150153   3.604   7.332   4.376
16637WAT     H250154   3.745   7.394   4.430
16638WAT      O50155   5.617   0.467   1.687
16638WAT     H150156   5.536   0.514   1.650
16638WAT     H250157   5.700   0.514   1.656
16639WAT      O50158   9.848   5.399   3.013
16639WAT     H150159   9.929   5.395   2.954
16639WAT     H250160   9.766   5.386   2.957
16640WAT      O50161   6.152   3.499   2.517
16640WAT     H150162   6.057   3.487   2.489
16640WAT     H250163   6.177   3.595   2.509
16641WAT      O50164   3.794   4.883   4.844
16641WAT     H150165   3.699   4.900   4.819
16641WAT     H250166   3.838   4.827   4.773
16642WAT      O50167   8.607   6.586   1.497
16642WAT     H150168   8.648   6.508   1.449
16642WAT     H250169   8.511   6.594   1.471
16643WAT      O50170   9.354   5.913   8.026
16643WAT     H150171   9.430   5.850   8.041
16643WAT     H250172   9.308   5.889   7.940
16644WAT      O50173   3.265   2.677   6.474
16644WAT     H150174   3.312   2.750   6.425
16644WAT     H250175   3.212   2.622   6.409
16645WAT      O50176   0.956   6.492   6.497
16645WAT     H150177   0.960   6.401   6.538
16645WAT     H250178   1.042   6.541   6.517
16646WAT      O50179   1.426   7.281   4.175
16646WAT     H150180   1.418   7.332   4.089
16646WAT     H250181   1.521   7.285   4.206
16647WAT      O50182   3.289   1.353   0.437
16647WAT     H150183   3.232   1.401   0.504
16647WAT     H250184   3.379   1.397   0.433
16648WAT      O50185   3.293   4.210   5.230
16648WAT     H150186   3.213   4.150   5.222
16648WAT     H250187   3.369   4.171   5.179
16649WAT      O50188   1.710   2.861   8.730
16649WAT     H150189   1.772   2.825   8.661
16649WAT     H250190   1.698   2.960   8.717
16650WAT      O50191   9.769   7.045   1.645
16650WAT     H150192   9.830   7.010   1.716
16650WAT     H250193   9.818   7.045   1.557
16651WAT      O50194   6.043   8.187   4.558
16651WAT     H150195   6.117   8.146   4.503
16651WAT     H250196   5.991   8.251   4.501
16652WAT      O50197   7.360   2.012   4.995
16652WAT     H150198   7.309   1.976   5.073
16652WAT     H250199   7.451   2.040   5.025
16653WAT      O50200   7.962   1.723   6.827
16653WAT     H150201   8.012   1.784   6.764
16653WAT     H250202   7.865   1.746   6.824
16654WAT      O50203   5.409   6.671   2.920
16654WAT     H150204   5.324   6.691   2.968
16654WAT     H250205   5.390   6.605   2.846
16655WAT      O50206   4.958   1.827   7.838
16655WAT     H150207   4.966   1.753   7.904
16655WAT     H250208   4.951   1.914   7.887
16656WAT      O50209   0.902   3.466   6.301
16656WAT     H150210   0.886   3.407   6.380
16656WAT     H250211   0.864   3.557   6.318
16657WAT      O50212   8.434   7.263   1.589
16657WAT     H150213   8.424   7.225   1.681
16657WAT     H250214   8.488   7.201   1.532
16658WAT      O50215   8.537   9.681   1.580
16658WAT     H150216   8.487   9.758   1.540
16658WAT     H250217   8.595   9.639   1.511
16659WAT      O50218   1.711   8.329   3.621
16659WAT     H150219   1.645   8.253   3.622
16659WAT     H250220   1.692   8.388   3.542
16660WAT      O50221   4.465   5.692   3.207
16660WAT     H150222   4.455   5.741   3.294
16660WAT     H250223   4.395   5.723   3.143
16661WAT      O50224   2.336   3.083   0.041
16661WAT     H150225   2.381   3.094  -0.048
16661WAT     H250226   2.329   2.986   0.064
16662WAT      O50227   1.176   9.393   3.839
16662WAT     H150228   1.152   9.464   3.772
16662WAT     H250229   1.104   9.386   3.907
16663WAT      O50230   7.732   6.683   9.647
16663WAT     H150231   7.753   6.753   9.580
16663WAT     H250232   7.694   6.603   9.600
16664WAT      O50233   8.596   2.626   6.527
16664WAT     H150234   8.637   2.563   6.592
16664WAT     H250235   8.511   2.587   6.491
16665WAT      O50236   6.356   3.264   6.761
16665WAT     H150237   6.393   3.315   6.839
16665WAT     H250238   6.334   3.328   6.687
16666WAT      O50239   9.236   4.625   2.438
16666WAT     H150240   9.166   4.634   2.509
16666WAT     H250241   9.320   4.671   2.467
16667WAT      O50242   5.337   0.716   4.150
16667WAT     H150243   5.332   0.623   4.115
16667WAT     H250244   5.271   0.727   4.225
16668WAT      O50245   7.096   3.305   0.873
16668WAT     H150246   7.006   3.275   0.906
16668WAT     H250247   7.161   3.230   0.881
16669WAT      O50248   7.678   0.675   0.780
16669WAT     H150249   7.599   0.675   0.841
16669WAT     H250250   7.678   0.592   0.724
16670WAT      O50251   4.474   8.508   2.443
16670WAT     H150252   4.528   8.459   2.511
16670WAT     H250253   4.529   8.582   2.403
16671WAT      O50254   4.184   8.958   4.840
16671WAT     H150255   4.111   8.911   4.890
16671WAT     H250256   4.211   9.040   4.891
16672WAT      O50257   1.259   7.031   4.746
16672WAT     H150258   1.246   7.040   4.647
16672WAT     H250259   1.256   7.122   4.788
16673WAT      O50260   4.703   2.900   0.565
16673WAT     H150261   4.638   2.948   0.623
16673WAT     H250262   4.784   2.875   0.619
16674WAT      O50263   6.508   1.192   8.124
16674WAT     H150264   6.559   1.230   8.047
16674WAT     H250265   6.410   1.202   8.108
16675WAT      O50266   3.776   0.484   2.615
16675WAT     H150267   3.709   0.540   2.664
16675WAT     H250268   3.861   0.480   2.669
16676WAT      O50269   4.876   5.589   5.067
16676WAT     H150270   4.861   5.506   5.121
16676WAT     H250271   4.830   5.579   4.978
16677WAT      O50272   3.358   6.113   9.260
16677WAT     H150273   3.456   6.128   9.247
16677WAT     H250274   3.344   6.031   9.316
16678WAT      O50275   7.379   3.641   1.292
16678WAT     H150276   7.296   3.678   1.250
16678WAT     H250277   7.418   3.570   1.233
16679WAT      O50278   6.550   7.628   8.880
16679WAT     H150279   6.622   7.600   8.943
16679WAT     H250280   6.589   7.678   8.803
16680WAT      O50281   8.930   6.423   0.820
16680WAT     H150282   8.959   6.461   0.732
16680WAT     H250283   8.831   6.433   0.829
16681WAT      O50284   9.062   1.560   1.659
16681WAT     H150285   9.014   1.486   1.612
16681WAT     H250286   9.064   1.542   1.757
16682WAT      O50287   0.056   3.350   4.340
16682WAT     H150288   0.134   3.303   4.381
16682WAT     H250289  -0.016   3.361   4.409
16683WAT      O50290   8.146   4.256   5.666
16683WAT     H150291   8.108   4.214   5.583
16683WAT     H250292   8.071   4.281   5.727
16684WAT      O50293   3.812   3.619   0.411
16684WAT     H150294   3.767   3.543   0.458
16684WAT     H250295   3.853   3.586   0.326
16685WAT      O50296   4.488   6.429   7.415
16685WAT     H150297   4.416   6.380   7.366
16685WAT     H250298   4.514   6.511   7.363
16686WAT      O50299   4.819   2.457   6.093
16686WAT     H150300   4.781   2.496   6.010
16686WAT     H250301   4.746   2.447   6.161
16687WAT      O50302   8.037   0.434   9.638
16687WAT     H150303   8.021   0.470   9.545
16687WAT     H250304   8.135   0.426   9.654
16688WAT      O50305   9.041   7.391   4.606
16688WAT     H150306   9.041   7.429   4.698
16688WAT     H250307   9.134   7.392   4.569
16689WAT      O50308   2.851   4.250   4.783
16689WAT     H150309   2.844   4.337   4.831
16689WAT     H250310   2.859   4.266   4.685
16690WAT      O50311   6.034   0.413   4.052
16690WAT     H150312   6.096   0.486   4.082
16690WAT     H250313   5.943   0.450   4.037
16691WAT      O50314   0.297   1.318   9.266
16691WAT     H150315   0.219   1.273   9.310
16691WAT     H250316   0.364   1.249   9.237
16692WAT      O50317   4.741   0.295   7.058
16692WAT     H150318   4.716   0.339   6.971
16692WAT     H250319   4.675   0.321   7.129
16693WAT      O50320   7.797   1.432   8.720
16693WAT     H150321   7.860   1.492   8.670
16693WAT     H250322   7.844   1.348   8.745
16694WAT      O50323   9.349   5.040   4.111
16694WAT     H150324   9.393   5.103   4.047
16694WAT     H250325   9.260   5.012   4.075
16695WAT      O50326   2.545   8.451   3.897
16695WAT     H150327   2.526   8.543   3.930
16695WAT     H250328   2.643   8.432   3.904
16696WAT      O50329   1.683   5.412   9.051
16696WAT     H150330   1.767   5.464   9.036
16696WAT     H250331   1.692   5.356   9.133
16697WAT      O50332   4.382   9.195   1.921
16697WAT     H150333   4.396   9.110   1.871
16697WAT     H250334   4.407   9.182   2.017
16698WAT      O50335   1.299   3.789   2.266
16698WAT     H150336   1.229   3.723   2.292
16698WAT     H250337   1.293   3.869   2.325
16699WAT      O50338   7.331   8.211   0.564
16699WAT     H150339   7.431   8.208   0.564
16699WAT     H250340   7.296   8.174   0.650
16700WAT      O50341   8.450   0.309   5.458
16700WAT     H150342   8.463   0.214   5.431
16700WAT     H250343   8.539   0.354   5.465
16701WAT      O50344   8.089   3.614   7.138
16701WAT     H150345   8.151   3.577   7.206
16701WAT     H250346   8.072   3.546   7.067
16702WAT      O50347   9.798   6.224   7.820
16702WAT     H150348   9.837   6.165   7.749
16702WAT     H250349   9.749   6.168   7.886
16703WAT      O50350   5.652   0.223   6.939
16703WAT     H150351   5.720   0.170   6.990
16703WAT     H250352   5.673   0.220   6.842
16704WAT      O50353   2.893   5.199   7.368
16704WAT     H150354   2.990   5.182   7.388
16704WAT     H250355   2.863   5.282   7.415
16705WAT      O50356   3.742   2.962   6.397
16705WAT     H150357   3.789   2.879   6.428
16705WAT     H250358   3.660   2.976   6.453
16706WAT      O50359   9.045   2.376   3.651
16706WAT     H150360   8.976   2.435   3.611
16706WAT     H250361   9.088   2.423   3.728
16707WAT      O50362   5.105   7.877   3.913
16707WAT     H150363   5.040   7.842   3.980
16707WAT     H250364   5.164   7.803   3.880
16708WAT      O50365   1.253   8.422   2.970
16708WAT     H150366   1.342   8.388   2.938
16708WAT     H250367   1.267   8.476   3.053
16709WAT      O50368   7.359   9.508   8.422
16709WAT     H150369   7.273   9.548   8.455
16709WAT     H250370   7.412   9.579   8.375
16710WAT      O50371   5.313   3.081   1.718
16710WAT     H150372   5.313   3.084   1.818
16710WAT     H250373   5.382   3.144   1.683
16711WAT      O50374   4.361   4.182   8.196
16711WAT     H150375   4.387   4.087   8.180
16711WAT     H250376   4.315   4.190   8.285
16712WAT      O50377   0.271   0.275   2.065
16712WAT     H150378   0.238   0.368   2.081
16712WAT     H250379   0.338   0.275   1.991
16713WAT      O50380   0.662   0.359   1.118
16713WAT     H150381   0.613   0.371   1.205
16713WAT     H250382   0.660   0.445   1.067
16714WAT      O50383   5.321   0.812   8.316
16714WAT     H150384   5.349   0.906   8.334
16714WAT     H250385   5.344   0.754   8.395
16715WAT      O50386   9.743   7.604   0.710
16715WAT     H150387   9.737   7.695   0.668
16715WAT     H250388   9.652   7.562   0.710
16716WAT      O50389   8.775   8.305   3.649
16716WAT     H150390   8.758   8.301   3.748
16716WAT     H250391   8.864   8.346   3.633
16717WAT      O50392   0.540   5.112   0.065
16717WAT     H150393   0.600   5.154  -0.003
16717WAT     H250394   0.445   5.138   0.045
16718WAT      O50395   7.356   1.320   0.083
16718WAT     H150396   7.360   1.326  -0.017
16718WAT     H250397   7.435   1.269   0.116
16719WAT      O50398   2.330   7.697   5.639
16719WAT     H150399   2.354   7.601   5.623
16719WAT     H250400   2.236   7.703   5.671
16720WAT      O50401   1.997   6.881   9.818
16720WAT     H150402   1.992   6.831   9.905
16720WAT     H250403   1.912   6.867   9.767
16721WAT      O50404   9.242   1.095   3.978
16721WAT     H150405   9.170   1.159   4.005
16721WAT     H250406   9.277   1.047   4.059
16722WAT      O50407   9.236   6.708   0.284
16722WAT     H150408   9.311   6.699   0.217
16722WAT     H250409   9.159   6.756   0.242
16723WAT      O50410   9.178   3.457   0.194
16723WAT     H150411   9.140   3.426   0.107
16723WAT     H250412   9.276   3.437   0.196
16724WAT      O50413   1.643   5.079   6.221
16724WAT     H150414   1.575   5.044   6.285
16724WAT     H250415   1.734   5.049   6.249
16725WAT      O50416   5.677   6.220   8.641
16725WAT     H150417   5.687   6.127   8.675
16725WAT     H250418   5.768   6.263   8.636
16726WAT      O50419   3.096   4.404   7.925
16726WAT     H150420   3.141   4.492   7.910
16726WAT     H250421   3.074   4.363   7.836
16727WAT      O50422   1.412   3.749   3.545
16727WAT     H150423   1.469   3.680   3.501
16727WAT     H250424   1.343   3.704   3.602
16728WAT      O50425   4.385   9.470   5.885
16728WAT     H150426   4.306   9.485   5.827
16728WAT     H250427   4.355   9.453   5.979
16729WAT      O50428   2.538   3.682   9.808
16729WAT     H150429   2.440   3.680   9.791
16729WAT     H250430   2.569   3.590   9.834
16730WAT      O50431   5.533   0.476   2.392
16730WAT     H150432   5.490   0.485   2.481
16730WAT     H250433   5.599   0.550   2.379
16731WAT      O50434   1.112   5.015   0.080
16731WAT     H150435   1.085   4.946   0.012
16731WAT     H250436   1.040   5.083   0.090
16732WAT      O50437   3.867   3.285   9.462
16732WAT     H150438   3.786   3.332   9.428
16732WAT     H250439   3.867   3.190   9.428
16733WAT      O50440   2.825   0.326   2.667
16733WAT     H150441   2.842   0.423   2.681
16733WAT     H250442   2.728   0.307   2.682
16734WAT      O50443   4.928   7.251   0.309
16734WAT     H150444   4.967   7.325   0.254
16734WAT     H250445   4.993   7.175   0.314
16735WAT      O50446   3.742   5.202   9.332
16735WAT     H150447   3.706   5.264   9.262
16735WAT     H250448   3.735   5.246   9.422
16736WAT      O50449   2.130   8.833   9.540
16736WAT     H150450   2.216   8.865   9.578
16736WAT     H250451   2.134   8.837   9.440
16737WAT      O50452   6.319   8.625   2.854
16737WAT     H150453   6.382   8.548   2.865
16737WAT     H250454   6.256   8.627   2.932
16738WAT      O50455   7.809   6.939   8.181
16738WAT     H150456   7.789   6.852   8.225
16738WAT     H250457   7.727   6.996   8.181
16739WAT      O50458   0.260   0.476   9.709
16739WAT     H150459   0.292   0.420   9.785
16739WAT     H250460   0.337   0.528   9.671
16740WAT      O50461   9.634   0.624   2.788
16740WAT     H150462   9.725   0.636   2.826
16740WAT     H250463   9.624   0.529   2.756
16741WAT      O50464   7.118   4.346   8.056
16741WAT     H150465   7.137   4.436   8.016
16741WAT     H250466   7.077   4.287   7.987
16742WAT      O50467   8.989   0.548   7.949
16742WAT     H150468   8.918   0.615   7.927
16742WAT     H250469   9.023   0.565   8.042
16743WAT      O50470   3.037   5.781   4.503
16743WAT     H150471   3.082   5.813   4.587
16743WAT     H250472   3.050   5.848   4.430
16744WAT      O50473   1.011   2.802   1.101
16744WAT     H150474   0.954   2.777   1.022
16744WAT     H250475   0.981   2.751   1.181
16745WAT      O50476   7.567   7.559   3.418
16745WAT     H150477   7.628   7.562   3.339
16745WAT     H250478   7.550   7.464   3.444
16746WAT      O50479   4.103   0.253   7.030
16746WAT     H150480   4.023   0.223   6.980
16746WAT     H250481   4.163   0.176   7.047
16747WAT      O50482   2.360   3.580   1.427
16747WAT     H150483   2.348   3.490   1.470
16747WAT     H250484   2.332   3.576   1.331
16748WAT      O50485   7.665   0.264   8.557
16748WAT     H150486   7.577   0.291   8.597
16748WAT     H250487   7.671   0.165   8.553
16749WAT      O50488   6.506   7.367   0.497
16749WAT     H150489   6.518   7.447   0.556
16749WAT     H250490   6.591   7.351   0.445
16750WAT      O50491   6.609   9.133   7.997
16750WAT     H150492   6.531   9.136   8.060
16750WAT     H250493   6.579   9.096   7.909
16751WAT      O50494   8.502   8.367   2.588
16751WAT     H150495   8.454   8.329   2.667
16751WAT     H250496   8.437   8.388   2.516
16752WAT      O50497   2.141   1.206   9.451
16752WAT     H150498   2.077   1.163   9.514
16752WAT     H250499   2.097   1.218   9.362
16753WAT      O50500   9.267   3.665   2.272
16753WAT     H150501   9.175   3.626   2.260
16753WAT     H250502   9.266   3.760   2.243
16754WAT      O50503   6.083   3.692   8.614
16754WAT     H150504   6.128   3.713   8.527
16754WAT     H250505   6.077   3.774   8.670
16755WAT      O50506   8.424   3.378   6.148
16755WAT     H150507   8.470   3.418   6.069
16755WAT     H250508   8.491   3.339   6.211
16756WAT      O50509   2.341   7.723   2.448
16756WAT     H150510   2.282   7.665   2.505
16756WAT     H250511   2.334   7.818   2.480
16757WAT      O50512   1.809   9.446   4.699
16757WAT     H150513   1.774   9.540   4.696
16757WAT     H250514   1.745   9.385   4.652
16758WAT      O50515   7.970   7.361   4.090
16758WAT     H150516   7.967   7.267   4.057
16758WAT     H250517   8.062   7.382   4.124
16759WAT      O50518   2.419   8.107   4.512
16759WAT     H150519   2.453   8.102   4.418
16759WAT     H250520   2.379   8.197   4.528
16760WAT      O50521   7.937   1.841   5.546
16760WAT     H150522   7.959   1.921   5.602
16760WAT     H250523   7.971   1.854   5.454
16761WAT      O50524   3.018   5.150   4.001
16761WAT     H150525   3.091   5.147   4.069
16761WAT     H250526   2.933   5.115   4.042
16762WAT      O50527   3.498   4.761   7.852
16762WAT     H150528   3.473   4.852   7.818
16762WAT     H250529   3.570   4.770   7.920
16763WAT      O50530   2.993   2.251   8.582
16763WAT     H150531   3.039   2.163   8.568
16763WAT     H250532   2.894   2.238   8.577
16764WAT      O50533   9.609   3.719   4.593
16764WAT     H150534   9.570   3.683   4.508
16764WAT     H250535   9.681   3.786   4.572
16765WAT      O50536   7.115   4.553   2.396
16765WAT     H150537   7.093   4.485   2.466
16765WAT     H250538   7.111   4.510   2.306
16766WAT      O50539   2.719   5.102   1.866
16766WAT     H150540   2.701   5.197   1.838
16766WAT     H250541   2.814   5.080   1.847
16767WAT      O50542   2.210   3.109   6.301
16767WAT     H150543   2.273   3.080   6.229
16767WAT     H250544   2.154   3.031   6.329
16768WAT      O50545   8.315   2.767   9.814
16768WAT     H150546   8.279   2.738   9.725
16768WAT     H250547   8.373   2.695   9.852
16769WAT      O50548   7.683   6.639   5.172
16769WAT     H150549   7.728   6.589   5.098
16769WAT     H250550   7.605   6.587   5.206
16770WAT      O50551   5.271   4.091   0.433
16770WAT     H150552   5.214   4.057   0.508
16770WAT     H250553   5.213   4.124   0.359
16771WAT      O50554   5.672   1.209   7.755
16771WAT     H150555   5.583   1.218   7.710
16771WAT     H250556   5.716   1.298   7.758
16772WAT      O50557   7.188   1.065   5.084
16772WAT     H150558   7.266   1.003   5.077
16772WAT     H250559   7.104   1.015   5.060
16773WAT      O50560   4.719   1.664   2.875
16773WAT     H150561   4.762   1.684   2.787
16773WAT     H250562   4.776   1.600   2.927
16774WAT      O50563   6.770   6.271   9.427
16774WAT     H150564   6.869   6.273   9.418
16774WAT     H250565   6.745   6.222   9.511
16775WAT      O50566   8.563   1.070   0.956
16775WAT     H150567   8.634   1.107   0.896
16775WAT     H250568   8.547   0.974   0.934
16776WAT      O50569   4.969   1.326   4.183
16776WAT     H150570   5.021   1.339   4.268
16776WAT     H250571   5.033   1.327   4.106
16777WAT      O50572   4.959   3.964   9.596
16777WAT     H150573   4.949   4.062   9.616
16777WAT     H250574   4.989   3.953   9.501
16778WAT      O50575   3.137   8.720   8.629
16778WAT     H150576   3.160   8.809   8.590
16778WAT     H250577   3.139   8.727   8.729
16779WAT      O50578   2.485   0.664   8.184
16779WAT     H150579   2.566   0.668   8.126
16779WAT     H250580   2.508   0.621   8.272
16780WAT      O50581   9.786   6.589   2.036
16780WAT     H150582   9.883   6.595   2.058
16780WAT     H250583   9.731   6.621   2.114
16781WAT      O50584   6.565   9.816   7.389
16781WAT     H150585   6.478   9.785   7.349
16781WAT     H250586   6.556   9.912   7.417
16782WAT      O50587   0.432   2.614   8.845
16782WAT     H150588   0.464   2.706   8.868
16782WAT     H250589   0.505   2.548   8.860
16783WAT      O50590   4.036   5.367   9.398
16783WAT     H150591   4.126   5.400   9.370
16783WAT     H250592   4.026   5.271   9.371
16784WAT      O50593   7.927   1.324   1.470
16784WAT     H150594   7.942   1.225   1.470
16784WAT     H250595   7.989   1.367   1.404
16785WAT      O50596   6.064   9.378   6.405
16785WAT     H150597   6.054   9.364   6.504
16785WAT     H250598   6.142   9.437   6.387
16786WAT      O50599   5.572   1.352   2.904
16786WAT     H150600   5.669   1.374   2.900
16786WAT     H250601   5.560   1.253   2.898
16787WAT      O50602   8.680   5.191   2.701
16787WAT     H150603   8.710   5.115   2.758
16787WAT     H250604   8.728   5.189   2.613
16788WAT      O50605   6.509   4.716   8.714
16788WAT     H150606   6.489   4.647   8.645
16788WAT     H250607   6.424   4.761   8.741
16789WAT      O50608   1.627   1.473   6.160
16789WAT     H150609   1.576   1.559   6.164
16789WAT     H250610   1.599   1.413   6.235
16790WAT      O50611   1.392   4.873   9.568
16790WAT     H150612   1.347   4.950   9.613
16790WAT     H250613   1.370   4.873   9.471
16791WAT      O50614   8.625   9.001   9.876
16791WAT     H150615   8.626   8.928   9.808
16791WAT     H250616   8.541   9.054   9.867
16792WAT      O50617   1.669   4.123   5.296
16792WAT     H150618   1.723   4.173   5.228
16792WAT     H250619   1.724   4.110   5.378
16793WAT      O50620   6.819   6.606   6.804
16793WAT     H150621   6.745   6.645   6.859
16793WAT     H250622   6.863   6.678   6.752
16794WAT      O50623   7.706   6.136   8.388
16794WAT     H150624   7.611   6.103   8.387
16794WAT     H250625   7.711   6.221   8.441
16795WAT      O50626   0.736   7.110   8.531
16795WAT     H150627   0.680   7.100   8.614
16795WAT     H250628   0.832   7.102   8.555
16796WAT      O50629   2.913   3.973   0.836
16796WAT     H150630   2.874   4.043   0.776
16796WAT     H250631   2.972   4.016   0.904
16797WAT      O50632   5.773   5.827   5.212
16797WAT     H150633   5.826   5.785   5.138
16797WAT     H250634   5.681   5.787   5.213
16798WAT      O50635   3.648   8.188   8.528
16798WAT     H150636   3.746   8.198   8.509
16798WAT     H250637   3.630   8.095   8.560
16799WAT      O50638   7.092   1.309   0.988
16799WAT     H150639   7.192   1.320   0.989
16799WAT     H250640   7.051   1.377   1.049
16800WAT      O50641   2.019   4.241   8.611
16800WAT     H150642   1.952   4.190   8.664
16800WAT     H250643   2.047   4.187   8.532
16801WAT      O50644   9.264   2.339   9.734
16801WAT     H150645   9.363   2.351   9.744
16801WAT     H250646   9.236   2.369   9.643
16802WAT      O50647   6.886   5.052   1.850
16802WAT     H150648   6.924   4.960   1.838
16802WAT     H250649   6.938   5.117   1.795
16803WAT      O50650   4.822   6.333   8.185
16803WAT     H150651   4.891   6.385   8.135
16803WAT     H250652   4.847   6.329   8.282
16804WAT      O50653   8.675   3.077   1.477
16804WAT     H150654   8.703   3.085   1.573
16804WAT     H250655   8.754   3.090   1.418
16805WAT      O50656   4.519   0.909   2.240
16805WAT     H150657   4.581   0.987   2.234
16805WAT     H250658   4.573   0.824   2.245
16806WAT      O50659   6.115   2.276   5.186
16806WAT     H150660   6.140   2.202   5.125
16806WAT     H250661   6.180   2.279   5.263
16807WAT      O50662   5.367   0.984   3.946
16807WAT     H150663   5.356   1.049   4.021
16807WAT     H250664   5.329   0.895   3.973
16808WAT      O50665   7.263   0.481   0.497
16808WAT     H150666   7.307   0.438   0.418
16808WAT     H250667   7.213   0.562   0.467
16809WAT      O50668   2.161   1.980   1.920
16809WAT     H150669   2.123   1.987   1.828
16809WAT     H250670   2.249   2.028   1.924
16810WAT      O50671   6.610   3.793   5.007
16810WAT     H150672   6.571   3.746   5.087
16810WAT     H250673   6.679   3.734   4.965
16811WAT      O50674   6.233   7.593   8.642
16811WAT     H150675   6.329   7.568   8.629
16811WAT     H250676   6.227   7.691   8.661
16812WAT      O50677   8.151   9.396   1.895
16812WAT     H150678   8.052   9.384   1.893
16812WAT     H250679   8.189   9.378   1.804
16813WAT      O50680   0.385   5.960   3.916
16813WAT     H150681   0.366   6.006   4.002
16813WAT     H250682   0.301   5.920   3.880
16814WAT      O50683   2.329   8.082   0.741
16814WAT     H150684   2.229   8.071   0.746
16814WAT     H250685   2.373   7.996   0.764
16815WAT      O50686   6.601   2.436   6.627
16815WAT     H150687   6.623   2.497   6.551
16815WAT     H250688   6.557   2.488   6.700
16816WAT      O50689   9.767   9.530   9.087
16816WAT     H150690   9.672   9.562   9.089
16816WAT     H250691   9.776   9.448   9.144
16817WAT      O50692   8.446   4.302   8.743
16817WAT     H150693   8.426   4.270   8.836
16817WAT     H250694   8.385   4.257   8.678
16818WAT      O50695   0.033   8.597   4.984
16818WAT     H150696   0.002   8.503   4.999
16818WAT     H250697  -0.033   8.645   4.926
16819WAT      O50698   4.401   6.679   4.471
16819WAT     H150699   4.356   6.736   4.402
16819WAT     H250700   4.383   6.717   4.561
16820WAT      O50701   4.136   6.444   7.294
16820WAT     H150702   4.064   6.438   7.226
16820WAT     H250703   4.102   6.492   7.375
16821WAT      O50704   3.947   8.048   8.006
16821WAT     H150705   3.954   8.025   7.909
16821WAT     H250706   4.019   8.001   8.057
16822WAT      O50707   1.447   4.923   3.642
16822WAT     H150708   1.348   4.926   3.653
16822WAT     H250709   1.490   4.988   3.705
16823WAT      O50710   2.583   7.920   3.074
16823WAT     H150711   2.633   7.894   3.157
16823WAT     H250712   2.540   7.840   3.034
16824WAT      O50713   4.573   5.243   8.639
16824WAT     H150714   4.617   5.184   8.571
16824WAT     H250715   4.590   5.339   8.615
16825WAT      O50716   9.299   4.532   7.861
16825WAT     H150717   9.393   4.518   7.894
16825WAT     H250718   9.281   4.468   7.786
16826WAT      O50719   3.119   6.545   9.392
16826WAT     H150720   3.061   6.480   9.342
16826WAT     H250721   3.077   6.567   9.480
16827WAT      O50722   8.172   7.522   7.489
16827WAT     H150723   8.244   7.482   7.546
16827WAT     H250724   8.092   7.461   7.489
16828WAT      O50725   5.748   1.597   8.030
16828WAT     H150726   5.745   1.694   8.008
16828WAT     H250727   5.769   1.586   8.128
16829WAT      O50728   1.800   8.276   1.589
16829WAT     H150729   1.841   8.362   1.557
16829WAT     H250730   1.866   8.228   1.646
16830WAT      O50731   8.471   6.947   9.648
16830WAT     H150732   8.551   6.890   9.666
16830WAT     H250733   8.388   6.893   9.660
16831WAT      O50734   3.447   7.008   5.963
16831WAT     H150735   3.479   6.934   6.023
16831WAT     H250736   3.372   7.057   6.008
16832WAT      O50737   8.907   5.350   2.987
16832WAT     H150738   8.908   5.252   3.007
16832WAT     H250739   8.998   5.388   2.998
16833WAT      O50740   3.241   1.674   2.315
16833WAT     H150741   3.208   1.602   2.254
16833WAT     H250742   3.340   1.681   2.308
16834WAT      O50743   2.156   4.636   8.753
16834WAT     H150744   2.125   4.569   8.686
16834WAT     H250745   2.143   4.601   8.846
16835WAT      O50746   3.638   7.807   4.511
16835WAT     H150747   3.659   7.863   4.431
16835WAT     H250748   3.554   7.840   4.554
16836WAT      O50749   3.050   0.859   2.762
16836WAT     H150750   3.067   0.881   2.666
16836WAT     H250751   3.124   0.895   2.818
16837WAT      O50752   4.553   7.782   0.521
16837WAT     H150753   4.474   7.763   0.579
16837WAT     H250754   4.577   7.879   0.526
16838WAT      O50755   6.125   2.949   9.336
16838WAT     H150756   6.041   2.913   9.297
16838WAT     H250757   6.202   2.889   9.312
16839WAT      O50758   7.168   2.053   1.833
16839WAT     H150759   7.168   2.048   1.933
16839WAT     H250760   7.212   1.971   1.796
16840WAT      O50761   1.033   0.444   3.238
16840WAT     H150762   1.058   0.388   3.317
16840WAT     H250763   0.944   0.414   3.204
16841WAT      O50764   8.202   8.367   3.497
16841WAT     H150765   8.282   8.400   3.448
16841WAT     H250766   8.141   8.444   3.516
16842WAT      O50767   1.631   7.025   9.547
16842WAT     H150768   1.653   6.993   9.455
16842WAT     H250769   1.684   7.108   9.567
16843WAT      O50770   1.263   8.564   3.200
16843WAT     H150771   1.327   8.640   3.207
16843WAT     H250772   1.269   8.507   3.282
16844WAT      O50773   4.448   0.400   6.324
16844WAT     H150774   4.415   0.313   6.361
16844WAT     H250775   4.466   0.390   6.226
16845WAT      O50776   8.582   0.976   5.809
16845WAT     H150777   8.632   1.050   5.764
16845WAT     H250778   8.533   1.013   5.888
16846WAT      O50779   1.556   9.644   9.323
16846WAT     H150780   1.620   9.598   9.261
16846WAT     H250781   1.462   9.616   9.301
16847WAT      O50782   2.832   0.069   3.139
16847WAT     H150783   2.888   0.075   3.056
16847WAT     H250784   2.772   0.150   3.144
16848WAT      O50785   9.538   6.099   9.491
16848WAT     H150786   9.542   6.085   9.590
16848WAT     H250787   9.543   6.011   9.445
16849WAT      O50788   9.594   9.452   2.030
16849WAT     H150789   9.633   9.501   1.953
16849WAT     H250790   9.651   9.466   2.111
16850WAT      O50791   5.428   7.328   0.387
16850WAT     H150792   5.382   7.270   0.455
16850WAT     H250793   5.438   7.278   0.301
16851WAT      O50794   4.039   8.573   3.192
16851WAT     H150795   4.052   8.664   3.233
16851WAT     H250796   4.085   8.505   3.249
16852WAT      O50797   6.932   2.556   1.727
16852WAT     H150798   6.868   2.603   1.787
16852WAT     H250799   6.952   2.613   1.647
16853WAT      O50800   2.147   2.992   3.314
16853WAT     H150801   2.146   3.029   3.407
16853WAT     H250802   2.053   2.990   3.278
16854WAT      O50803   5.805   9.052   4.563
16854WAT     H150804   5.812   9.127   4.497
16854WAT     H250805   5.784   9.088   4.653
16855WAT      O50806   9.196   7.271   9.158
16855WAT     H150807   9.230   7.186   9.199
16855WAT     H250808   9.259   7.301   9.086
16856WAT      O50809   6.058   8.424   3.016
16856WAT     H150810   5.983   8.441   3.080
16856WAT     H250811   6.079   8.327   3.014
16857WAT      O50812   4.292   2.643   9.197
16857WAT     H150813   4.237   2.721   9.169
16857WAT     H250814   4.353   2.671   9.271
16858WAT      O50815   6.926   9.569   1.333
16858WAT     H150816   6.923   9.509   1.413
16858WAT     H250817   7.004   9.631   1.341
16859WAT      O50818   6.061   2.000   9.733
16859WAT     H150819   6.147   2.026   9.690
16859WAT     H250820   6.049   1.901   9.727
16860WAT      O50821   9.286   0.044   5.651
16860WAT     H150822   9.281  -0.052   5.681
16860WAT     H250823   9.270   0.048   5.552
16861WAT      O50824   4.770   3.120   8.887
16861WAT     H150825   4.726   3.202   8.850
16861WAT     H250826   4.802   3.063   8.812
16862WAT      O50827   4.407   8.983   8.538
16862WAT     H150828   4.329   9.004   8.597
16862WAT     H250829   4.456   9.068   8.516
16863WAT      O50830   8.828   2.496   9.601
16863WAT     H150831   8.757   2.542   9.655
16863WAT     H250832   8.796   2.485   9.507
16864WAT      O50833   6.097   8.532   8.591
16864WAT     H150834   6.002   8.500   8.595
16864WAT     H250835   6.112   8.600   8.663
16865WAT      O50836   7.531   4.940   7.917
16865WAT     H150837   7.496   4.967   8.007
16865WAT     H250838   7.546   5.021   7.861
16866WAT      O50839   7.400   7.856   2.560
16866WAT     H150840   7.496   7.873   2.535
16866WAT     H250841   7.363   7.784   2.501
16867WAT      O50842   4.101   9.841   4.377
16867WAT     H150843   4.199   9.861   4.384
16867WAT     H250844   4.088   9.745   4.352
16868WAT      O50845   8.858   2.812   3.812
16868WAT     H150846   8.860   2.880   3.738
16868WAT     H250847   8.943   2.817   3.864
16869WAT      O50848   3.197   4.576   8.168
16869WAT     H150849   3.127   4.515   8.205
16869WAT     H250850   3.265   4.595   8.239
16870WAT      O50851   1.695   5.497   8.024
16870WAT     H150852   1.778   5.483   7.969
16870WAT     H250853   1.666   5.410   8.063
16871WAT      O50854   9.129   3.344   8.223
16871WAT     H150855   9.124   3.386   8.132
16871WAT     H250856   9.042   3.299   8.243
16872WAT      O50857   0.177   2.950   6.413
16872WAT     H150858   0.139   2.880   6.353
16872WAT     H250859   0.105   3.016   6.437
16873WAT      O50860   6.384   3.827   7.302
16873WAT     H150861   6.284   3.833   7.303
16873WAT     H250862   6.412   3.736   7.270
16874WAT      O50863   2.708   6.374   7.843
16874WAT     H150864   2.722   6.469   7.817
16874WAT     H250865   2.754   6.314   7.778
16875WAT      O50866   8.785   1.803   1.843
16875WAT     H150867   8.776   1.753   1.930
16875WAT     H250868   8.880   1.832   1.831
16876WAT      O50869   5.863   2.367   0.866
16876WAT     H150870   5.837   2.338   0.774
16876WAT     H250871   5.781   2.390   0.919
16877WAT      O50872   1.055   0.975   3.517
16877WAT     H150873   1.107   1.010   3.595
16877WAT     H250874   1.048   1.047   3.448
16878WAT      O50875   2.866   8.115   4.464
16878WAT     H150876   2.776   8.086   4.498
16878WAT     H250877   2.911   8.171   4.535
16879WAT      O50878   2.459   4.441   0.273
16879WAT     H150879   2.527   4.495   0.322
16879WAT     H250880   2.449   4.352   0.317
16880WAT      O50881   2.151   4.444   0.577
16880WAT     H150882   2.241   4.445   0.621
16880WAT     H250883   2.142   4.361   0.521
16881WAT      O50884   4.767   0.905   3.344
16881WAT     H150885   4.703   0.966   3.298
16881WAT     H250886   4.795   0.832   3.281
16882WAT      O50887   4.113   2.178   1.981
16882WAT     H150888   4.041   2.215   1.923
16882WAT     H250889   4.091   2.195   2.077
16883WAT      O50890   5.439   1.660   6.670
16883WAT     H150891   5.390   1.577   6.698
16883WAT     H250892   5.453   1.658   6.571
16884WAT      O50893   0.697   3.108   8.390
16884WAT     H150894   0.701   3.067   8.299
16884WAT     H250895   0.665   3.203   8.383
16885WAT      O50896   4.285   2.824   3.661
16885WAT     H150897   4.366   2.825   3.719
16885WAT     H250898   4.258   2.729   3.641
16886WAT      O50899   4.096   7.890   6.081
16886WAT     H150900   4.023   7.899   6.149
16886WAT     H250901   4.097   7.970   6.021
16887WAT      O50902   3.397   2.460   2.352
16887WAT     H150903   3.347   2.378   2.327
16887WAT     H250904   3.495   2.445   2.340
16888WAT      O50905   5.642   6.095   0.243
16888WAT     H150906   5.712   6.093   0.314
16888WAT     H250907   5.567   6.155   0.272
16889WAT      O50908   0.433   1.869   7.722
16889WAT     H150909   0.351   1.817   7.745
16889WAT     H250910   0.510   1.839   7.778
16890WAT      O50911   0.188   7.313   9.579
16890WAT     H150912   0.231   7.312   9.489
16890WAT     H250913   0.136   7.229   9.593
16891WAT      O50914   3.168   6.957   0.657
16891WAT     H150915   3.093   6.945   0.592
16891WAT     H250916   3.133   6.992   0.744
16892WAT      O50917   9.577   5.363   8.801
16892WAT     H150918   9.503   5.338   8.864
16892WAT     H250919   9.548   5.344   8.707
16893WAT      O50920   9.114   5.175   9.772
16893WAT     H150921   9.127   5.223   9.859
16893WAT     H250922   9.099   5.242   9.699
16894WAT      O50923   7.921   6.239   8.215
16894WAT     H150924   7.862   6.206   8.288
16894WAT     H250925   7.913   6.339   8.208
16895WAT      O50926   0.933   0.708   5.774
16895WAT     H150927   0.931   0.624   5.719
16895WAT     H250928   0.871   0.776   5.734
16896WAT      O50929   1.687   2.373   9.490
16896WAT     H150930   1.766   2.379   9.428
16896WAT     H250931   1.610   2.424   9.452
16897WAT      O50932   7.216   1.642   2.002
16897WAT     H150933   7.208   1.735   1.967
16897WAT     H250934   7.152   1.583   1.954
16898WAT      O50935   5.245   8.950   3.273
16898WAT     H150936   5.227   9.016   3.346
16898WAT     H250937   5.323   8.892   3.299
16899WAT      O50938   0.328   8.052   5.239
16899WAT     H150939   0.245   7.998   5.225
16899WAT     H250940   0.317   8.111   5.319
16900WAT      O50941   3.589   0.683   7.662
16900WAT     H150942   3.545   0.652   7.578
16900WAT     H250943   3.519   0.707   7.729
16901WAT      O50944   8.046   2.434   2.634
16901WAT     H150945   8.142   2.460   2.620
16901WAT     H250946   7.992   2.517   2.652
16902WAT      O50947   5.398   3.422   7.076
16902WAT     H150948   5.440   3.346   7.125
16902WAT     H250949   5.299   3.416   7.083
16903WAT      O50950   8.247   3.345   2.781
16903WAT     H150951   8.311   3.347   2.858
16903WAT     H250952   8.156   3.320   2.814
16904WAT      O50953   5.420   5.423   2.126
16904WAT     H150954   5.405   5.341   2.070
16904WAT     H250955   5.387   5.503   2.076
16905WAT      O50956   6.550   6.150   3.424
16905WAT     H150957   6.453   6.160   3.402
16905WAT     H250958   6.593   6.088   3.359
16906WAT      O50959   2.256   9.644   7.831
16906WAT     H150960   2.158   9.626   7.837
16906WAT     H250961   2.282   9.712   7.900
16907WAT      O50962   1.777   0.944   6.282
16907WAT     H150963   1.775   1.010   6.206
16907WAT     H250964   1.788   0.993   6.368
16908WAT      O50965   7.202   0.168   3.856
16908WAT     H150966   7.172   0.232   3.785
16908WAT     H250967   7.270   0.106   3.819
16909WAT      O50968   6.836   4.549   8.565
16909WAT     H150969   6.839   4.591   8.474
16909WAT     H250970   6.927   4.518   8.591
16910WAT      O50971   4.488   0.680   9.443
16910WAT     H150972   4.505   0.711   9.537
16910WAT     H250973   4.476   0.760   9.383
16911WAT      O50974   8.048   9.535   5.531
16911WAT     H150975   8.091   9.477   5.463
16911WAT     H250976   8.066   9.499   5.623
16912WAT      O50977   2.563   4.831   6.736
16912WAT     H150978   2.519   4.749   6.699
16912WAT     H250979   2.498   4.907   6.735
16913WAT      O50980   2.862   1.366   0.933
16913WAT     H150981   2.845   1.425   0.855
16913WAT     H250982   2.931   1.298   0.909
16914WAT      O50983   7.178   8.429   6.605
16914WAT     H150984   7.154   8.470   6.516
16914WAT     H250985   7.176   8.330   6.598
16915WAT      O50986   2.043   0.813   7.285
16915WAT     H150987   2.094   0.836   7.369
16915WAT     H250988   2.029   0.897   7.231
16916WAT      O50989   8.627   1.711   3.013
16916WAT     H150990   8.643   1.803   3.049
16916WAT     H250991   8.713   1.674   2.978
16917WAT      O50992   0.214   8.161   2.867
16917WAT     H150993   0.173   8.119   2.785
16917WAT     H250994   0.291   8.104   2.898
16918WAT      O50995   7.908   1.059   3.282
16918WAT     H150996   7.851   0.978   3.296
16918WAT     H250997   7.935   1.096   3.370
16919WAT      O50998   2.872   1.691   4.615
16919WAT     H150999   2.903   1.644   4.533
16919WAT     H251000   2.861   1.625   4.690
16920WAT      O51001   0.288   5.261   0.087
16920WAT     H151002   0.235   5.329   0.036
16920WAT     H251003   0.227   5.201   0.138
16921WAT      O51004   1.191   7.227   8.406
16921WAT     H151005   1.180   7.308   8.347
16921WAT     H251006   1.176   7.254   8.501
16922WAT      O51007   7.764   0.176   9.413
16922WAT     H151008   7.747   0.100   9.476
16922WAT     H251009   7.859   0.170   9.380
16923WAT      O51010   0.869   2.771   5.349
16923WAT     H151011   0.951   2.719   5.324
16923WAT     H251012   0.877   2.864   5.315
16924WAT      O51013   8.711   1.438   1.661
16924WAT     H151014   8.735   1.403   1.570
16924WAT     H251015   8.740   1.372   1.730
16925WAT      O51016   7.947   2.831   3.307
16925WAT     H151017   7.880   2.858   3.377
16925WAT     H251018   8.036   2.817   3.350
16926WAT      O51019   5.327   6.492   0.103
16926WAT     H151020   5.301   6.488   0.200
16926WAT     H251021   5.393   6.419   0.083
16927WAT      O51022   7.946   7.699   5.449
16927WAT     H151023   7.950   7.602   5.475
16927WAT     H251024   7.855   7.735   5.468
16928WAT      O51025   1.264   9.130   8.855
16928WAT     H151026   1.194   9.118   8.784
16928WAT     H251027   1.349   9.162   8.812
16929WAT      O51028   9.362   2.505   7.013
16929WAT     H151029   9.302   2.509   7.092
16929WAT     H251030   9.409   2.593   7.002
16930WAT      O51031   3.691   2.114   1.015
16930WAT     H151032   3.733   2.115   0.924
16930WAT     H251033   3.700   2.205   1.056
16931WAT      O51034   2.740   0.427   4.917
16931WAT     H151035   2.765   0.400   4.824
16931WAT     H251036   2.664   0.492   4.914
16932WAT      O51037   0.180   9.170   4.303
16932WAT     H151038   0.270   9.181   4.261
16932WAT     H251039   0.182   9.206   4.397
16933WAT      O51040   2.311   5.120   1.056
16933WAT     H151041   2.256   5.135   0.975
16933WAT     H251042   2.260   5.150   1.137
16934WAT      O51043   8.046   3.138   3.546
16934WAT     H151044   7.977   3.066   3.545
16934WAT     H251045   8.009   3.219   3.591
16935WAT      O51046   4.056   9.558   4.290
16935WAT     H151047   3.983   9.572   4.357
16935WAT     H251048   4.018   9.559   4.198
16936WAT      O51049   9.712   2.463   0.163
16936WAT     H151050   9.622   2.431   0.190
16936WAT     H251051   9.751   2.401   0.094
16937WAT      O51052   3.523   3.987   8.721
16937WAT     H151053   3.482   4.004   8.632
16937WAT     H251054   3.537   4.073   8.769
16938WAT      O51055   1.685   1.662   4.354
16938WAT     H151056   1.743   1.727   4.305
16938WAT     H251057   1.718   1.569   4.336
16939WAT      O51058   5.922   1.706   5.820
16939WAT     H151059   5.872   1.634   5.772
16939WAT     H251060   5.964   1.767   5.753
16940WAT      O51061   7.229   9.288   1.704
16940WAT     H151062   7.225   9.244   1.615
16940WAT     H251063   7.174   9.371   1.704
16941WAT      O51064   5.679   7.941   1.153
16941WAT     H151065   5.602   7.992   1.191
16941WAT     H251066   5.726   7.996   1.084
16942WAT      O51067   0.828   2.080   5.181
16942WAT     H151068   0.822   2.076   5.082
16942WAT     H251069   0.914   2.124   5.208
16943WAT      O51070   4.969   2.309   2.817
16943WAT     H151071   5.015   2.272   2.737
16943WAT     H251072   4.986   2.407   2.824
16944WAT      O51073   8.588   3.675   5.786
16944WAT     H151074   8.544   3.755   5.746
16944WAT     H251075   8.609   3.609   5.714
16945WAT      O51076   2.472   3.755   7.359
16945WAT     H151077   2.471   3.704   7.445
16945WAT     H251078   2.542   3.826   7.363
16946WAT      O51079   3.540   6.649   0.702
16946WAT     H151080   3.586   6.663   0.615
16946WAT     H251081   3.446   6.683   0.697
16947WAT      O51082   9.346   5.225   2.221
16947WAT     H151083   9.260   5.249   2.265
16947WAT     H251084   9.367   5.129   2.239
16948WAT      O51085   9.340   2.388   9.101
16948WAT     H151086   9.423   2.378   9.047
16948WAT     H251087   9.352   2.461   9.168
16949WAT      O51088   0.482   9.286   8.077
16949WAT     H151089   0.435   9.276   8.164
16949WAT     H251090   0.426   9.338   8.014
16950WAT      O51091   5.446   2.005   2.457
16950WAT     H151092   5.451   2.048   2.548
16950WAT     H251093   5.421   1.909   2.467
16951WAT      O51094   4.174   5.316   2.650
16951WAT     H151095   4.203   5.407   2.678
16951WAT     H251096   4.075   5.314   2.640
16952WAT      O51097   3.918   0.947   7.004
16952WAT     H151098   3.937   0.850   6.991
16952WAT     H251099   4.001   0.993   7.034
16953WAT      O51100   4.512   5.028   2.413
16953WAT     H151101   4.580   5.090   2.453
16953WAT     H251102   4.430   5.027   2.471
16954WAT      O51103   5.614   3.694   8.942
16954WAT     H151104   5.705   3.655   8.934
16954WAT     H251105   5.599   3.759   8.867
16955WAT      O51106   2.744   7.280   8.293
16955WAT     H151107   2.789   7.345   8.231
16955WAT     H251108   2.686   7.331   8.357
16956WAT      O51109   3.242   6.961   4.132
16956WAT     H151110   3.282   6.935   4.044
16956WAT     H251111   3.296   6.921   4.206
16957WAT      O51112   4.017   1.395   2.540
16957WAT     H151113   4.060   1.305   2.529
16957WAT     H251114   3.929   1.384   2.587
16958WAT      O51115   5.761   4.077   9.231
16958WAT     H151116   5.804   4.093   9.142
16958WAT     H251117   5.662   4.075   9.221
16959WAT      O51118   1.815   1.717   5.521
16959WAT     H151119   1.717   1.733   5.512
16959WAT     H251120   1.848   1.664   5.442
16960WAT      O51121   3.243   5.366   4.179
16960WAT     H151122   3.302   5.425   4.124
16960WAT     H251123   3.173   5.421   4.224
16961WAT      O51124   0.996   8.892   2.528
16961WAT     H151125   1.089   8.867   2.499
16961WAT     H251126   0.958   8.959   2.465
16962WAT      O51127   4.439   1.132   8.811
16962WAT     H151128   4.459   1.193   8.734
16962WAT     H251129   4.343   1.143   8.838
16963WAT      O51130   6.847   8.502   5.514
16963WAT     H151131   6.908   8.456   5.450
16963WAT     H251132   6.783   8.560   5.464
16964WAT      O51133   6.533   5.070   2.916
16964WAT     H151134   6.626   5.099   2.940
16964WAT     H251135   6.521   5.075   2.817
16965WAT      O51136   5.647   4.289   5.361
16965WAT     H151137   5.599   4.327   5.282
16965WAT     H251138   5.622   4.193   5.372
16966WAT      O51139   8.825   8.672   5.274
16966WAT     H151140   8.753   8.714   5.219
16966WAT     H251141   8.785   8.604   5.336
16967WAT      O51142   8.433   1.745   5.539
16967WAT     H151143   8.492   1.677   5.495
16967WAT     H251144   8.375   1.700   5.607
16968WAT      O51145   5.596   0.646   8.968
16968WAT     H151146   5.695   0.639   8.982
16968WAT     H251147   5.573   0.615   8.876
16969WAT      O51148   1.157   1.023   1.954
16969WAT     H151149   1.171   0.941   1.898
16969WAT     H251150   1.241   1.042   2.005
16970WAT      O51151   2.435   4.985   5.972
16970WAT     H151152   2.520   4.979   5.919
16970WAT     H251153   2.361   5.014   5.912
16971WAT      O51154   9.042   2.427   7.047
16971WAT     H151155   9.057   2.506   7.107
16971WAT     H251156   9.046   2.343   7.101
16972WAT      O51157   4.560   8.644   1.549
16972WAT     H151158   4.579   8.659   1.452
16972WAT     H251159   4.543   8.546   1.565
16973WAT      O51160   7.331   1.820   8.515
16973WAT     H151161   7.309   1.900   8.459
16973WAT     H251162   7.298   1.834   8.608
16974WAT      O51163   1.035   4.554   9.449
16974WAT     H151164   1.040   4.474   9.390
16974WAT     H251165   1.014   4.635   9.394
16975WAT      O51166   7.741   1.966   1.636
16975WAT     H151167   7.717   1.923   1.724
16975WAT     H251168   7.799   1.904   1.584
16976WAT      O51169   0.645   5.112   8.271
16976WAT     H151170   0.594   5.049   8.330
16976WAT     H251171   0.601   5.202   8.273
16977WAT      O51172   5.437   0.659   0.631
16977WAT     H151173   5.484   0.681   0.717
16977WAT     H251174   5.406   0.564   0.634
16978WAT      O51175   8.516   7.434   5.633
16978WAT     H151176   8.423   7.471   5.631
16978WAT     H251177   8.526   7.364   5.561
16979WAT      O51178   2.454   8.000   9.193
16979WAT     H151179   2.484   7.934   9.125
16979WAT     H251180   2.419   8.082   9.147
16980WAT      O51181   5.939   5.666   2.881
16980WAT     H151182   5.995   5.620   2.950
16980WAT     H251183   5.875   5.600   2.840
16981WAT      O51184   6.361   8.335   7.126
16981WAT     H151185   6.376   8.301   7.219
16981WAT     H251186   6.326   8.261   7.069
16982WAT      O51187   3.758   0.260   9.281
16982WAT     H151188   3.780   0.340   9.224
16982WAT     H251189   3.672   0.220   9.250
16983WAT      O51190   6.155   3.444   1.830
16983WAT     H151191   6.158   3.398   1.919
16983WAT     H251192   6.246   3.442   1.789
16984WAT      O51193   2.631   0.989   3.616
16984WAT     H151194   2.645   0.893   3.593
16984WAT     H251195   2.546   0.999   3.668
16985WAT      O51196   9.436   9.739   9.297
16985WAT     H151197   9.340   9.725   9.321
16985WAT     H251198   9.492   9.728   9.379
16986WAT      O51199   9.297   6.266   1.438
16986WAT     H151200   9.204   6.275   1.473
16986WAT     H251201   9.362   6.300   1.507
16987WAT      O51202   4.715   7.729   7.509
16987WAT     H151203   4.672   7.645   7.476
16987WAT     H251204   4.793   7.751   7.450
16988WAT      O51205   9.168   6.674   1.163
16988WAT     H151206   9.139   6.716   1.249
16988WAT     H251207   9.252   6.719   1.131
16989WAT      O51208   1.532   5.608   0.909
16989WAT     H151209   1.472   5.552   0.852
16989WAT     H251210   1.478   5.664   0.971
16990WAT      O51211   6.849   4.131   2.291
16990WAT     H151212   6.809   4.059   2.234
16990WAT     H251213   6.945   4.110   2.309
16991WAT      O51214   8.815   5.927   3.094
16991WAT     H151215   8.753   5.885   3.027
16991WAT     H251216   8.790   5.896   3.186
16992WAT      O51217   1.237   6.649   0.055
16992WAT     H151218   1.144   6.613   0.045
16992WAT     H251219   1.265   6.643   0.151
16993WAT      O51220   3.576   5.048   2.645
16993WAT     H151221   3.652   5.052   2.580
16993WAT     H251222   3.532   5.137   2.650
16994WAT      O51223   7.122   7.193   5.811
16994WAT     H151224   7.071   7.193   5.725
16994WAT     H251225   7.060   7.179   5.887
16995WAT      O51226   1.183   5.164   1.812
16995WAT     H151227   1.257   5.173   1.745
16995WAT     H251228   1.222   5.152   1.903
16996WAT      O51229   8.429   0.570   7.934
16996WAT     H151230   8.397   0.489   7.885
16996WAT     H251231   8.368   0.646   7.917
16997WAT      O51232   5.452   5.752   7.035
16997WAT     H151233   5.434   5.843   7.071
16997WAT     H251234   5.551   5.737   7.029
16998WAT      O51235   5.592   8.560   0.674
16998WAT     H151236   5.678   8.566   0.724
16998WAT     H251237   5.610   8.536   0.578
16999WAT      O51238   5.868   8.237   8.591
16999WAT     H151239   5.805   8.172   8.548
16999WAT     H251240   5.823   8.279   8.671
17000WAT      O51241   0.850   0.468   0.751
17000WAT     H151242   0.914   0.416   0.806
17000WAT     H251243   0.887   0.559   0.732
17001WAT      O51244   5.705   2.510   5.628
17001WAT     H151245   5.802   2.490   5.617
17001WAT     H251246   5.693   2.603   5.664
17002WAT      O51247   4.224   4.278   1.562
17002WAT     H151248   4.169   4.200   1.533
17002WAT     H251249   4.288   4.249   1.633
17003WAT      O51250   1.616   5.719   0.208
17003WAT     H151251   1.540   5.660   0.234
17003WAT     H251252   1.663   5.752   0.290
17004WAT      O51253   3.774   8.247   2.045
17004WAT     H151254   3.806   8.153   2.060
17004WAT     H251255   3.679   8.255   2.074
17005WAT      O51256   4.003   5.993   3.260
17005WAT     H151257   3.962   6.036   3.180
17005WAT     H251258   4.019   6.063   3.330
17006WAT      O51259   5.472   8.229   6.898
17006WAT     H151260   5.535   8.306   6.910
17006WAT     H251261   5.522   8.143   6.910
17007WAT      O51262   6.100   3.502   5.390
17007WAT     H151263   6.075   3.597   5.368
17007WAT     H251264   6.032   3.440   5.351
17008WAT      O51265   9.428   4.134   7.224
17008WAT     H151266   9.475   4.106   7.308
17008WAT     H251267   9.329   4.130   7.239
17009WAT      O51268   1.614   2.864   7.855
17009WAT     H151269   1.610   2.949   7.803
17009WAT     H251270   1.522   2.827   7.868
17010WAT      O51271   2.468   7.395   2.561
17010WAT     H151272   2.459   7.413   2.463
17010WAT     H251273   2.478   7.482   2.610
17011WAT      O51274   2.405   3.291   6.017
17011WAT     H151275   2.445   3.293   6.109
17011WAT     H251276   2.464   3.239   5.956
17012WAT      O51277   1.826   6.506   5.503
17012WAT     H151278   1.781   6.557   5.429
17012WAT     H251279   1.781   6.527   5.590
17013WAT      O51280   6.728   4.160   4.744
17013WAT     H151281   6.736   4.108   4.659
17013WAT     H251282   6.739   4.258   4.724
17014WAT      O51283   1.661   6.816   3.155
17014WAT     H151284   1.614   6.797   3.069
17014WAT     H251285   1.625   6.901   3.195
17015WAT      O51286   8.372   0.267   3.013
17015WAT     H151287   8.315   0.332   3.063
17015WAT     H251288   8.315   0.194   2.976
17016WAT      O51289   5.135   3.157   0.279
17016WAT     H151290   5.176   3.243   0.248
17016WAT     H251291   5.207   3.089   0.293
17017WAT      O51292   4.462   4.414   1.444
17017WAT     H151293   4.383   4.365   1.481
17017WAT     H251294   4.468   4.400   1.346
17018WAT      O51295   1.516   9.367   9.559
17018WAT     H151296   1.451   9.358   9.484
17018WAT     H251297   1.488   9.443   9.618
17019WAT      O51298   7.711   1.232   4.220
17019WAT     H151299   7.790   1.189   4.262
17019WAT     H251300   7.707   1.329   4.248
17020WAT      O51301   3.330   1.120   7.031
17020WAT     H151302   3.242   1.072   7.034
17020WAT     H251303   3.385   1.083   6.956
17021WAT      O51304   1.874   9.415   4.955
17021WAT     H151305   1.880   9.458   4.865
17021WAT     H251306   1.827   9.327   4.946
17022WAT      O51307   0.195   6.200   8.318
17022WAT     H151308   0.207   6.292   8.282
17022WAT     H251309   0.284   6.160   8.338
17023WAT      O51310   9.192   6.225   0.151
17023WAT     H151311   9.175   6.292   0.223
17023WAT     H251312   9.290   6.218   0.134
17024WAT      O51313   8.005   1.804   0.943
17024WAT     H151314   7.971   1.890   0.906
17024WAT     H251315   8.058   1.756   0.873
17025WAT      O51316   7.632   7.654   3.807
17025WAT     H151317   7.658   7.574   3.753
17025WAT     H251318   7.558   7.630   3.870
17026WAT      O51319   7.592   9.560   3.860
17026WAT     H151320   7.656   9.637   3.854
17026WAT     H251321   7.628   9.493   3.925
17027WAT      O51322   5.462   3.069   3.888
17027WAT     H151323   5.554   3.048   3.920
17027WAT     H251324   5.452   3.167   3.872
17028WAT      O51325   2.932   2.795   4.685
17028WAT     H151326   2.914   2.876   4.740
17028WAT     H251327   2.869   2.722   4.711
17029WAT      O51328   7.158   5.450   5.290
17029WAT     H151329   7.203   5.539   5.286
17029WAT     H251330   7.199   5.388   5.223
17030WAT      O51331   3.252   3.529   3.416
17030WAT     H151332   3.208   3.469   3.482
17030WAT     H251333   3.184   3.562   3.350
17031WAT      O51334   4.757   6.131   3.138
17031WAT     H151335   4.677   6.150   3.081
17031WAT     H251336   4.735   6.057   3.202
17032WAT      O51337   0.367   4.217   1.783
17032WAT     H151338   0.421   4.243   1.863
17032WAT     H251339   0.353   4.297   1.724
17033WAT      O51340   2.368   5.359   6.220
17033WAT     H151341   2.465   5.344   6.203
17033WAT     H251342   2.337   5.441   6.172
17034WAT      O51343   2.020   4.891   1.246
17034WAT     H151344   2.023   4.894   1.146
17034WAT     H251345   2.067   4.809   1.279
17035WAT      O51346   3.980   9.592   2.222
17035WAT     H151347   3.902   9.535   2.199
17035WAT     H251348   3.952   9.662   2.288
17036WAT      O51349   5.263   1.722   6.394
17036WAT     H151350   5.303   1.631   6.381
17036WAT     H251351   5.239   1.762   6.306
17037WAT      O51352   7.228   5.855   6.583
17037WAT     H151353   7.276   5.786   6.637
17037WAT     H251354   7.284   5.938   6.576
17038WAT      O51355   0.882   9.095   8.771
17038WAT     H151356   0.896   9.025   8.701
17038WAT     H251357   0.886   9.053   8.862
17039WAT      O51358   0.972   6.108   9.490
17039WAT     H151359   0.931   6.039   9.430
17039WAT     H251360   1.057   6.141   9.449
17040WAT      O51361   9.722   5.596   0.876
17040WAT     H151362   9.673   5.529   0.932
17040WAT     H251363   9.668   5.680   0.870
17041WAT      O51364   5.720   8.270   4.684
17041WAT     H151365   5.781   8.348   4.669
17041WAT     H251366   5.773   8.185   4.679
17042WAT      O51367   5.341   8.170   8.337
17042WAT     H151368   5.249   8.137   8.359
17042WAT     H251369   5.380   8.216   8.417
17043WAT      O51370   3.508   4.661   1.955
17043WAT     H151371   3.427   4.662   1.896
17043WAT     H251372   3.587   4.695   1.904
17044WAT      O51373   4.983   8.673   5.335
17044WAT     H151374   5.041   8.638   5.409
17044WAT     H251375   4.902   8.717   5.375
17045WAT      O51376   3.558   1.981   3.340
17045WAT     H151377   3.644   2.010   3.380
17045WAT     H251378   3.493   1.958   3.413
17046WAT      O51379   4.296   6.767   7.372
17046WAT     H151380   4.231   6.734   7.304
17046WAT     H251381   4.346   6.690   7.411
17047WAT      O51382   8.384   6.805   3.189
17047WAT     H151383   8.376   6.899   3.157
17047WAT     H251384   8.478   6.774   3.177
17048WAT      O51385   6.188   0.246   9.371
17048WAT     H151386   6.278   0.227   9.333
17048WAT     H251387   6.197   0.312   9.446
17049WAT      O51388   6.213   9.430   5.009
17049WAT     H151389   6.188   9.347   4.960
17049WAT     H251390   6.190   9.510   4.953
17050WAT      O51391   5.269   5.494   0.275
17050WAT     H151392   5.367   5.487   0.294
17050WAT     H251393   5.242   5.418   0.215
17051WAT      O51394   9.600   1.079   1.247
17051WAT     H151395   9.501   1.086   1.239
17051WAT     H251396   9.626   0.982   1.252
17052WAT      O51397   2.448   6.393   1.817
17052WAT     H151398   2.400   6.326   1.761
17052WAT     H251399   2.544   6.366   1.827
17053WAT      O51400   0.111   6.867   4.193
17053WAT     H151401   0.194   6.888   4.246
17053WAT     H251402   0.038   6.930   4.219
17054WAT      O51403   4.128   5.924   0.485
17054WAT     H151404   4.160   5.895   0.394
17054WAT     H251405   4.064   6.000   0.474
17055WAT      O51406   3.765   5.216   6.387
17055WAT     H151407   3.806   5.154   6.454
17055WAT     H251408   3.669   5.229   6.408
17056WAT      O51409   0.801   7.409   7.520
17056WAT     H151410   0.852   7.484   7.479
17056WAT     H251411   0.818   7.407   7.619
17057WAT      O51412   0.581   4.636   8.724
17057WAT     H151413   0.642   4.625   8.803
17057WAT     H251414   0.632   4.613   8.640
17058WAT      O51415   5.647   3.273   0.963
17058WAT     H151416   5.575   3.237   0.904
17058WAT     H251417   5.725   3.211   0.963
17059WAT      O51418   6.889   1.633   2.086
17059WAT     H151419   6.851   1.561   2.144
17059WAT     H251420   6.931   1.592   2.006
17060WAT      O51421   2.387   8.837   0.401
17060WAT     H151422   2.445   8.808   0.325
17060WAT     H251423   2.314   8.769   0.414
17061WAT      O51424   1.337   5.151   8.842
17061WAT     H151425   1.422   5.112   8.806
17061WAT     H251426   1.276   5.172   8.766
17062WAT      O51427   1.575   4.723   0.964
17062WAT     H151428   1.574   4.627   0.994
17062WAT     H251429   1.659   4.742   0.914
17063WAT      O51430   0.780   2.926   3.869
17063WAT     H151431   0.769   2.896   3.963
17063WAT     H251432   0.722   3.006   3.853
17064WAT      O51433   0.103   2.124   6.066
17064WAT     H151434   0.170   2.174   6.011
17064WAT     H251435   0.012   2.136   6.027
17065WAT      O51436   1.905   4.987   6.047
17065WAT     H151437   1.813   5.025   6.058
17065WAT     H251438   1.972   5.060   6.056
17066WAT      O51439   4.464   8.711   1.192
17066WAT     H151440   4.471   8.611   1.194
17066WAT     H251441   4.403   8.738   1.117
17067WAT      O51442   4.592   1.552   6.512
17067WAT     H151443   4.654   1.597   6.575
17067WAT     H251444   4.514   1.514   6.563
17068WAT      O51445   6.506   9.426   5.044
17068WAT     H151446   6.408   9.413   5.025
17068WAT     H251447   6.559   9.372   4.978
17069WAT      O51448   8.581   9.022   5.851
17069WAT     H151449   8.506   8.973   5.895
17069WAT     H251450   8.653   8.957   5.826
17070WAT      O51451   9.270   1.408   1.425
17070WAT     H151452   9.256   1.470   1.348
17070WAT     H251453   9.332   1.450   1.491
17071WAT      O51454   1.764   4.268   3.874
17071WAT     H151455   1.828   4.335   3.836
17071WAT     H251456   1.712   4.310   3.948
17072WAT      O51457   7.307   9.199   0.889
17072WAT     H151458   7.239   9.177   0.819
17072WAT     H251459   7.340   9.293   0.875
17073WAT      O51460   6.441   1.994   8.857
17073WAT     H151461   6.434   2.078   8.804
17073WAT     H251462   6.479   2.014   8.947
17074WAT      O51463   2.494   1.909   9.591
17074WAT     H151464   2.495   1.902   9.491
17074WAT     H251465   2.540   1.830   9.631
17075WAT      O51466   4.259   5.477   3.342
17075WAT     H151467   4.347   5.504   3.303
17075WAT     H251468   4.273   5.406   3.411
17076WAT      O51469   6.920   5.876   0.401
17076WAT     H151470   6.994   5.832   0.350
17076WAT     H251471   6.832   5.840   0.369
17077WAT      O51472   0.731   9.724   6.924
17077WAT     H151473   0.648   9.711   6.870
17077WAT     H251474   0.776   9.808   6.896
17078WAT      O51475   2.653   7.292   6.327
17078WAT     H151476   2.746   7.264   6.301
17078WAT     H251477   2.590   7.272   6.252
17079WAT      O51478   5.871   1.983   3.403
17079WAT     H151479   5.802   2.026   3.344
17079WAT     H251480   5.931   1.926   3.347
17080WAT      O51481   5.836   4.918   8.186
17080WAT     H151482   5.798   4.844   8.243
17080WAT     H251483   5.772   4.995   8.185
17081WAT      O51484   5.281   3.492   4.861
17081WAT     H151485   5.264   3.575   4.808
17081WAT     H251486   5.232   3.498   4.948
17082WAT      O51487   0.167   2.058   7.021
17082WAT     H151488   0.094   1.993   6.998
17082WAT     H251489   0.141   2.109   7.103
17083WAT      O51490   3.701   1.194   0.800
17083WAT     H151491   3.716   1.095   0.809
17083WAT     H251492   3.679   1.216   0.704
17084WAT      O51493   2.994   4.581   2.039
17084WAT     H151494   2.934   4.501   2.043
17084WAT     H251495   3.034   4.589   1.948
17085WAT      O51496   5.764   3.847   6.330
17085WAT     H151497   5.719   3.935   6.316
17085WAT     H251498   5.782   3.834   6.428
17086WAT      O51499   5.066   1.752   4.433
17086WAT     H151500   5.014   1.824   4.477
17086WAT     H251501   5.049   1.754   4.334
17087WAT      O51502   4.785   4.803   1.881
17087WAT     H151503   4.762   4.714   1.841
17087WAT     H251504   4.831   4.789   1.968
17088WAT      O51505   4.345   2.626   5.891
17088WAT     H151506   4.410   2.551   5.882
17088WAT     H251507   4.311   2.630   5.985
17089WAT      O51508   0.402   5.476   5.641
17089WAT     H151509   0.379   5.573   5.653
17089WAT     H251510   0.328   5.420   5.678
17090WAT      O51511   1.018   7.387   1.455
17090WAT     H151512   1.031   7.332   1.372
17090WAT     H251513   0.998   7.327   1.532
17091WAT      O51514   4.302   8.789   0.988
17091WAT     H151515   4.350   8.774   0.901
17091WAT     H251516   4.281   8.886   0.998
17092WAT      O51517   6.481   7.540   8.571
17092WAT     H151518   6.498   7.599   8.492
17092WAT     H251519   6.506   7.446   8.549
17093WAT      O51520   7.369   6.398   3.219
17093WAT     H151521   7.424   6.466   3.172
17093WAT     H251522   7.292   6.371   3.160
17094WAT      O51523   8.114   9.445   2.919
17094WAT     H151524   8.031   9.400   2.952
17094WAT     H251525   8.141   9.407   2.831
17095WAT      O51526   9.861   6.847   3.709
17095WAT     H151527   9.904   6.843   3.799
17095WAT     H251528   9.830   6.940   3.690
17096WAT      O51529   0.062   6.512   8.651
17096WAT     H151530   0.150   6.553   8.625
17096WAT     H251531   0.044   6.432   8.593
17097WAT      O51532   5.674   0.217   1.376
17097WAT     H151533   5.771   0.195   1.365
17097WAT     H251534   5.642   0.182   1.464
17098WAT      O51535   1.726   2.054   1.559
17098WAT     H151536   1.674   1.993   1.499
17098WAT     H251537   1.709   2.031   1.654
17099WAT      O51538   9.193   8.570   8.700
17099WAT     H151539   9.116   8.535   8.647
17099WAT     H251540   9.205   8.667   8.681
17100WAT      O51541   1.225   3.809   3.331
17100WAT     H151542   1.283   3.814   3.412
17100WAT     H251543   1.166   3.890   3.327
17101WAT      O51544   8.344   9.022   8.303
17101WAT     H151545   8.332   9.116   8.337
17101WAT     H251546   8.336   9.022   8.203
17102WAT      O51547   2.688   5.779   7.472
17102WAT     H151548   2.723   5.704   7.528
17102WAT     H251549   2.594   5.799   7.498
17103WAT      O51550   1.344   3.077   7.370
17103WAT     H151551   1.372   3.166   7.405
17103WAT     H251552   1.275   3.089   7.298
17104WAT      O51553   4.289   1.337   5.182
17104WAT     H151554   4.296   1.240   5.158
17104WAT     H251555   4.371   1.365   5.231
17105WAT      O51556   6.582   8.446   8.030
17105WAT     H151557   6.541   8.532   8.058
17105WAT     H251558   6.523   8.370   8.057
17106WAT      O51559   1.433   4.139   6.534
17106WAT     H151560   1.394   4.086   6.610
17106WAT     H251561   1.383   4.118   6.450
17107WAT      O51562   2.438   1.447   1.370
17107WAT     H151563   2.487   1.369   1.331
17107WAT     H251564   2.448   1.445   1.469
17108WAT      O51565   6.963   8.496   1.502
17108WAT     H151566   6.930   8.581   1.542
17108WAT     H251567   6.934   8.419   1.559
17109WAT      O51568   9.051   0.932   4.676
17109WAT     H151569   9.013   0.894   4.760
17109WAT     H251570   9.131   0.988   4.699
17110WAT      O51571   7.244   8.706   4.900
17110WAT     H151572   7.318   8.749   4.848
17110WAT     H251573   7.259   8.721   4.998
17111WAT      O51574   1.861   1.682   6.459
17111WAT     H151575   1.825   1.606   6.513
17111WAT     H251576   1.938   1.650   6.404
17112WAT      O51577   0.941   8.347   3.450
17112WAT     H151578   0.991   8.419   3.498
17112WAT     H251579   1.002   8.269   3.433
17113WAT      O51580   8.872   2.198   4.336
17113WAT     H151581   8.845   2.294   4.322
17113WAT     H251582   8.967   2.187   4.311
17114WAT      O51583   2.433   9.569   7.165
17114WAT     H151584   2.404   9.651   7.214
17114WAT     H251585   2.508   9.525   7.215
17115WAT      O51586   1.953   8.699   1.368
17115WAT     H151587   2.042   8.732   1.335
17115WAT     H251588   1.947   8.601   1.352
17116WAT      O51589   6.252   1.086   2.471
17116WAT     H151590   6.289   0.997   2.443
17116WAT     H251591   6.208   1.130   2.393
17117WAT      O51592   6.205   9.298   3.136
17117WAT     H151593   6.258   9.362   3.192
17117WAT     H251594   6.138   9.349   3.082
17118WAT      O51595   2.730   8.339   0.412
17118WAT     H151596   2.802   8.305   0.351
17118WAT     H251597   2.769   8.355   0.503
17119WAT      O51598   3.941   2.477   4.811
17119WAT     H151599   3.995   2.557   4.837
17119WAT     H251600   3.966   2.448   4.719
17120WAT      O51601   4.471   0.223   1.998
17120WAT     H151602   4.436   0.271   2.078
17120WAT     H251603   4.520   0.141   2.028
17121WAT      O51604   2.525   4.588   3.131
17121WAT     H151605   2.484   4.649   3.063
17121WAT     H251606   2.530   4.495   3.095
17122WAT      O51607   7.189   2.970   3.461
17122WAT     H151608   7.215   2.995   3.554
17122WAT     H251609   7.089   2.963   3.455
17123WAT      O51610   0.592   3.921   5.168
17123WAT     H151611   0.685   3.938   5.200
17123WAT     H251612   0.529   3.920   5.245
17124WAT      O51613   5.665   7.121   1.174
17124WAT     H151614   5.693   7.155   1.264
17124WAT     H251615   5.571   7.150   1.156
17125WAT      O51616   1.588   7.512   5.521
17125WAT     H151617   1.597   7.452   5.441
17125WAT     H251618   1.608   7.460   5.604
17126WAT      O51619   0.428   6.351   4.006
17126WAT     H151620   0.482   6.403   3.940
17126WAT     H251621   0.337   6.334   3.969
17127WAT      O51622   5.044   5.224   2.834
17127WAT     H151623   4.944   5.228   2.841
17127WAT     H251624   5.073   5.129   2.832
17128WAT      O51625   0.710   1.613   6.942
17128WAT     H151626   0.650   1.552   6.890
17128WAT     H251627   0.657   1.690   6.977
17129WAT      O51628   9.427   5.605   4.605
17129WAT     H151629   9.331   5.597   4.579
17129WAT     H251630   9.439   5.682   4.667
17130WAT      O51631   0.681   6.175   4.246
17130WAT     H151632   0.701   6.077   4.243
17130WAT     H251633   0.750   6.225   4.193
17131WAT      O51634   8.387   2.481   1.560
17131WAT     H151635   8.379   2.581   1.560
17131WAT     H251636   8.332   2.443   1.634
17132WAT      O51637   1.434   5.232   6.459
17132WAT     H151638   1.492   5.249   6.539
17132WAT     H251639   1.452   5.140   6.424
17133WAT      O51640   1.709   0.692   5.925
17133WAT     H151641   1.609   0.690   5.920
17133WAT     H251642   1.743   0.782   5.899
17134WAT      O51643   8.943   6.313   8.035
17134WAT     H151644   9.018   6.378   8.022
17134WAT     H251645   8.963   6.255   8.114
17135WAT      O51646   1.344   7.697   4.111
17135WAT     H151647   1.270   7.629   4.115
17135WAT     H251648   1.425   7.661   4.157
17136WAT      O51649   8.249   4.747   5.060
17136WAT     H151650   8.268   4.762   5.158
17136WAT     H251651   8.175   4.807   5.031
17137WAT      O51652   7.299   6.082   3.371
17137WAT     H151653   7.350   6.155   3.325
17137WAT     H251654   7.358   6.002   3.382
17138WAT      O51655   9.042   4.505   0.573
17138WAT     H151656   8.987   4.425   0.597
17138WAT     H251657   9.057   4.507   0.474
17139WAT      O51658   9.482   5.789   3.656
17139WAT     H151659   9.513   5.857   3.723
17139WAT     H251660   9.383   5.797   3.644
17140WAT      O51661   6.579   7.952   4.478
17140WAT     H151662   6.596   7.884   4.548
17140WAT     H251663   6.644   7.939   4.402
17141WAT      O51664   9.014   4.974   7.079
17141WAT     H151665   9.050   5.003   6.991
17141WAT     H251666   9.043   4.880   7.099
17142WAT      O51667   8.495   9.248   5.197
17142WAT     H151668   8.448   9.334   5.180
17142WAT     H251669   8.550   9.223   5.118
17143WAT      O51670   1.450   6.013   4.100
17143WAT     H151671   1.405   6.085   4.154
17143WAT     H251672   1.469   5.935   4.159
17144WAT      O51673   6.988   9.292   0.265
17144WAT     H151674   6.938   9.362   0.316
17144WAT     H251675   6.997   9.209   0.321
17145WAT      O51676   5.514   8.835   2.938
17145WAT     H151677   5.604   8.853   2.978
17145WAT     H251678   5.504   8.888   2.854
17146WAT      O51679   5.697   6.472   6.658
17146WAT     H151680   5.672   6.568   6.655
17146WAT     H251681   5.730   6.443   6.568
17147WAT      O51682   4.126   2.226   4.611
17147WAT     H151683   4.199   2.192   4.670
17147WAT     H251684   4.166   2.282   4.538
17148WAT      O51685   7.176   9.614   2.421
17148WAT     H151686   7.103   9.673   2.387
17148WAT     H251687   7.135   9.535   2.467
17149WAT      O51688   5.467   3.426   4.166
17149WAT     H151689   5.551   3.422   4.220
17149WAT     H251690   5.415   3.508   4.191
17150WAT      O51691   1.851   1.860   5.967
17150WAT     H151692   1.864   1.761   5.973
17150WAT     H251693   1.823   1.884   5.874
17151WAT      O51694   7.013   7.920   0.737
17151WAT     H151695   6.982   7.869   0.656
17151WAT     H251696   6.939   7.922   0.804
17152WAT      O51697   2.231   3.382   4.859
17152WAT     H151698   2.218   3.366   4.761
17152WAT     H251699   2.240   3.295   4.906
17153WAT      O51700   9.039   3.186   6.034
17153WAT     H151701   8.963   3.126   6.061
17153WAT     H251702   9.012   3.281   6.048
17154WAT      O51703   4.062   4.878   5.304
17154WAT     H151704   4.129   4.935   5.258
17154WAT     H251705   3.997   4.935   5.355
17155WAT      O51706   3.862   8.697   7.157
17155WAT     H151707   3.833   8.788   7.187
17155WAT     H251708   3.934   8.706   7.088
17156WAT      O51709   2.267   4.902   6.933
17156WAT     H151710   2.214   4.846   6.870
17156WAT     H251711   2.327   4.964   6.881
17157WAT      O51712   0.290   3.235   6.672
17157WAT     H151713   0.262   3.198   6.760
17157WAT     H251714   0.214   3.226   6.607
17158WAT      O51715   1.388   7.637   1.437
17158WAT     H151716   1.451   7.574   1.392
17158WAT     H251717   1.433   7.677   1.517
17159WAT      O51718   1.763   8.316   7.209
17159WAT     H151719   1.710   8.401   7.209
17159WAT     H251720   1.779   8.287   7.115
17160WAT      O51721   1.035   1.476   4.927
17160WAT     H151722   1.090   1.559   4.913
17160WAT     H251723   1.096   1.398   4.939
17161WAT      O51724   8.303   8.296   2.048
17161WAT     H151725   8.327   8.283   2.144
17161WAT     H251726   8.232   8.367   2.040
17162WAT      O51727   3.507   8.840   9.815
17162WAT     H151728   3.583   8.810   9.757
17162WAT     H251729   3.427   8.856   9.759
17163WAT      O51730   8.432   4.769   2.878
17163WAT     H151731   8.393   4.748   2.968
17163WAT     H251732   8.449   4.683   2.829
17164WAT      O51733   3.461   1.804   0.022
17164WAT     H151734   3.534   1.831  -0.041
17164WAT     H251735   3.396   1.879   0.034
17165WAT      O51736   5.491   8.115   6.380
17165WAT     H151737   5.512   8.023   6.348
17165WAT     H251738   5.453   8.110   6.473
17166WAT      O51739   6.713   2.480   5.991
17166WAT     H151740   6.788   2.492   5.925
17166WAT     H251741   6.630   2.521   5.955
17167WAT      O51742   5.583   1.768   6.256
17167WAT     H151743   5.546   1.716   6.179
17167WAT     H251744   5.649   1.712   6.306
17168WAT      O51745   7.886   1.798   5.837
17168WAT     H151746   7.949   1.795   5.915
17168WAT     H251747   7.937   1.790   5.752
17169WAT      O51748   7.281   4.328   9.579
17169WAT     H151749   7.357   4.283   9.531
17169WAT     H251750   7.195   4.306   9.533
17170WAT      O51751   1.750   4.115   5.555
17170WAT     H151752   1.815   4.045   5.586
17170WAT     H251753   1.770   4.202   5.601
17171WAT      O51754   7.335   6.243   3.686
17171WAT     H151755   7.292   6.296   3.613
17171WAT     H251756   7.277   6.164   3.708
17172WAT      O51757   7.380   9.425   0.750
17172WAT     H151758   7.304   9.479   0.786
17172WAT     H251759   7.367   9.408   0.652
17173WAT      O51760   8.218   0.764   2.070
17173WAT     H151761   8.223   0.846   2.013
17173WAT     H251762   8.280   0.694   2.032
17174WAT      O51763   1.768   1.455   0.588
17174WAT     H151764   1.827   1.521   0.634
17174WAT     H251765   1.745   1.489   0.496
17175WAT      O51766   3.050   5.406   2.953
17175WAT     H151767   2.984   5.347   2.907
17175WAT     H251768   3.058   5.492   2.904
17176WAT      O51769   7.139   2.815   0.059
17176WAT     H151770   7.081   2.870   0.119
17176WAT     H251771   7.086   2.738   0.024
17177WAT      O51772   2.903   5.820   0.810
17177WAT     H151773   2.816   5.806   0.763
17177WAT     H251774   2.890   5.810   0.909
17178WAT      O51775   0.281   2.289   8.312
17178WAT     H151776   0.335   2.258   8.391
17178WAT     H251777   0.262   2.211   8.253
17179WAT      O51778   1.091   0.118   9.517
17179WAT     H151779   1.106   0.090   9.422
17179WAT     H251780   1.094   0.218   9.523
17180WAT      O51781   6.948   9.350   3.416
17180WAT     H151782   7.010   9.429   3.420
17180WAT     H251783   6.994   9.270   3.453
17181WAT      O51784   6.977   9.797   8.794
17181WAT     H151785   6.945   9.777   8.702
17181WAT     H251786   7.007   9.713   8.839
17182WAT      O51787   9.023   4.329   5.419
17182WAT     H151788   9.084   4.347   5.342
17182WAT     H251789   8.976   4.413   5.445
17183WAT      O51790   7.231   7.016   7.341
17183WAT     H151791   7.206   7.113   7.350
17183WAT     H251792   7.259   6.980   7.429
17184WAT      O51793   1.965   2.739   8.635
17184WAT     H151794   1.955   2.639   8.635
17184WAT     H251795   2.041   2.765   8.575
17185WAT      O51796   5.079   2.184   3.964
17185WAT     H151797   4.996   2.238   3.969
17185WAT     H251798   5.064   2.104   3.907
17186WAT      O51799   0.380   0.673   2.389
17186WAT     H151800   0.375   0.579   2.423
17186WAT     H251801   0.392   0.671   2.289
17187WAT      O51802   4.589   3.083   2.398
17187WAT     H151803   4.570   3.045   2.307
17187WAT     H251804   4.665   3.033   2.439
17188WAT      O51805   7.798   9.058   5.722
17188WAT     H151806   7.716   9.013   5.757
17188WAT     H251807   7.786   9.157   5.726
17189WAT      O51808   9.861   7.961   8.243
17189WAT     H151809   9.769   7.924   8.237
17189WAT     H251810   9.927   7.887   8.257
17190WAT      O51811   5.630   9.686   8.269
17190WAT     H151812   5.705   9.623   8.290
17190WAT     H251813   5.579   9.652   8.191
17191WAT      O51814   3.054   5.741   1.293
17191WAT     H151815   3.144   5.780   1.270
17191WAT     H251816   3.031   5.764   1.387
17192WAT      O51817   2.597   1.429   8.691
17192WAT     H151818   2.627   1.443   8.597
17192WAT     H251819   2.665   1.467   8.754
17193WAT      O51820   9.226   9.561   4.611
17193WAT     H151821   9.317   9.588   4.577
17193WAT     H251822   9.188   9.636   4.666
17194WAT      O51823   5.761   7.070   1.569
17194WAT     H151824   5.715   6.985   1.543
17194WAT     H251825   5.744   7.140   1.500
17195WAT      O51826   1.774   3.390   5.123
17195WAT     H151827   1.752   3.298   5.090
17195WAT     H251828   1.693   3.449   5.114
17196WAT      O51829   4.450   9.842   5.306
17196WAT     H151830   4.360   9.839   5.261
17196WAT     H251831   4.437   9.852   5.405
17197WAT      O51832   3.514   2.033   1.351
17197WAT     H151833   3.574   2.104   1.386
17197WAT     H251834   3.568   1.954   1.323
17198WAT      O51835   5.505   4.302   2.750
17198WAT     H151836   5.561   4.291   2.832
17198WAT     H251837   5.442   4.225   2.742
17199WAT      O51838   7.074   5.706   7.422
17199WAT     H151839   7.061   5.804   7.441
17199WAT     H251840   7.058   5.654   7.505
17200WAT      O51841   9.635   7.818   3.247
17200WAT     H151842   9.663   7.908   3.214
17200WAT     H251843   9.536   7.812   3.250
17201WAT      O51844   0.112   9.529   4.432
17201WAT     H151845   0.142   9.609   4.485
17201WAT     H251846   0.169   9.521   4.350
17202WAT      O51847   0.736   0.013   1.387
17202WAT     H151848   0.658   0.071   1.368
17202WAT     H251849   0.792   0.054   1.459
17203WAT      O51850   1.550   6.874   6.142
17203WAT     H151851   1.454   6.846   6.137
17203WAT     H251852   1.577   6.882   6.238
17204WAT      O51853   5.554   1.883   1.744
17204WAT     H151854   5.479   1.820   1.723
17204WAT     H251855   5.629   1.833   1.788
17205WAT      O51856   8.417   8.895   6.007
17205WAT     H151857   8.437   8.797   6.011
17205WAT     H251858   8.318   8.909   6.013
17206WAT      O51859   9.512   1.146   8.804
17206WAT     H151860   9.575   1.139   8.882
17206WAT     H251861   9.488   1.242   8.789
17207WAT      O51862   3.968   7.025   9.238
17207WAT     H151863   3.879   7.020   9.284
17207WAT     H251864   3.965   6.969   9.155
17208WAT      O51865   2.576   2.761   5.086
17208WAT     H151866   2.667   2.733   5.056
17208WAT     H251867   2.558   2.722   5.177
17209WAT      O51868   6.829   0.280   0.667
17209WAT     H151869   6.776   0.341   0.726
17209WAT     H251870   6.793   0.187   0.673
17210WAT      O51871   8.078   8.369   3.089
17210WAT     H151872   8.024   8.309   3.029
17210WAT     H251873   8.019   8.404   3.162
17211WAT      O51874   2.716   5.246   4.661
17211WAT     H151875   2.750   5.217   4.572
17211WAT     H251876   2.652   5.178   4.696
17212WAT      O51877   2.667   8.532   5.520
17212WAT     H151878   2.744   8.561   5.577
17212WAT     H251879   2.600   8.484   5.577
17213WAT      O51880   4.393   8.114   9.054
17213WAT     H151881   4.472   8.115   8.992
17213WAT     H251882   4.345   8.202   9.048
17214WAT      O51883   7.746   4.775   4.611
17214WAT     H151884   7.756   4.855   4.552
17214WAT     H251885   7.685   4.796   4.687
17215WAT      O51886   9.851   2.067   8.838
17215WAT     H151887   9.914   2.037   8.766
17215WAT     H251888   9.761   2.025   8.823
17216WAT      O51889   5.550   7.721   5.065
17216WAT     H151890   5.513   7.776   4.991
17216WAT     H251891   5.579   7.781   5.140
17217WAT      O51892   8.031   1.290   4.124
17217WAT     H151893   8.025   1.323   4.030
17217WAT     H251894   7.969   1.212   4.135
17218WAT      O51895   0.533   0.124   6.489
17218WAT     H151896   0.509   0.117   6.392
17218WAT     H251897   0.597   0.052   6.513
17219WAT      O51898   9.450   1.498   4.832
17219WAT     H151899   9.361   1.530   4.864
17219WAT     H251900   9.520   1.566   4.856
17220WAT      O51901   8.657   8.758   4.972
17220WAT     H151902   8.738   8.780   4.918
17220WAT     H251903   8.658   8.812   5.057
17221WAT      O51904   2.848   7.913   7.010
17221WAT     H151905   2.936   7.929   7.055
17221WAT     H251906   2.864   7.873   6.920
17222WAT      O51907   7.050   2.962   7.109
17222WAT     H151908   6.968   2.905   7.121
17222WAT     H251909   7.025   3.045   7.059
17223WAT      O51910   4.901   7.385   8.331
17223WAT     H151911   4.904   7.339   8.243
17223WAT     H251912   4.838   7.463   8.325
17224WAT      O51913   0.751   9.506   0.184
17224WAT     H151914   0.803   9.445   0.243
17224WAT     H251915   0.658   9.516   0.220
17225WAT      O51916   6.622   4.927   5.764
17225WAT     H151917   6.547   4.871   5.728
17225WAT     H251918   6.685   4.951   5.690
17226WAT      O51919   9.485   6.034   3.015
17226WAT     H151920   9.540   6.052   3.096
17226WAT     H251921   9.438   6.118   2.987
17227WAT      O51922   6.418   3.344   8.266
17227WAT     H151923   6.342   3.300   8.314
17227WAT     H251924   6.475   3.275   8.222
17228WAT      O51925   5.371   2.239   7.697
17228WAT     H151926   5.331   2.331   7.698
17228WAT     H251927   5.335   2.188   7.619
17229WAT      O51928   6.514   9.138   5.297
17229WAT     H151929   6.437   9.128   5.359
17229WAT     H251930   6.573   9.057   5.304
17230WAT      O51931   0.979   0.107   0.117
17230WAT     H151932   0.973   0.168   0.038
17230WAT     H251933   0.906   0.039   0.112
17231WAT      O51934   3.074   5.029   5.116
17231WAT     H151935   3.169   5.005   5.137
17231WAT     H251936   3.020   5.022   5.200
17232WAT      O51937   4.385   2.635   3.436
17232WAT     H151938   4.395   2.556   3.376
17232WAT     H251939   4.474   2.660   3.474
17233WAT      O51940   0.725   0.206   5.676
17233WAT     H151941   0.749   0.207   5.579
17233WAT     H251942   0.708   0.112   5.706
17234WAT      O51943   6.259   3.024   4.505
17234WAT     H151944   6.198   2.986   4.573
17234WAT     H251945   6.352   2.988   4.518
17235WAT      O51946   2.006   0.994   1.358
17235WAT     H151947   1.928   0.930   1.359
17235WAT     H251948   2.050   0.991   1.268
17236WAT      O51949   9.119   8.898   9.074
17236WAT     H151950   9.028   8.873   9.040
17236WAT     H251951   9.186   8.830   9.042
17237WAT      O51952   5.135   5.027   9.010
17237WAT     H151953   5.144   5.075   8.923
17237WAT     H251954   5.038   5.024   9.037
17238WAT      O51955   1.248   8.062   0.216
17238WAT     H151956   1.208   8.146   0.178
17238WAT     H251957   1.219   7.984   0.161
17239WAT      O51958   8.887   1.345   2.978
17239WAT     H151959   8.793   1.321   2.952
17239WAT     H251960   8.951   1.287   2.928
17240WAT      O51961   7.691   5.918   7.622
17240WAT     H151962   7.704   5.862   7.540
17240WAT     H251963   7.773   5.974   7.637
17241WAT      O51964   0.299   9.653   7.731
17241WAT     H151965   0.276   9.648   7.829
17241WAT     H251966   0.340   9.742   7.711
17242WAT      O51967   6.291   6.057   4.772
17242WAT     H151968   6.323   5.962   4.763
17242WAT     H251969   6.368   6.117   4.788
17243WAT      O51970   1.997   7.179   1.353
17243WAT     H151971   1.989   7.268   1.399
17243WAT     H251972   2.059   7.187   1.275
17244WAT      O51973   7.322   6.772   0.365
17244WAT     H151974   7.333   6.728   0.275
17244WAT     H251975   7.402   6.751   0.422
17245WAT      O51976   0.599   0.932   8.626
17245WAT     H151977   0.568   0.939   8.721
17245WAT     H251978   0.525   0.960   8.565
17246WAT      O51979   2.738   8.940   9.633
17246WAT     H151980   2.757   9.037   9.649
17246WAT     H251981   2.663   8.910   9.692
17247WAT      O51982   0.603   2.055   9.299
17247WAT     H151983   0.521   1.999   9.310
17247WAT     H251984   0.602   2.097   9.208
17248WAT      O51985   1.644   6.547   3.265
17248WAT     H151986   1.627   6.643   3.247
17248WAT     H251987   1.737   6.523   3.235
17249WAT      O51988   7.756   4.388   8.061
17249WAT     H151989   7.728   4.293   8.079
17249WAT     H251990   7.674   4.445   8.051
17250WAT      O51991   5.979   1.607   8.852
17250WAT     H151992   6.019   1.536   8.909
17250WAT     H251993   6.041   1.628   8.777
17251WAT      O51994   4.324   9.488   1.687
17251WAT     H151995   4.328   9.480   1.587
17251WAT     H251996   4.416   9.480   1.724
17252WAT      O51997   3.951   1.571   2.353
17252WAT     H151998   4.010   1.652   2.351
17252WAT     H251999   3.993   1.501   2.412
17253WAT      O52000   4.400   2.990   2.853
17253WAT     H152001   4.340   2.917   2.822
17253WAT     H252002   4.422   3.050   2.777
17254WAT      O52003   3.164   5.545   5.802
17254WAT     H152004   3.255   5.550   5.844
17254WAT     H252005   3.115   5.630   5.818
17255WAT      O52006   8.616   5.086   4.962
17255WAT     H152007   8.630   5.171   5.013
17255WAT     H252008   8.682   5.017   4.992
17256WAT      O52009   9.261   7.672   3.570
17256WAT     H152010   9.348   7.720   3.583
17256WAT     H252011   9.207   7.719   3.500
17257WAT      O52012   4.318   5.723   9.190
17257WAT     H152013   4.376   5.719   9.109
17257WAT     H252014   4.350   5.795   9.251
17258WAT      O52015   4.853   5.035   9.071
17258WAT     H152016   4.818   5.112   9.018
17258WAT     H252017   4.833   4.950   9.023
17259WAT      O52018   2.385   4.955   6.280
17259WAT     H152019   2.421   5.005   6.359
17259WAT     H252020   2.420   4.994   6.196
17260WAT      O52021   2.464   1.786   1.373
17260WAT     H152022   2.369   1.757   1.374
17260WAT     H252023   2.470   1.880   1.338
17261WAT      O52024   8.042   6.167   0.037
17261WAT     H152025   8.127   6.115   0.036
17261WAT     H252026   8.056   6.255   0.081
17262WAT      O52027   8.617   5.416   7.279
17262WAT     H152028   8.558   5.493   7.304
17262WAT     H252029   8.562   5.346   7.234
17263WAT      O52030   8.508   7.015   3.007
17263WAT     H152031   8.589   6.961   2.984
17263WAT     H252032   8.498   7.090   2.942
17264WAT      O52033   9.395   0.846   1.793
17264WAT     H152034   9.369   0.935   1.755
17264WAT     H252035   9.321   0.810   1.849
17265WAT      O52036   8.622   1.778   6.917
17265WAT     H152037   8.620   1.875   6.943
17265WAT     H252038   8.532   1.753   6.880
17266WAT      O52039   5.850   1.441   9.606
17266WAT     H152040   5.793   1.445   9.524
17266WAT     H252041   5.826   1.360   9.660
17267WAT      O52042   6.399   1.263   9.730
17267WAT     H152043   6.423   1.355   9.761
17267WAT     H252044   6.327   1.269   9.660
17268WAT      O52045   2.315   7.870   9.380
17268WAT     H152046   2.361   7.786   9.410
17268WAT     H252047   2.369   7.913   9.307
17269WAT      O52048   1.501   6.878   3.442
17269WAT     H152049   1.491   6.925   3.354
17269WAT     H252050   1.446   6.794   3.442
17270WAT      O52051   4.778   4.169   0.908
17270WAT     H152052   4.816   4.186   0.999
17270WAT     H252053   4.853   4.161   0.841
17271WAT      O52054   8.659   3.817   6.012
17271WAT     H152055   8.607   3.770   5.941
17271WAT     H252056   8.749   3.842   5.976
17272WAT      O52057   3.993   8.455   4.756
17272WAT     H152058   4.057   8.429   4.685
17272WAT     H252059   4.016   8.407   4.841
17273WAT      O52060   9.452   2.231   2.135
17273WAT     H152061   9.437   2.269   2.044
17273WAT     H252062   9.546   2.249   2.164
17274WAT      O52063   1.019   0.127   7.010
17274WAT     H152064   1.056   0.040   7.043
17274WAT     H252065   0.930   0.144   7.053
17275WAT      O52066   3.287   1.999   1.855
17275WAT     H152067   3.296   1.907   1.815
17275WAT     H252068   3.346   2.062   1.805
17276WAT      O52069   4.625   9.188   2.593
17276WAT     H152070   4.640   9.166   2.689
17276WAT     H252071   4.712   9.183   2.544
17277WAT      O52072   8.892   5.336   7.213
17277WAT     H152073   8.853   5.386   7.290
17277WAT     H252074   8.985   5.307   7.235
17278WAT      O52075   0.886   7.364   6.594
17278WAT     H152076   0.792   7.361   6.560
17278WAT     H252077   0.926   7.453   6.574
17279WAT      O52078   6.458   1.322   1.002
17279WAT     H152079   6.538   1.276   1.040
17279WAT     H252080   6.465   1.324   0.902
17280WAT      O52081   4.097   5.143   8.999
17280WAT     H152082   4.169   5.115   9.063
17280WAT     H252083   4.116   5.106   8.909
17281WAT      O52084   8.953   6.801   3.398
17281WAT     H152085   8.866   6.826   3.356
17281WAT     H252086   9.028   6.829   3.338
17282WAT      O52087   5.724   3.007   3.148
17282WAT     H152088   5.822   3.004   3.126
17282WAT     H252089   5.677   2.936   3.095
17283WAT      O52090   3.777   9.080   2.682
17283WAT     H152091   3.708   9.015   2.711
17283WAT     H252092   3.819   9.123   2.762
17284WAT      O52093   3.101   9.476   8.435
17284WAT     H152094   3.048   9.393   8.421
17284WAT     H252095   3.187   9.454   8.481
17285WAT      O52096   4.416   7.639   7.186
17285WAT     H152097   4.477   7.704   7.141
17285WAT     H252098   4.325   7.645   7.146
17286WAT      O52099   4.083   6.059   0.870
17286WAT     H152100   4.051   5.976   0.916
17286WAT     H252101   4.007   6.104   0.825
17287WAT      O52102   8.933   6.546   5.981
17287WAT     H152103   8.932   6.643   6.004
17287WAT     H252104   8.842   6.518   5.951
17288WAT      O52105   1.959   5.859   6.630
17288WAT     H152106   1.920   5.899   6.713
17288WAT     H252107   2.034   5.798   6.654
17289WAT      O52108   2.601   0.083   8.485
17289WAT     H152109   2.572   0.076   8.390
17289WAT     H252110   2.524   0.113   8.541
17290WAT      O52111   3.853   1.362   3.315
17290WAT     H152112   3.881   1.452   3.349
17290WAT     H252113   3.757   1.365   3.288
17291WAT      O52114   3.785   9.834   3.948
17291WAT     H152115   3.791   9.901   4.022
17291WAT     H252116   3.763   9.881   3.863
17292WAT      O52117   4.917   8.727   0.055
17292WAT     H152118   4.964   8.804   0.097
17292WAT     H252119   4.846   8.693   0.117
17293WAT      O52120   4.299   5.229   4.539
17293WAT     H152121   4.237   5.151   4.540
17293WAT     H252122   4.340   5.239   4.449
17294WAT      O52123   1.030   8.707   0.305
17294WAT     H152124   1.059   8.736   0.213
17294WAT     H252125   0.996   8.786   0.355
17295WAT      O52126   6.962   1.295   6.826
17295WAT     H152127   6.880   1.343   6.794
17295WAT     H252128   7.041   1.323   6.772
17296WAT      O52129   2.848   5.037   5.267
17296WAT     H152130   2.841   4.963   5.200
17296WAT     H252131   2.757   5.057   5.304
17297WAT      O52132   9.418   8.507   2.705
17297WAT     H152133   9.473   8.591   2.710
17297WAT     H252134   9.429   8.456   2.790
17298WAT      O52135   1.121   9.487   0.675
17298WAT     H152136   1.038   9.543   0.677
17298WAT     H252137   1.112   9.412   0.740
17299WAT      O52138   7.456   9.128   2.717
17299WAT     H152139   7.431   9.057   2.782
17299WAT     H252140   7.555   9.144   2.721
17300WAT      O52141   0.771   4.843   1.081
17300WAT     H152142   0.757   4.883   0.991
17300WAT     H252143   0.693   4.785   1.105
17301WAT      O52144   8.862   3.490   1.086
17301WAT     H152145   8.936   3.496   1.153
17301WAT     H252146   8.900   3.498   0.994
17302WAT      O52147   2.963   9.219   4.131
17302WAT     H152148   2.937   9.245   4.038
17302WAT     H252149   3.061   9.199   4.133
17303WAT      O52150   3.029   5.991   9.800
17303WAT     H152151   2.935   6.026   9.806
17303WAT     H252152   3.093   6.067   9.811
17304WAT      O52153   6.858   0.405   4.584
17304WAT     H152154   6.821   0.481   4.531
17304WAT     H252155   6.912   0.440   4.661
17305WAT      O52156   3.172   4.827   3.844
17305WAT     H152157   3.084   4.851   3.803
17305WAT     H252158   3.170   4.845   3.942
17306WAT      O52159   5.486   7.257   4.902
17306WAT     H152160   5.484   7.334   4.965
17306WAT     H252161   5.393   7.235   4.872
17307WAT      O52162   3.643   4.841   9.028
17307WAT     H152163   3.589   4.850   8.944
17307WAT     H252164   3.710   4.915   9.032
17308WAT      O52165   7.970   8.318   6.284
17308WAT     H152166   7.883   8.291   6.242
17308WAT     H252167   8.001   8.405   6.244
17309WAT      O52168   1.801   3.493   0.481
17309WAT     H152169   1.843   3.572   0.523
17309WAT     H252170   1.861   3.456   0.410
17310WAT      O52171   6.326   1.628   4.771
17310WAT     H152172   6.385   1.708   4.782
17310WAT     H252173   6.317   1.581   4.858
17311WAT      O52174   9.316   6.002   6.610
17311WAT     H152175   9.393   6.032   6.665
17311WAT     H252176   9.341   5.922   6.556
17312WAT      O52177   0.229   6.301   3.813
17312WAT     H152178   0.250   6.321   3.718
17312WAT     H252179   0.139   6.339   3.837
17313WAT      O52180   7.542   6.680   3.689
17313WAT     H152181   7.469   6.746   3.673
17313WAT     H252182   7.503   6.595   3.724
17314WAT      O52183   6.325   1.019   1.390
17314WAT     H152184   6.249   0.974   1.342
17314WAT     H252185   6.408   1.010   1.335
17315WAT      O52186   1.418   9.512   4.775
17315WAT     H152187   1.466   9.599   4.792
17315WAT     H252188   1.320   9.525   4.789
17316WAT      O52189   6.245   1.404   5.613
17316WAT     H152190   6.160   1.424   5.564
17316WAT     H252191   6.319   1.460   5.574
17317WAT      O52192   3.734   3.562   8.402
17317WAT     H152193   3.697   3.550   8.493
17317WAT     H252194   3.803   3.491   8.384
17318WAT      O52195   2.296   7.452   1.781
17318WAT     H152196   2.344   7.365   1.768
17318WAT     H252197   2.274   7.464   1.878
17319WAT      O52198   8.400   0.442   1.431
17319WAT     H152199   8.428   0.383   1.355
17319WAT     H252200   8.402   0.391   1.516
17320WAT      O52201   1.525   8.127   4.494
17320WAT     H152202   1.569   8.216   4.479
17320WAT     H252203   1.439   8.141   4.543
17321WAT      O52204   4.576   5.838   6.619
17321WAT     H152205   4.515   5.798   6.687
17321WAT     H252206   4.523   5.899   6.559
17322WAT      O52207   4.873   6.110   6.684
17322WAT     H152208   4.876   6.194   6.630
17322WAT     H252209   4.792   6.057   6.658
17323WAT      O52210   2.126   7.683   4.631
17323WAT     H152211   2.030   7.712   4.625
17323WAT     H252212   2.132   7.585   4.614
17324WAT      O52213   1.412   2.326   2.391
17324WAT     H152214   1.368   2.352   2.477
17324WAT     H252215   1.408   2.403   2.327
17325WAT      O52216   7.072   3.761   5.322
17325WAT     H152217   7.159   3.724   5.356
17325WAT     H252218   7.089   3.848   5.276
17326WAT      O52219   0.916   8.552   4.756
17326WAT     H152220   0.998   8.540   4.700
17326WAT     H252221   0.928   8.631   4.816
17327WAT      O52222   2.918   2.892   3.752
17327WAT     H152223   2.982   2.817   3.770
17327WAT     H252224   2.930   2.963   3.822
17328WAT      O52225   6.585   5.731   4.814
17328WAT     H152226   6.494   5.753   4.780
17328WAT     H252227   6.643   5.703   4.737
17329WAT      O52228   7.454   3.357   4.093
17329WAT     H152229   7.455   3.382   3.996
17329WAT     H252230   7.362   3.330   4.119
17330WAT      O52231   6.773   9.546   3.775
17330WAT     H152232   6.702   9.480   3.749
17330WAT     H252233   6.757   9.575   3.870
17331WAT      O52234   3.605   7.344   8.723
17331WAT     H152235   3.639   7.371   8.813
17331WAT     H252236   3.576   7.248   8.726
17332WAT      O52237   2.284   8.985   3.513
17332WAT     H152238   2.185   8.993   3.518
17332WAT     H252239   2.326   9.072   3.538
17333WAT      O52240   2.660   3.204   6.864
17333WAT     H152241   2.563   3.191   6.847
17333WAT     H252242   2.694   3.132   6.925
17334WAT      O52243   9.722   5.031   1.400
17334WAT     H152244   9.669   5.037   1.315
17334WAT     H252245   9.786   4.954   1.393
17335WAT      O52246   5.381   9.453   9.880
17335WAT     H152247   5.292   9.412   9.857
17335WAT     H252248   5.370   9.552   9.890
17336WAT      O52249   9.164   0.948   3.488
17336WAT     H152250   9.247   0.905   3.522
17336WAT     H252251   9.146   0.916   3.394
17337WAT      O52252   5.747   3.534   4.619
17337WAT     H152253   5.743   3.617   4.674
17337WAT     H252254   5.835   3.488   4.634
17338WAT      O52255   9.627   4.622   9.747
17338WAT     H152256   9.649   4.691   9.817
17338WAT     H252257   9.586   4.542   9.791
17339WAT      O52258   1.947   1.715   8.243
17339WAT     H152259   2.042   1.684   8.247
17339WAT     H252260   1.887   1.643   8.280
17340WAT      O52261   1.905   9.258   5.955
17340WAT     H152262   1.821   9.310   5.936
17340WAT     H252263   1.927   9.201   5.875
17341WAT      O52264   1.701   3.042   3.373
17341WAT     H152265   1.696   3.085   3.463
17341WAT     H252266   1.613   2.999   3.351
17342WAT      O52267   7.318   9.380   2.720
17342WAT     H152268   7.248   9.385   2.791
17342WAT     H252269   7.347   9.285   2.709
17343WAT      O52270   0.529   7.373   8.268
17343WAT     H152271   0.478   7.450   8.229
17343WAT     H252272   0.478   7.288   8.252
17344WAT      O52273   6.357   4.500   8.564
17344WAT     H152274   6.427   4.431   8.584
17344WAT     H252275   6.305   4.473   8.483
17345WAT      O52276   7.930   9.421   8.551
17345WAT     H152277   7.898   9.334   8.589
17345WAT     H252278   7.911   9.494   8.616
17346WAT      O52279   6.691   0.332   6.228
17346WAT     H152280   6.658   0.253   6.177
17346WAT     H252281   6.645   0.415   6.196
17347WAT      O52282   3.339   6.802   8.689
17347WAT     H152283   3.252   6.754   8.703
17347WAT     H252284   3.402   6.743   8.639
17348WAT      O52285   8.360   5.761   5.202
17348WAT     H152286   8.447   5.730   5.163
17348WAT     H252287   8.284   5.722   5.151
17349WAT      O52288   9.008   8.247   8.847
17349WAT     H152289   9.061   8.206   8.773
17349WAT     H252290   8.921   8.198   8.857
17350WAT      O52291   4.593   5.220   9.807
17350WAT     H152292   4.648   5.160   9.748
17350WAT     H252293   4.500   5.227   9.771
17351WAT      O52294   2.350   0.468   5.248
17351WAT     H152295   2.352   0.452   5.346
17351WAT     H252296   2.296   0.397   5.204
17352WAT      O52297   6.945   7.962   6.892
17352WAT     H152298   6.869   8.027   6.897
17352WAT     H252299   6.959   7.921   6.983
17353WAT      O52300   8.245   0.667   6.264
17353WAT     H152301   8.318   0.702   6.206
17353WAT     H252302   8.212   0.580   6.227
17354WAT      O52303   3.584   5.044   2.954
17354WAT     H152304   3.564   4.952   2.919
17354WAT     H252305   3.597   5.106   2.877
17355WAT      O52306   1.420   6.270   8.220
17355WAT     H152307   1.502   6.215   8.208
17355WAT     H252308   1.445   6.366   8.231
17356WAT      O52309   3.014   2.567   1.578
17356WAT     H152310   2.993   2.655   1.536
17356WAT     H252311   3.112   2.548   1.568
17357WAT      O52312   2.534   1.788   6.222
17357WAT     H152313   2.439   1.802   6.193
17357WAT     H252314   2.542   1.808   6.320
17358WAT      O52315   9.327   6.518   1.383
17358WAT     H152316   9.286   6.431   1.356
17358WAT     H252317   9.275   6.594   1.343
17359WAT      O52318   3.808   4.171   9.211
17359WAT     H152319   3.775   4.265   9.218
17359WAT     H252320   3.738   4.114   9.166
17360WAT      O52321   8.592   6.727   5.358
17360WAT     H152322   8.640   6.813   5.345
17360WAT     H252323   8.524   6.737   5.431
17361WAT      O52324   7.841   0.346   6.710
17361WAT     H152325   7.870   0.345   6.806
17361WAT     H252326   7.922   0.340   6.652
17362WAT      O52327   1.191   7.949   5.091
17362WAT     H152328   1.253   8.018   5.053
17362WAT     H252329   1.097   7.972   5.068
17363WAT      O52330   2.949   4.181   4.518
17363WAT     H152331   2.877   4.177   4.448
17363WAT     H252332   3.004   4.097   4.514
17364WAT      O52333   4.379   6.541   9.515
17364WAT     H152334   4.361   6.448   9.548
17364WAT     H252335   4.356   6.546   9.417
17365WAT      O52336   2.143   3.838   4.286
17365WAT     H152337   2.143   3.818   4.384
17365WAT     H252338   2.106   3.760   4.236
17366WAT      O52339   1.055   3.291   8.411
17366WAT     H152340   1.094   3.218   8.467
17366WAT     H252341   1.008   3.356   8.470
17367WAT      O52342   9.045   1.130   2.925
17367WAT     H152343   9.082   1.066   2.992
17367WAT     H252344   9.098   1.122   2.840
17368WAT      O52345   2.185   0.028   0.273
17368WAT     H152346   2.238  -0.054   0.253
17368WAT     H252347   2.235   0.086   0.337
17369WAT      O52348   9.325   4.428   0.319
17369WAT     H152349   9.351   4.408   0.413
17369WAT     H252350   9.226   4.444   0.314
17370WAT      O52351   3.977   5.078   8.622
17370WAT     H152352   4.043   5.049   8.691
17370WAT     H252353   3.993   5.027   8.538
17371WAT      O52354   8.119   3.618   9.605
17371WAT     H152355   8.094   3.600   9.510
17371WAT     H252356   8.108   3.715   9.625
17372WAT      O52357   4.581   0.955   0.993
17372WAT     H152358   4.641   0.973   1.072
17372WAT     H252359   4.633   0.964   0.909
17373WAT      O52360   8.985   4.895   0.733
17373WAT     H152361   8.928   4.854   0.804
17373WAT     H252362   9.031   4.822   0.681
17374WAT      O52363   8.142   2.721   0.900
17374WAT     H152364   8.057   2.708   0.848
17374WAT     H252365   8.219   2.729   0.837
17375WAT      O52366   3.469   5.682   9.486
17375WAT     H152367   3.539   5.744   9.522
17375WAT     H252368   3.508   5.627   9.411
17376WAT      O52369   4.058   6.752   2.273
17376WAT     H152370   3.982   6.750   2.338
17376WAT     H252371   4.060   6.666   2.223
17377WAT      O52372   7.542   8.523   3.184
17377WAT     H152373   7.467   8.562   3.131
17377WAT     H252374   7.572   8.437   3.142
17378WAT      O52375   3.330   1.570   1.172
17378WAT     H152376   3.362   1.629   1.098
17378WAT     H252377   3.402   1.505   1.197
17379WAT      O52378   9.262   2.688   4.821
17379WAT     H152379   9.355   2.683   4.858
17379WAT     H252380   9.221   2.776   4.845
17380WAT      O52381   4.058   5.093   7.160
17380WAT     H152382   4.027   5.104   7.066
17380WAT     H252383   4.065   4.995   7.181
17381WAT      O52384   2.912   7.880   9.104
17381WAT     H152385   2.892   7.856   9.009
17381WAT     H252386   2.842   7.841   9.163
17382WAT      O52387   2.270   4.271   7.048
17382WAT     H152388   2.285   4.234   6.957
17382WAT     H252389   2.309   4.362   7.055
17383WAT      O52390   6.445   0.589   8.596
17383WAT     H152391   6.411   0.678   8.626
17383WAT     H252392   6.458   0.529   8.675
17384WAT      O52393   2.098   8.300   5.179
17384WAT     H152394   2.059   8.382   5.219
17384WAT     H252395   2.198   8.301   5.191
17385WAT      O52396   6.152   4.195   9.768
17385WAT     H152397   6.157   4.185   9.868
17385WAT     H252398   6.240   4.227   9.733
17386WAT      O52399   7.555   6.650   7.961
17386WAT     H152400   7.514   6.730   8.004
17386WAT     H252401   7.652   6.646   7.984
17387WAT      O52402   0.331   1.955   3.452
17387WAT     H152403   0.303   1.915   3.365
17387WAT     H252404   0.319   2.054   3.448
17388WAT      O52405   8.403   0.982   1.687
17388WAT     H152406   8.431   0.924   1.610
17388WAT     H252407   8.436   0.941   1.773
17389WAT      O52408   9.495   3.160   3.278
17389WAT     H152409   9.529   3.105   3.354
17389WAT     H252410   9.539   3.131   3.193
17390WAT      O52411   6.925   7.834   7.993
17390WAT     H152412   6.982   7.755   8.017
17390WAT     H252413   6.968   7.884   7.918
17391WAT      O52414   5.375   4.541   8.588
17391WAT     H152415   5.396   4.451   8.550
17391WAT     H252416   5.439   4.609   8.550
17392WAT      O52417   8.775   2.983   9.778
17392WAT     H152418   8.686   2.995   9.734
17392WAT     H252419   8.804   2.888   9.769
17393WAT      O52420   6.040   4.083   0.510
17393WAT     H152421   6.022   4.059   0.415
17393WAT     H252422   6.138   4.096   0.523
17394WAT      O52423   5.324   0.246   8.858
17394WAT     H152424   5.282   0.169   8.811
17394WAT     H252425   5.384   0.295   8.796
17395WAT      O52426   9.379   4.080   5.633
17395WAT     H152427   9.303   4.079   5.568
17395WAT     H252428   9.378   4.166   5.684
17396WAT      O52429   4.671   8.394   6.658
17396WAT     H152430   4.664   8.312   6.602
17396WAT     H252431   4.697   8.368   6.751
17397WAT      O52432   8.170   9.052   3.805
17397WAT     H152433   8.186   9.141   3.848
17397WAT     H252434   8.235   8.985   3.841
17398WAT      O52435   4.198   8.293   0.857
17398WAT     H152436   4.173   8.222   0.922
17398WAT     H252437   4.249   8.365   0.903
17399WAT      O52438   5.174   2.963   3.035
17399WAT     H152439   5.250   2.921   2.986
17399WAT     H252440   5.102   2.896   3.049
17400WAT      O52441   9.001   2.680   3.019
17400WAT     H152442   9.033   2.613   2.951
17400WAT     H252443   9.039   2.770   2.998
17401WAT      O52444   1.810   4.140   5.996
17401WAT     H152445   1.736   4.084   6.033
17401WAT     H252446   1.781   4.236   5.996
17402WAT      O52447   3.725   0.135   2.865
17402WAT     H152448   3.779   0.082   2.932
17402WAT     H252449   3.636   0.092   2.853
17403WAT      O52450   9.271   4.993   9.663
17403WAT     H152451   9.303   5.023   9.574
17403WAT     H252452   9.210   5.063   9.702
17404WAT      O52453   0.547   1.812   4.819
17404WAT     H152454   0.488   1.891   4.800
17404WAT     H252455   0.627   1.815   4.758
17405WAT      O52456   3.424   9.267   6.980
17405WAT     H152457   3.369   9.332   6.928
17405WAT     H252458   3.516   9.264   6.942
17406WAT      O52459   2.267   5.944   4.530
17406WAT     H152460   2.226   6.011   4.470
17406WAT     H252461   2.270   5.979   4.623
17407WAT      O52462   6.053   0.259   0.144
17407WAT     H152463   6.078   0.345   0.189
17407WAT     H252464   5.985   0.277   0.073
17408WAT      O52465   8.205   5.412   7.312
17408WAT     H152466   8.121   5.459   7.339
17408WAT     H252467   8.284   5.469   7.338
17409WAT      O52468   1.124   0.150   9.209
17409WAT     H152469   1.094   0.059   9.181
17409WAT     H252470   1.204   0.177   9.155
17410WAT      O52471   6.999   0.347   9.837
17410WAT     H152472   7.001   0.440   9.801
17410WAT     H252473   6.985   0.283   9.761
17411WAT      O52474   5.904   6.607   7.634
17411WAT     H152475   5.968   6.612   7.711
17411WAT     H252476   5.946   6.555   7.559
17412WAT      O52477   3.801   5.120   7.339
17412WAT     H152478   3.867   5.190   7.313
17412WAT     H252479   3.738   5.158   7.407
17413WAT      O52480   8.147   3.988   8.765
17413WAT     H152481   8.073   3.920   8.765
17413WAT     H252482   8.111   4.076   8.735
17414WAT      O52483   0.300   4.108   8.257
17414WAT     H152484   0.256   4.183   8.207
17414WAT     H252485   0.232   4.036   8.275
17415WAT      O52486   8.334   6.507   8.098
17415WAT     H152487   8.327   6.463   8.188
17415WAT     H252488   8.312   6.440   8.027
17416WAT      O52489   2.258   4.484   8.304
17416WAT     H152490   2.288   4.391   8.325
17416WAT     H252491   2.321   4.526   8.239
17417WAT      O52492   0.951   8.108   6.625
17417WAT     H152493   0.928   8.062   6.540
17417WAT     H252494   1.026   8.173   6.609
17418WAT      O52495   7.750   4.703   9.363
17418WAT     H152496   7.679   4.774   9.357
17418WAT     H252497   7.838   4.741   9.333
17419WAT      O52498   7.293   3.656   0.054
17419WAT     H152499   7.287   3.719   0.131
17419WAT     H252500   7.283   3.562   0.087
17420WAT      O52501   8.559   4.151   6.884
17420WAT     H152502   8.624   4.153   6.960
17420WAT     H252503   8.529   4.056   6.868
17421WAT      O52504   7.485   5.131   2.690
17421WAT     H152505   7.411   5.189   2.655
17421WAT     H252506   7.490   5.139   2.789
17422WAT      O52507   1.120   7.067   0.162
17422WAT     H152508   1.167   7.061   0.073
17422WAT     H252509   1.037   7.012   0.159
17423WAT      O52510   2.387   0.370   3.816
17423WAT     H152511   2.434   0.370   3.728
17423WAT     H252512   2.398   0.282   3.861
17424WAT      O52513   4.933   8.753   6.755
17424WAT     H152514   4.925   8.807   6.672
17424WAT     H252515   4.994   8.675   6.739
17425WAT      O52516   3.770   8.725   0.365
17425WAT     H152517   3.696   8.664   0.337
17425WAT     H252518   3.780   8.721   0.465
17426WAT      O52519   0.710   9.277   2.725
17426WAT     H152520   0.785   9.296   2.788
17426WAT     H252521   0.676   9.363   2.686
17427WAT      O52522   2.837   0.760   2.471
17427WAT     H152523   2.930   0.790   2.490
17427WAT     H252524   2.811   0.688   2.535
17428WAT      O52525   4.454   6.910   6.035
17428WAT     H152526   4.538   6.882   6.080
17428WAT     H252527   4.395   6.830   6.020
17429WAT      O52528   7.526   9.811   7.595
17429WAT     H152529   7.594   9.825   7.667
17429WAT     H252530   7.572   9.804   7.507
17430WAT      O52531   9.517   0.587   8.945
17430WAT     H152532   9.458   0.574   9.025
17430WAT     H252533   9.613   0.583   8.974
17431WAT      O52534   6.751   5.860   5.382
17431WAT     H152535   6.693   5.809   5.446
17431WAT     H252536   6.831   5.895   5.431
17432WAT      O52537   6.315   6.787   8.916
17432WAT     H152538   6.255   6.745   8.848
17432WAT     H252539   6.396   6.824   8.870
17433WAT      O52540   9.356   8.559   5.504
17433WAT     H152541   9.257   8.550   5.489
17433WAT     H252542   9.401   8.580   5.418
17434WAT      O52543   7.291   6.882   9.550
17434WAT     H152544   7.322   6.802   9.601
17434WAT     H252545   7.197   6.904   9.577
17435WAT      O52546   6.720   5.263   7.798
17435WAT     H152547   6.797   5.294   7.742
17435WAT     H252548   6.710   5.324   7.877
17436WAT      O52549   8.013   6.335   1.637
17436WAT     H152550   7.962   6.340   1.551
17436WAT     H252551   7.998   6.419   1.689
17437WAT      O52552   5.130   1.895   6.556
17437WAT     H152553   5.039   1.863   6.582
17437WAT     H252554   5.173   1.828   6.495
17438WAT      O52555   0.983   4.742   9.031
17438WAT     H152556   0.898   4.796   9.028
17438WAT     H252557   1.006   4.712   8.938
17439WAT      O52558   6.159   0.143   1.889
17439WAT     H152559   6.066   0.143   1.927
17439WAT     H252560   6.161   0.082   1.809
17440WAT      O52561   3.548   7.126   8.934
17440WAT     H152562   3.532   7.076   8.849
17440WAT     H252563   3.482   7.202   8.940
17441WAT      O52564   7.727   8.891   3.257
17441WAT     H152565   7.761   8.817   3.199
17441WAT     H252566   7.627   8.891   3.258
17442WAT      O52567   4.952   9.223   2.753
17442WAT     H152568   4.904   9.310   2.738
17442WAT     H252569   4.937   9.193   2.847
17443WAT      O52570   7.249   2.567   5.565
17443WAT     H152571   7.339   2.528   5.548
17443WAT     H252572   7.247   2.606   5.658
17444WAT      O52573   4.386   1.261   5.945
17444WAT     H152574   4.374   1.198   6.023
17444WAT     H252575   4.344   1.220   5.863
17445WAT      O52576   4.006   0.766   1.390
17445WAT     H152577   3.958   0.833   1.447
17445WAT     H252578   4.055   0.813   1.317
17446WAT      O52579   9.495   2.462   2.841
17446WAT     H152580   9.442   2.394   2.790
17446WAT     H252581   9.443   2.492   2.920
17447WAT      O52582   8.988   4.737   6.556
17447WAT     H152583   9.030   4.702   6.472
17447WAT     H252584   8.891   4.714   6.557
17448WAT      O52585   9.063   4.375   8.434
17448WAT     H152586   9.053   4.305   8.362
17448WAT     H252587   8.987   4.440   8.427
17449WAT      O52588   0.616   5.232   5.946
17449WAT     H152589   0.637   5.287   5.866
17449WAT     H252590   0.689   5.165   5.961
17450WAT      O52591   6.587   7.166   2.964
17450WAT     H152592   6.630   7.256   2.955
17450WAT     H252593   6.578   7.124   2.874
17451WAT      O52594   8.095   9.050   6.414
17451WAT     H152595   8.036   8.970   6.407
17451WAT     H252596   8.055   9.126   6.363
17452WAT      O52597   9.769   5.200   1.958
17452WAT     H152598   9.832   5.230   1.887
17452WAT     H252599   9.763   5.270   2.029
17453WAT      O52600   4.981   5.350   8.167
17453WAT     H152601   4.981   5.281   8.240
17453WAT     H252602   5.048   5.324   8.097
17454WAT      O52603   1.470   5.306   3.736
17454WAT     H152604   1.380   5.284   3.700
17454WAT     H252605   1.512   5.378   3.680
17455WAT      O52606   7.088   0.695   1.098
17455WAT     H152607   7.067   0.724   1.005
17455WAT     H252608   7.015   0.635   1.132
17456WAT      O52609   6.540   8.426   5.223
17456WAT     H152610   6.621   8.376   5.194
17456WAT     H252611   6.483   8.447   5.144
17457WAT      O52612   3.139   1.531   3.333
17457WAT     H152613   3.054   1.577   3.309
17457WAT     H252614   3.122   1.432   3.340
17458WAT      O52615   9.195   4.070   1.837
17458WAT     H152616   9.161   4.048   1.928
17458WAT     H252617   9.226   3.986   1.791
17459WAT      O52618   9.142   7.387   8.278
17459WAT     H152619   9.107   7.344   8.195
17459WAT     H252620   9.241   7.372   8.284
17460WAT      O52621   2.336   1.505   3.121
17460WAT     H152622   2.423   1.480   3.080
17460WAT     H252623   2.352   1.544   3.211
17461WAT      O52624   9.812   9.439   4.660
17461WAT     H152625   9.847   9.449   4.566
17461WAT     H252626   9.714   9.416   4.657
17462WAT      O52627   0.319   2.428   6.608
17462WAT     H152628   0.291   2.520   6.580
17462WAT     H252629   0.405   2.434   6.659
17463WAT      O52630   8.455   8.264   0.108
17463WAT     H152631   8.464   8.195   0.036
17463WAT     H252632   8.432   8.220   0.194
17464WAT      O52633   9.800   5.084   6.826
17464WAT     H152634   9.841   5.147   6.760
17464WAT     H252635   9.845   4.996   6.820
17465WAT      O52636   2.040   5.621   0.361
17465WAT     H152637   2.081   5.538   0.321
17465WAT     H252638   2.110   5.692   0.367
17466WAT      O52639   7.891   0.720   0.595
17466WAT     H152640   7.819   0.730   0.664
17466WAT     H252641   7.850   0.704   0.506
17467WAT      O52642   3.502   9.006   7.801
17467WAT     H152643   3.518   9.078   7.733
17467WAT     H252644   3.508   8.917   7.757
17468WAT      O52645   6.471   1.900   8.145
17468WAT     H152646   6.497   1.807   8.171
17468WAT     H252647   6.456   1.955   8.227
17469WAT      O52648   2.724   7.170   9.020
17469WAT     H152649   2.697   7.079   9.051
17469WAT     H252650   2.648   7.213   8.973
17470WAT      O52651   6.542   7.020   6.690
17470WAT     H152652   6.453   7.058   6.714
17470WAT     H252653   6.597   7.010   6.772
17471WAT      O52654   8.475   7.294   7.826
17471WAT     H152655   8.401   7.280   7.892
17471WAT     H252656   8.558   7.251   7.861
17472WAT      O52657   0.342   7.630   0.703
17472WAT     H152658   0.309   7.718   0.670
17472WAT     H252659   0.288   7.601   0.782
17473WAT      O52660   6.104   1.852   5.198
17473WAT     H152661   6.139   1.771   5.244
17473WAT     H252662   6.004   1.853   5.203
17474WAT      O52663   5.549   4.094   8.797
17474WAT     H152664   5.548   4.132   8.890
17474WAT     H252665   5.466   4.121   8.748
17475WAT      O52666   7.334   6.616   7.074
17475WAT     H152667   7.312   6.713   7.083
17475WAT     H252668   7.399   6.589   7.145
17476WAT      O52669   6.555   5.460   7.007
17476WAT     H152670   6.460   5.444   7.034
17476WAT     H252671   6.617   5.426   7.078
17477WAT      O52672   8.185   3.389   1.009
17477WAT     H152673   8.209   3.311   0.951
17477WAT     H252674   8.213   3.473   0.964
17478WAT      O52675   5.044   7.069   5.022
17478WAT     H152676   5.128   7.112   4.987
17478WAT     H252677   5.045   6.971   5.001
17479WAT      O52678   3.952   8.288   3.581
17479WAT     H152679   4.030   8.233   3.609
17479WAT     H252680   3.872   8.229   3.568
17480WAT      O52681   1.315   0.402   6.844
17480WAT     H152682   1.285   0.493   6.815
17480WAT     H252683   1.345   0.350   6.765
17481WAT      O52684   2.028   8.457   9.486
17481WAT     H152685   1.965   8.385   9.458
17481WAT     H252686   1.978   8.528   9.536
17482WAT      O52687   6.368   3.056   0.699
17482WAT     H152688   6.356   3.144   0.654
17482WAT     H252689   6.281   3.005   0.696
17483WAT      O52690   3.351   3.678   2.061
17483WAT     H152691   3.303   3.684   2.148
17483WAT     H252692   3.305   3.612   2.002
17484WAT      O52693   1.492   6.942   5.128
17484WAT     H152694   1.497   6.894   5.041
17484WAT     H252695   1.477   6.876   5.202
17485WAT      O52696   4.947   6.631   8.710
17485WAT     H152697   4.989   6.682   8.635
17485WAT     H252698   4.969   6.676   8.797
17486WAT      O52699   8.592   4.604   8.970
17486WAT     H152700   8.659   4.679   8.978
17486WAT     H252701   8.569   4.570   9.061
17487WAT      O52702   6.185   0.611   4.158
17487WAT     H152703   6.206   0.708   4.147
17487WAT     H252704   6.239   0.574   4.233
17488WAT      O52705   9.668   4.740   6.612
17488WAT     H152706   9.638   4.783   6.697
17488WAT     H252707   9.692   4.810   6.545
17489WAT      O52708   8.745   5.856   6.206
17489WAT     H152709   8.723   5.930   6.270
17489WAT     H252710   8.831   5.878   6.160
17490WAT      O52711   2.676   3.255   3.422
17490WAT     H152712   2.583   3.218   3.426
17490WAT     H252713   2.675   3.349   3.457
17491WAT      O52714   0.809   1.214   9.463
17491WAT     H152715   0.839   1.277   9.392
17491WAT     H252716   0.711   1.223   9.477
17492WAT      O52717   2.419   4.198   0.376
17492WAT     H152718   2.405   4.155   0.464
17492WAT     H252719   2.506   4.168   0.337
17493WAT      O52720   6.984   0.220   9.581
17493WAT     H152721   6.948   0.226   9.488
17493WAT     H252722   7.045   0.141   9.588
17494WAT      O52723   1.581   9.207   7.117
17494WAT     H152724   1.645   9.255   7.057
17494WAT     H252725   1.632   9.158   7.188
17495WAT      O52726   6.574   5.573   4.156
17495WAT     H152727   6.558   5.628   4.074
17495WAT     H252728   6.489   5.563   4.207
17496WAT      O52729   3.630   5.591   3.837
17496WAT     H152730   3.677   5.679   3.838
17496WAT     H252731   3.544   5.599   3.786
17497WAT      O52732   3.009   6.956   1.607
17497WAT     H152733   2.976   7.004   1.688
17497WAT     H252734   3.033   7.022   1.537
17498WAT      O52735   0.775   9.357   9.128
17498WAT     H152736   0.875   9.357   9.126
17498WAT     H252737   0.741   9.387   9.039
17499WAT      O52738   4.401   3.096   2.590
17499WAT     H152739   4.457   3.098   2.508
17499WAT     H252740   4.318   3.042   2.574
17500WAT      O52741   5.525   7.555   2.131
17500WAT     H152742   5.454   7.616   2.096
17500WAT     H252743   5.519   7.551   2.231
17501WAT      O52744   1.480   5.503   5.076
17501WAT     H152745   1.487   5.423   5.016
17501WAT     H252746   1.543   5.492   5.153
17502WAT      O52747   6.709   6.301   5.526
17502WAT     H152748   6.741   6.209   5.548
17502WAT     H252749   6.781   6.352   5.479
17503WAT      O52750   4.154   8.641   5.023
17503WAT     H152751   4.155   8.569   5.091
17503WAT     H252752   4.233   8.630   4.962
17504WAT      O52753   6.051   2.320   8.631
17504WAT     H152754   6.073   2.370   8.547
17504WAT     H252755   6.097   2.364   8.709
17505WAT      O52756   2.852   4.514   4.904
17505WAT     H152757   2.845   4.609   4.875
17505WAT     H252758   2.820   4.505   4.998
17506WAT      O52759   7.815   7.862   7.015
17506WAT     H152760   7.763   7.947   7.009
17506WAT     H252761   7.808   7.824   7.107
17507WAT      O52762   3.897   6.244   3.394
17507WAT     H152763   3.840   6.325   3.408
17507WAT     H252764   3.887   6.212   3.300
17508WAT      O52765   4.025   8.853   1.814
17508WAT     H152766   4.076   8.788   1.757
17508WAT     H252767   3.929   8.851   1.789
17509WAT      O52768   2.886   7.401   4.694
17509WAT     H152769   2.810   7.339   4.714
17509WAT     H252770   2.972   7.358   4.720
17510WAT      O52771   3.822   2.855   7.364
17510WAT     H152772   3.754   2.789   7.397
17510WAT     H252773   3.777   2.942   7.344
17511WAT      O52774   9.757   1.402   1.825
17511WAT     H152775   9.764   1.441   1.917
17511WAT     H252776   9.767   1.475   1.757
17512WAT      O52777   3.386   9.425   4.921
17512WAT     H152778   3.436   9.376   4.850
17512WAT     H252779   3.311   9.367   4.954
17513WAT      O52780   6.450   6.622   8.566
17513WAT     H152781   6.491   6.688   8.502
17513WAT     H252782   6.510   6.610   8.645
17514WAT      O52783   0.310   5.473   1.133
17514WAT     H152784   0.295   5.420   1.050
17514WAT     H252785   0.403   5.457   1.166
17515WAT      O52786   9.630   5.838   9.679
17515WAT     H152787   9.692   5.852   9.601
17515WAT     H252788   9.549   5.789   9.648
17516WAT      O52789   9.385   7.368   8.962
17516WAT     H152790   9.337   7.417   8.889
17516WAT     H252791   9.461   7.316   8.923
17517WAT      O52792   4.853   1.210   5.840
17517WAT     H152793   4.914   1.255   5.775
17517WAT     H252794   4.893   1.213   5.931
17518WAT      O52795   6.669   8.031   5.804
17518WAT     H152796   6.681   8.089   5.723
17518WAT     H252797   6.721   7.946   5.792
17519WAT      O52798   9.270   7.047   0.354
17519WAT     H152799   9.239   7.036   0.260
17519WAT     H252800   9.256   6.962   0.405
17520WAT      O52801   5.385   7.319   2.400
17520WAT     H152802   5.430   7.408   2.403
17520WAT     H252803   5.445   7.253   2.354
17521WAT      O52804   9.440   8.327   5.122
17521WAT     H152805   9.490   8.270   5.188
17521WAT     H252806   9.351   8.351   5.160
17522WAT      O52807   9.170   5.997   2.182
17522WAT     H152808   9.100   5.998   2.110
17522WAT     H252809   9.251   6.047   2.151
17523WAT      O52810   2.426   8.702   6.257
17523WAT     H152811   2.455   8.614   6.296
17523WAT     H252812   2.463   8.711   6.165
17524WAT      O52813   2.799   2.625   5.779
17524WAT     H152814   2.853   2.549   5.741
17524WAT     H252815   2.861   2.696   5.813
17525WAT      O52816   6.024   6.902   3.886
17525WAT     H152817   6.104   6.865   3.840
17525WAT     H252818   6.053   6.957   3.964
17526WAT      O52819   1.010   4.980   7.367
17526WAT     H152820   0.931   4.977   7.428
17526WAT     H252821   1.013   5.068   7.320
17527WAT      O52822   7.426   3.182   2.918
17527WAT     H152823   7.373   3.104   2.952
17527WAT     H252824   7.424   3.182   2.818
17528WAT      O52825   9.166   7.571   3.807
17528WAT     H152826   9.193   7.606   3.717
17528WAT     H252827   9.203   7.630   3.878
17529WAT      O52828   8.197   4.642   5.874
17529WAT     H152829   8.264   4.608   5.808
17529WAT     H252830   8.244   4.676   5.955
17530WAT      O52831   3.762   9.750   5.477
17530WAT     H152832   3.794   9.746   5.571
17530WAT     H252833   3.692   9.821   5.469
17531WAT      O52834   0.435   5.777   8.484
17531WAT     H152835   0.460   5.869   8.513
17531WAT     H252836   0.423   5.775   8.384
17532WAT      O52837   5.051   4.144   5.692
17532WAT     H152838   5.127   4.200   5.724
17532WAT     H252839   5.018   4.180   5.604
17533WAT      O52840   2.044   7.864   2.685
17533WAT     H152841   2.010   7.812   2.607
17533WAT     H252842   2.077   7.953   2.653
17534WAT      O52843   0.481   9.278   2.895
17534WAT     H152844   0.468   9.181   2.916
17534WAT     H252845   0.559   9.288   2.833
17535WAT      O52846   7.359   6.129   0.221
17535WAT     H152847   7.444   6.168   0.184
17535WAT     H252848   7.304   6.093   0.146
17536WAT      O52849   1.313   0.447   9.362
17536WAT     H152850   1.239   0.410   9.417
17536WAT     H252851   1.276   0.503   9.288
17537WAT      O52852   1.648   9.348   6.531
17537WAT     H152853   1.723   9.306   6.582
17537WAT     H252854   1.672   9.352   6.434
17538WAT      O52855   0.529   0.147   1.315
17538WAT     H152856   0.523   0.132   1.216
17538WAT     H252857   0.527   0.245   1.335
17539WAT      O52858   9.413   4.816   6.423
17539WAT     H152859   9.422   4.764   6.508
17539WAT     H252860   9.331   4.873   6.428
17540WAT      O52861   0.645   3.888   5.648
17540WAT     H152862   0.745   3.879   5.649
17540WAT     H252863   0.610   3.878   5.741
17541WAT      O52864   9.083   2.343   4.643
17541WAT     H152865   9.160   2.285   4.619
17541WAT     H252866   9.094   2.433   4.602
17542WAT      O52867   1.117   7.690   9.320
17542WAT     H152868   1.173   7.710   9.401
17542WAT     H252869   1.074   7.601   9.331
17543WAT      O52870   0.334   5.455   7.856
17543WAT     H152871   0.393   5.476   7.934
17543WAT     H252872   0.377   5.385   7.799
17544WAT      O52873   8.461   6.844   5.590
17544WAT     H152874   8.529   6.819   5.659
17544WAT     H252875   8.439   6.941   5.599
17545WAT      O52876   6.969   8.686   4.823
17545WAT     H152877   6.926   8.710   4.910
17545WAT     H252878   7.065   8.714   4.826
17546WAT      O52879   9.048   4.740   1.869
17546WAT     H152880   9.035   4.642   1.856
17546WAT     H252881   9.122   4.757   1.933
17547WAT      O52882   8.182   2.834   7.531
17547WAT     H152883   8.247   2.874   7.466
17547WAT     H252884   8.090   2.869   7.512
17548WAT      O52885   8.662   0.235   6.695
17548WAT     H152886   8.691   0.142   6.720
17548WAT     H252887   8.670   0.247   6.596
17549WAT      O52888   1.044   9.442   5.246
17549WAT     H152889   1.038   9.370   5.315
17549WAT     H252890   0.951   9.473   5.223
17550WAT      O52891   3.350   4.683   6.865
17550WAT     H152892   3.325   4.586   6.859
17550WAT     H252893   3.430   4.701   6.809
17551WAT      O52894   8.813   4.848   6.282
17551WAT     H152895   8.816   4.755   6.245
17551WAT     H252896   8.736   4.857   6.345
17552WAT      O52897   8.044   8.454   4.410
17552WAT     H152898   8.071   8.532   4.354
17552WAT     H252899   8.005   8.383   4.352
17553WAT      O52900   6.049   3.378   3.415
17553WAT     H152901   5.990   3.456   3.433
17553WAT     H252902   6.115   3.401   3.343
17554WAT      O52903   1.245   5.700   7.435
17554WAT     H152904   1.159   5.705   7.485
17554WAT     H252905   1.308   5.769   7.470
17555WAT      O52906   6.761   2.794   4.436
17555WAT     H152907   6.808   2.724   4.490
17555WAT     H252908   6.741   2.758   4.345
17556WAT      O52909   1.891   0.461   3.253
17556WAT     H152910   1.825   0.512   3.309
17556WAT     H252911   1.862   0.365   3.248
17557WAT      O52912   1.884   9.254   7.427
17557WAT     H152913   1.863   9.251   7.524
17557WAT     H252914   1.820   9.316   7.381
17558WAT      O52915   2.536   0.965   0.369
17558WAT     H152916   2.449   0.972   0.320
17558WAT     H252917   2.537   1.029   0.446
17559WAT      O52918   7.570   2.368   4.548
17559WAT     H152919   7.587   2.330   4.639
17559WAT     H252920   7.524   2.457   4.556
17560WAT      O52921   0.257   3.291   1.130
17560WAT     H152922   0.315   3.331   1.059
17560WAT     H252923   0.310   3.224   1.183
17561WAT      O52924   8.479   8.415   0.444
17561WAT     H152925   8.445   8.323   0.422
17561WAT     H252926   8.402   8.479   0.448
17562WAT      O52927   4.175   8.221   6.283
17562WAT     H152928   4.110   8.275   6.228
17562WAT     H252929   4.154   8.234   6.380
17563WAT      O52930   6.102   8.137   6.047
17563WAT     H152931   6.118   8.187   5.962
17563WAT     H252932   6.008   8.103   6.048
17564WAT      O52933   9.094   5.443   3.604
17564WAT     H152934   9.185   5.480   3.624
17564WAT     H252935   9.082   5.437   3.505
17565WAT      O52936   6.251   7.141   1.559
17565WAT     H152937   6.256   7.230   1.604
17565WAT     H252938   6.300   7.145   1.472
17566WAT      O52939   6.674   6.741   5.513
17566WAT     H152940   6.765   6.782   5.517
17566WAT     H252941   6.660   6.682   5.592
17567WAT      O52942   1.087   1.250   8.912
17567WAT     H152943   1.173   1.212   8.877
17567WAT     H252944   1.107   1.328   8.972
17568WAT      O52945   8.189   1.536   7.339
17568WAT     H152946   8.112   1.532   7.276
17568WAT     H252947   8.201   1.629   7.372
17569WAT      O52948   4.879   0.495   4.150
17569WAT     H152949   4.800   0.434   4.154
17569WAT     H252950   4.873   0.561   4.225
17570WAT      O52951   7.334   2.917   4.167
17570WAT     H152952   7.393   2.984   4.211
17570WAT     H252953   7.339   2.831   4.218
17571WAT      O52954   4.024   7.788   2.500
17571WAT     H152955   4.025   7.688   2.495
17571WAT     H252956   4.117   7.822   2.510
17572WAT      O52957   0.758   4.240   3.017
17572WAT     H152958   0.779   4.336   2.999
17572WAT     H252959   0.841   4.194   3.051
17573WAT      O52960   4.336   3.600   2.700
17573WAT     H152961   4.428   3.621   2.735
17573WAT     H252962   4.332   3.504   2.673
17574WAT      O52963   8.406   6.565   9.851
17574WAT     H152964   8.387   6.533   9.758
17574WAT     H252965   8.499   6.539   9.877
17575WAT      O52966   5.769   2.822   6.741
17575WAT     H152967   5.771   2.836   6.642
17575WAT     H252968   5.698   2.880   6.781
17576WAT      O52969   8.821   3.798   4.242
17576WAT     H152970   8.764   3.717   4.234
17576WAT     H252971   8.812   3.836   4.334
17577WAT      O52972   0.188   3.996   9.710
17577WAT     H152973   0.113   4.042   9.758
17577WAT     H252974   0.156   3.908   9.676
17578WAT      O52975   9.582   8.577   4.038
17578WAT     H152976   9.485   8.563   4.056
17578WAT     H252977   9.594   8.630   3.953
17579WAT      O52978   7.201   4.843   3.666
17579WAT     H152979   7.162   4.870   3.577
17579WAT     H252980   7.220   4.744   3.665
17580WAT      O52981   0.973   9.696   5.554
17580WAT     H152982   0.981   9.770   5.487
17580WAT     H252983   1.057   9.643   5.556
17581WAT      O52984   3.691   6.052   1.792
17581WAT     H152985   3.744   5.971   1.818
17581WAT     H252986   3.743   6.106   1.726
17582WAT      O52987   9.051   0.262   6.533
17582WAT     H152988   9.141   0.304   6.516
17582WAT     H252989   8.998   0.322   6.592
17583WAT      O52990   7.336   1.392   4.454
17583WAT     H152991   7.335   1.294   4.476
17583WAT     H252992   7.427   1.418   4.421
17584WAT      O52993   4.420   0.033   5.567
17584WAT     H152994   4.397   0.130   5.576
17584WAT     H252995   4.511   0.017   5.604
17585WAT      O52996   3.919   6.096   6.136
17585WAT     H152997   3.945   6.168   6.072
17585WAT     H252998   3.840   6.046   6.101
17586WAT      O52999   7.949   8.257   2.886
17586WAT     H153000   7.963   8.159   2.869
17586WAT     H253001   7.963   8.308   2.801
17587WAT      O53002   3.855   1.234   4.811
17587WAT     H153003   3.800   1.293   4.870
17587WAT     H253004   3.854   1.141   4.848
17588WAT      O53005   0.010   2.145   0.303
17588WAT     H153006   0.066   2.214   0.258
17588WAT     H253007   0.017   2.155   0.402
17589WAT      O53008   6.211   9.042   1.834
17589WAT     H153009   6.297   8.994   1.820
17589WAT     H253010   6.135   8.983   1.810
17590WAT      O53011   1.420   8.397   6.857
17590WAT     H153012   1.460   8.477   6.902
17590WAT     H253013   1.492   8.335   6.828
17591WAT      O53014   7.735   3.190   6.433
17591WAT     H153015   7.638   3.166   6.441
17591WAT     H253016   7.791   3.120   6.477
17592WAT      O53017   3.412   0.511   5.351
17592WAT     H153018   3.379   0.421   5.324
17592WAT     H253019   3.475   0.503   5.429
17593WAT      O53020   6.336   0.526   7.221
17593WAT     H153021   6.305   0.443   7.266
17593WAT     H253022   6.371   0.504   7.130
17594WAT      O53023   7.643   6.234   3.975
17594WAT     H153024   7.719   6.263   3.917
17594WAT     H253025   7.675   6.224   4.069
17595WAT      O53026   3.204   5.821   1.932
17595WAT     H153027   3.234   5.797   1.840
17595WAT     H253028   3.111   5.787   1.948
17596WAT      O53029   4.534   9.596   3.811
17596WAT     H153030   4.511   9.694   3.810
17596WAT     H253031   4.454   9.543   3.785
17597WAT      O53032   7.146   8.433   4.977
17597WAT     H153033   7.175   8.524   4.947
17597WAT     H253034   7.209   8.400   5.047
17598WAT      O53035   3.634   0.624   3.753
17598WAT     H153036   3.575   0.571   3.692
17598WAT     H253037   3.581   0.658   3.830
17599WAT      O53038   3.092   8.733   4.467
17599WAT     H153039   3.050   8.750   4.378
17599WAT     H253040   3.179   8.686   4.455
17600WAT      O53041   3.847   3.447   5.375
17600WAT     H153042   3.869   3.354   5.404
17600WAT     H253043   3.836   3.449   5.276
17601WAT      O53044   5.162   1.764   6.992
17601WAT     H153045   5.093   1.782   7.063
17601WAT     H253046   5.216   1.847   6.977
17602WAT      O53047   0.038   7.095   2.470
17602WAT     H153048  -0.014   7.145   2.540
17602WAT     H253049   0.039   6.998   2.493
17603WAT      O53050   0.088   4.823   2.478
17603WAT     H153051   0.129   4.733   2.489
17603WAT     H253052   0.110   4.880   2.557
17604WAT      O53053   3.229   8.060   3.549
17604WAT     H153054   3.283   8.106   3.478
17604WAT     H253055   3.145   8.024   3.508
17605WAT      O53056   3.484   4.349   1.837
17605WAT     H153057   3.522   4.440   1.851
17605WAT     H253058   3.552   4.280   1.861
17606WAT      O53059   6.572   3.925   2.106
17606WAT     H153060   6.621   3.970   2.031
17606WAT     H253061   6.476   3.952   2.104
17607WAT      O53062   0.281   6.160   9.562
17607WAT     H153063   0.282   6.070   9.519
17607WAT     H253064   0.190   6.179   9.598
17608WAT      O53065   8.270   3.960   6.341
17608WAT     H153066   8.225   4.049   6.338
17608WAT     H253067   8.316   3.943   6.254
17609WAT      O53068   3.425   2.578   6.031
17609WAT     H153069   3.491   2.651   6.050
17609WAT     H253070   3.336   2.618   6.008
17610WAT      O53071   5.428   8.022   8.144
17610WAT     H153072   5.396   8.082   8.217
17610WAT     H253073   5.482   7.947   8.182
17611WAT      O53074   8.170   1.903   7.010
17611WAT     H153075   8.097   1.836   6.995
17611WAT     H253076   8.132   1.985   7.051
17612WAT      O53077   9.268   1.050   5.875
17612WAT     H153078   9.187   1.038   5.817
17612WAT     H253079   9.326   0.970   5.869
17613WAT      O53080   3.443   7.695   5.846
17613WAT     H153081   3.503   7.619   5.870
17613WAT     H253082   3.492   7.782   5.862
17614WAT      O53083   3.218   7.699   2.391
17614WAT     H153084   3.206   7.626   2.458
17614WAT     H253085   3.129   7.724   2.353
17615WAT      O53086   9.784   2.985   6.561
17615WAT     H153087   9.829   3.072   6.541
17615WAT     H253088   9.685   2.997   6.560
17616WAT      O53089   1.295   5.221   4.229
17616WAT     H153090   1.309   5.315   4.259
17616WAT     H253091   1.264   5.166   4.307
17617WAT      O53092   9.075   0.656   9.868
17617WAT     H153093   9.093   0.590   9.796
17617WAT     H253094   9.087   0.749   9.832
17618WAT      O53095   4.476   5.674   8.410
17618WAT     H153096   4.492   5.690   8.313
17618WAT     H253097   4.549   5.617   8.447
17619WAT      O53098   0.891   9.178   2.059
17619WAT     H153099   0.873   9.199   2.156
17619WAT     H253100   0.990   9.179   2.043
17620WAT      O53101   0.319   0.864   1.769
17620WAT     H153102   0.382   0.827   1.702
17620WAT     H253103   0.361   0.862   1.860
17621WAT      O53104   7.720   8.187   7.510
17621WAT     H153105   7.761   8.101   7.482
17621WAT     H253106   7.789   8.259   7.511
17622WAT      O53107   3.879   5.173   4.518
17622WAT     H153108   3.890   5.219   4.430
17622WAT     H253109   3.949   5.103   4.529
17623WAT      O53110   5.334   4.463   3.736
17623WAT     H153111   5.354   4.367   3.753
17623WAT     H253112   5.378   4.492   3.651
17624WAT      O53113   6.030   8.454   9.483
17624WAT     H153114   6.105   8.486   9.541
17624WAT     H253115   5.974   8.531   9.454
17625WAT      O53116   2.634   1.543   7.277
17625WAT     H153117   2.626   1.543   7.177
17625WAT     H253118   2.612   1.635   7.312
17626WAT      O53119   3.121   5.529   4.411
17626WAT     H153120   3.200   5.520   4.471
17626WAT     H253121   3.078   5.619   4.425
17627WAT      O53122   2.062   7.716   5.734
17627WAT     H153123   2.004   7.635   5.725
17627WAT     H253124   2.005   7.798   5.743
17628WAT      O53125   2.564   9.128   3.269
17628WAT     H153126   2.532   9.197   3.335
17628WAT     H253127   2.569   9.039   3.314
17629WAT      O53128   7.347   0.732   1.187
17629WAT     H153129   7.373   0.739   1.283
17629WAT     H253130   7.247   0.722   1.179
17630WAT      O53131   2.227   0.706   0.979
17630WAT     H153132   2.251   0.659   1.064
17630WAT     H253133   2.297   0.686   0.910
17631WAT      O53134   0.642   0.201   8.484
17631WAT     H153135   0.622   0.164   8.394
17631WAT     H253136   0.719   0.264   8.478
17632WAT      O53137   9.740   3.438   8.144
17632WAT     H153138   9.809   3.447   8.072
17632WAT     H253139   9.660   3.493   8.121
17633WAT      O53140   4.097   5.859   3.982
17633WAT     H153141   4.160   5.920   4.031
17633WAT     H253142   4.014   5.847   4.036
17634WAT      O53143   3.531   5.470   3.246
17634WAT     H153144   3.442   5.487   3.205
17634WAT     H253145   3.531   5.380   3.290
17635WAT      O53146   5.612   4.828   6.644
17635WAT     H153147   5.517   4.851   6.664
17635WAT     H253148   5.670   4.909   6.656
17636WAT      O53149   3.477   6.896   2.265
17636WAT     H153150   3.466   6.803   2.300
17636WAT     H253151   3.571   6.910   2.236
17637WAT      O53152   9.831   9.225   0.652
17637WAT     H153153   9.829   9.133   0.692
17637WAT     H253154   9.917   9.238   0.603
17638WAT      O53155   9.623   5.328   0.150
17638WAT     H153156   9.670   5.333   0.238
17638WAT     H253157   9.634   5.236   0.112
17639WAT      O53158   7.485   5.231   0.843
17639WAT     H153159   7.572   5.261   0.881
17639WAT     H253160   7.488   5.133   0.826
17640WAT      O53161   0.456   9.196   0.444
17640WAT     H153162   0.460   9.137   0.525
17640WAT     H253163   0.424   9.287   0.471
17641WAT      O53164   6.177   3.872   6.694
17641WAT     H153165   6.174   3.844   6.598
17641WAT     H253166   6.093   3.920   6.717
17642WAT      O53167   9.459   7.323   5.583
17642WAT     H153168   9.396   7.342   5.659
17642WAT     H253169   9.551   7.308   5.620
17643WAT      O53170   4.432   7.520   9.476
17643WAT     H153171   4.416   7.505   9.574
17643WAT     H253172   4.444   7.618   9.459
17644WAT      O53173   2.913   8.810   6.666
17644WAT     H153174   2.823   8.815   6.623
17644WAT     H253175   2.902   8.793   6.764
17645WAT      O53176   3.989   1.725   1.076
17645WAT     H153177   4.080   1.751   1.046
17645WAT     H253178   3.980   1.740   1.174
17646WAT      O53179   4.070   6.070   1.641
17646WAT     H153180   4.089   6.123   1.724
17646WAT     H253181   4.040   5.978   1.666
17647WAT      O53182   0.123   0.772   8.991
17647WAT     H153183   0.089   0.794   8.899
17647WAT     H253184   0.207   0.719   8.983
17648WAT      O53185   3.948   4.432   7.991
17648WAT     H153186   3.947   4.465   7.896
17648WAT     H253187   3.912   4.338   7.994
17649WAT      O53188   5.662   0.601   3.912
17649WAT     H153189   5.576   0.638   3.878
17649WAT     H253190   5.726   0.589   3.836
17650WAT      O53191   7.456   6.003   8.106
17650WAT     H153192   7.389   6.077   8.100
17650WAT     H253193   7.416   5.919   8.068
17651WAT      O53194   3.782   3.773   5.414
17651WAT     H153195   3.799   3.688   5.365
17651WAT     H253196   3.698   3.764   5.468
17652WAT      O53197   1.309   6.188   4.926
17652WAT     H153198   1.384   6.164   4.864
17652WAT     H253199   1.346   6.196   5.019
17653WAT      O53200   2.796   7.935   8.764
17653WAT     H153201   2.838   7.852   8.798
17653WAT     H253202   2.719   7.961   8.823
17654WAT      O53203   8.961   7.096   9.150
17654WAT     H153204   8.924   7.086   9.243
17654WAT     H253205   9.032   7.166   9.149
17655WAT      O53206   2.645   2.085   2.163
17655WAT     H153207   2.742   2.062   2.151
17655WAT     H253208   2.637   2.177   2.200
17656WAT      O53209   5.944   0.975   3.455
17656WAT     H153210   5.881   0.897   3.451
17656WAT     H253211   5.915   1.038   3.526
17657WAT      O53212   7.237   0.315   4.581
17657WAT     H153213   7.278   0.407   4.576
17657WAT     H253214   7.149   0.320   4.628
17658WAT      O53215   5.021   4.667   9.813
17658WAT     H153216   5.029   4.631   9.905
17658WAT     H253217   5.040   4.595   9.746
17659WAT      O53218   8.166   1.786   9.444
17659WAT     H153219   8.252   1.742   9.468
17659WAT     H253220   8.185   1.874   9.400
17660WAT      O53221   6.839   6.727   1.249
17660WAT     H153222   6.827   6.648   1.189
17660WAT     H253223   6.806   6.704   1.341
17661WAT      O53224   6.873   2.908   7.787
17661WAT     H153225   6.776   2.902   7.811
17661WAT     H253226   6.909   2.816   7.769
17662WAT      O53227   6.195   8.730   4.942
17662WAT     H153228   6.288   8.712   4.973
17662WAT     H253229   6.186   8.705   4.845
17663WAT      O53230   3.381   1.209   0.141
17663WAT     H153231   3.290   1.187   0.173
17663WAT     H253232   3.395   1.308   0.146
17664WAT      O53233   5.470   0.647   1.519
17664WAT     H153234   5.386   0.598   1.495
17664WAT     H253235   5.512   0.683   1.436
17665WAT      O53236   8.376   9.629   0.543
17665WAT     H153237   8.435   9.617   0.463
17665WAT     H253238   8.330   9.543   0.563
17666WAT      O53239   2.291   2.829   1.264
17666WAT     H153240   2.210   2.828   1.323
17666WAT     H253241   2.350   2.905   1.291
17667WAT      O53242   8.552   6.397   4.835
17667WAT     H153243   8.646   6.430   4.833
17667WAT     H253244   8.543   6.326   4.904
17668WAT      O53245   2.883   4.553   2.366
17668WAT     H153246   2.834   4.500   2.297
17668WAT     H253247   2.935   4.626   2.322
17669WAT      O53248   3.718   2.214   7.147
17669WAT     H153249   3.659   2.252   7.075
17669WAT     H253250   3.711   2.114   7.146
17670WAT      O53251   7.013   7.935   8.615
17670WAT     H153252   7.062   7.978   8.690
17670WAT     H253253   7.062   7.853   8.585
17671WAT      O53254   3.450   8.915   0.618
17671WAT     H153255   3.405   8.908   0.708
17671WAT     H253256   3.532   8.971   0.626
17672WAT      O53257   1.850   4.054   4.037
17672WAT     H153258   1.791   4.126   4.000
17672WAT     H253259   1.803   3.966   4.033
17673WAT      O53260   4.466   8.747   3.657
17673WAT     H153261   4.562   8.720   3.671
17673WAT     H253262   4.455   8.843   3.682
17674WAT      O53263   3.295   3.081   0.709
17674WAT     H153264   3.350   3.051   0.786
17674WAT     H253265   3.301   3.180   0.700
17675WAT      O53266   8.826   3.171   0.683
17675WAT     H153267   8.870   3.085   0.708
17675WAT     H253268   8.768   3.157   0.603
17676WAT      O53269   1.107   6.524   7.717
17676WAT     H153270   1.066   6.445   7.673
17676WAT     H253271   1.084   6.523   7.815
17677WAT      O53272   1.822   8.855   7.919
17677WAT     H153273   1.846   8.934   7.863
17677WAT     H253274   1.724   8.858   7.941
17678WAT      O53275   7.171   2.703   7.101
17678WAT     H153276   7.260   2.700   7.146
17678WAT     H253277   7.130   2.793   7.115
17679WAT      O53278   1.257   8.227   2.769
17679WAT     H153279   1.214   8.258   2.854
17679WAT     H253280   1.243   8.129   2.757
17680WAT      O53281   0.020   1.684   7.413
17680WAT     H153282   0.002   1.782   7.410
17680WAT     H253283   0.006   1.644   7.323
17681WAT      O53284   1.139   9.269   5.058
17681WAT     H153285   1.092   9.336   5.116
17681WAT     H253286   1.181   9.316   4.980
17682WAT      O53287   6.728   5.273   7.147
17682WAT     H153288   6.826   5.288   7.159
17682WAT     H253289   6.689   5.238   7.232
17683WAT      O53290   2.731   2.261   8.584
17683WAT     H153291   2.654   2.236   8.525
17683WAT     H253292   2.738   2.360   8.589
17684WAT      O53293   7.853   6.160   6.035
17684WAT     H153294   7.831   6.084   6.096
17684WAT     H253295   7.879   6.125   5.945
17685WAT      O53296   9.506   1.976   9.773
17685WAT     H153297   9.601   1.971   9.802
17685WAT     H253298   9.454   2.032   9.837
17686WAT      O53299   6.881   3.283   8.339
17686WAT     H153300   6.870   3.184   8.345
17686WAT     H253301   6.813   3.320   8.275
17687WAT      O53302   3.869   8.086   6.990
17687WAT     H153303   3.894   8.134   7.074
17687WAT     H253304   3.933   8.011   6.974
17688WAT      O53305   9.186   0.766   1.977
17688WAT     H153306   9.119   0.814   1.921
17688WAT     H253307   9.152   0.760   2.071
17689WAT      O53308   7.977   4.444   8.217
17689WAT     H153309   7.904   4.456   8.149
17689WAT     H253310   7.958   4.501   8.297
17690WAT      O53311   2.174   4.602   4.984
17690WAT     H153312   2.222   4.600   4.897
17690WAT     H253313   2.224   4.659   5.049
17691WAT      O53314   5.915   5.556   5.547
17691WAT     H153315   5.940   5.627   5.481
17691WAT     H253316   5.976   5.478   5.536
17692WAT      O53317   6.418   7.101   9.570
17692WAT     H153318   6.409   7.146   9.658
17692WAT     H253319   6.429   7.170   9.498
17693WAT      O53320   1.976   8.439   1.282
17693WAT     H153321   1.882   8.410   1.260
17693WAT     H253322   2.026   8.457   1.198
17694WAT      O53323   8.076   9.294   9.885
17694WAT     H153324   8.132   9.292   9.803
17694WAT     H253325   8.102   9.218   9.945
17695WAT      O53326   4.451   7.558   8.228
17695WAT     H153327   4.471   7.590   8.321
17695WAT     H253328   4.535   7.560   8.173
17696WAT      O53329   2.547   6.765   6.248
17696WAT     H153330   2.487   6.789   6.325
17696WAT     H253331   2.520   6.818   6.167
17697WAT      O53332   8.422   9.662   9.874
17697WAT     H153333   8.394   9.724   9.801
17697WAT     H253334   8.347   9.600   9.896
17698WAT      O53335   0.964   0.284   8.306
17698WAT     H153336   0.934   0.352   8.372
17698WAT     H253337   0.941   0.314   8.214
17699WAT      O53338   8.870   7.064   5.065
17699WAT     H153339   8.899   6.972   5.092
17699WAT     H253340   8.950   7.124   5.062
17700WAT      O53341   0.649   0.063   1.997
17700WAT     H153342   0.588   0.033   2.070
17700WAT     H253343   0.717  -0.008   1.980
17701WAT      O53344   1.819   7.112   3.208
17701WAT     H153345   1.864   7.160   3.133
17701WAT     H253346   1.794   7.177   3.280
17702WAT      O53347   5.453   0.158   0.889
17702WAT     H153348   5.381   0.157   0.819
17702WAT     H253349   5.484   0.252   0.904
17703WAT      O53350   1.549   3.152   5.820
17703WAT     H153351   1.647   3.158   5.801
17703WAT     H253352   1.532   3.173   5.916
17704WAT      O53353   8.700   7.990   4.527
17704WAT     H153354   8.699   7.891   4.540
17704WAT     H253355   8.609   8.021   4.500
17705WAT      O53356   0.105   0.512   1.565
17705WAT     H153357   0.057   0.600   1.565
17705WAT     H253358   0.203   0.528   1.553
17706WAT      O53359   0.837   9.823   7.862
17706WAT     H153360   0.900   9.888   7.820
17706WAT     H253361   0.875   9.792   7.950
17707WAT      O53362   9.162   7.081   2.079
17707WAT     H153363   9.180   7.175   2.108
17707WAT     H253364   9.146   7.080   1.980
17708WAT      O53365   3.704   1.810   1.283
17708WAT     H153366   3.717   1.711   1.281
17708WAT     H253367   3.792   1.855   1.300
17709WAT      O53368   1.819   7.645   9.688
17709WAT     H153369   1.738   7.590   9.667
17709WAT     H253370   1.804   7.739   9.658
17710WAT      O53371   1.854   1.406   4.561
17710WAT     H153372   1.774   1.403   4.621
17710WAT     H253373   1.937   1.399   4.616
17711WAT      O53374   6.578   0.236   0.433
17711WAT     H153375   6.661   0.179   0.424
17711WAT     H253376   6.498   0.181   0.409
17712WAT      O53377   7.892   2.455   5.220
17712WAT     H153378   7.974   2.506   5.192
17712WAT     H253379   7.911   2.357   5.213
17713WAT      O53380   5.106   9.431   3.191
17713WAT     H153381   5.167   9.367   3.143
17713WAT     H253382   5.117   9.522   3.153
17714WAT      O53383   5.713   9.484   7.339
17714WAT     H153384   5.801   9.439   7.328
17714WAT     H253385   5.644   9.436   7.286
17715WAT      O53386   1.331   5.348   0.792
17715WAT     H153387   1.280   5.270   0.826
17715WAT     H253388   1.406   5.317   0.733
17716WAT      O53389   3.116   1.785   6.238
17716WAT     H153390   3.167   1.748   6.314
17716WAT     H253391   3.019   1.789   6.261
17717WAT      O53392   5.673   8.017   0.005
17717WAT     H153393   5.681   8.116  -0.000
17717WAT     H253394   5.634   7.982  -0.080
17718WAT      O53395   6.739   4.513   5.926
17718WAT     H153396   6.749   4.612   5.924
17718WAT     H253397   6.807   4.474   5.988
17719WAT      O53398   7.133   4.485   6.301
17719WAT     H153399   7.074   4.506   6.379
17719WAT     H253400   7.222   4.530   6.314
17720WAT      O53401   8.242   4.901   5.677
17720WAT     H153402   8.150   4.905   5.716
17720WAT     H253403   8.307   4.946   5.738
17721WAT      O53404   1.060   3.822   7.685
17721WAT     H153405   1.002   3.745   7.657
17721WAT     H253406   1.155   3.792   7.690
17722WAT      O53407   4.656   9.499   9.892
17722WAT     H153408   4.695   9.587   9.920
17722WAT     H253409   4.639   9.500   9.794
17723WAT      O53410   0.971   1.576   1.966
17723WAT     H153411   0.902   1.641   1.935
17723WAT     H253412   0.935   1.483   1.961
17724WAT      O53413   8.838   6.145   8.821
17724WAT     H153414   8.904   6.197   8.765
17724WAT     H253415   8.746   6.180   8.805
17725WAT      O53416   9.229   2.908   8.699
17725WAT     H153417   9.189   2.896   8.790
17725WAT     H253418   9.189   2.843   8.635
17726WAT      O53419   9.096   0.459   9.680
17726WAT     H153420   9.168   0.391   9.683
17726WAT     H253421   9.093   0.502   9.590
17727WAT      O53422   7.813   9.455   2.555
17727WAT     H153423   7.730   9.440   2.501
17727WAT     H253424   7.892   9.419   2.505
17728WAT      O53425   3.522   8.732   1.313
17728WAT     H153426   3.621   8.737   1.326
17728WAT     H253427   3.501   8.662   1.244
17729WAT      O53428   8.840   0.471   6.172
17729WAT     H153429   8.916   0.418   6.135
17729WAT     H253430   8.872   0.523   6.251
17730WAT      O53431   5.291   4.837   8.901
17730WAT     H153432   5.334   4.799   8.983
17730WAT     H253433   5.253   4.927   8.921
17731WAT      O53434   8.801   4.543   7.830
17731WAT     H153435   8.810   4.461   7.774
17731WAT     H253436   8.799   4.517   7.926
17732WAT      O53437   8.117   6.780   1.914
17732WAT     H153438   8.064   6.865   1.922
17732WAT     H253439   8.207   6.794   1.955
17733WAT      O53440   9.122   1.771   7.202
17733WAT     H153441   9.082   1.732   7.285
17733WAT     H253442   9.206   1.820   7.225
17734WAT      O53443   7.479   8.926   5.613
17734WAT     H153444   7.416   8.916   5.536
17734WAT     H253445   7.494   9.023   5.631
17735WAT      O53446   8.249   3.690   8.434
17735WAT     H153447   8.154   3.669   8.459
17735WAT     H253448   8.292   3.610   8.393
17736WAT      O53449   4.124   5.544   7.998
17736WAT     H153450   4.173   5.498   8.073
17736WAT     H253451   4.147   5.641   7.998
17737WAT      O53452   8.254   9.808   3.139
17737WAT     H153453   8.351   9.787   3.134
17737WAT     H253454   8.202   9.724   3.157
17738WAT      O53455   9.381   5.061   0.557
17738WAT     H153456   9.336   4.980   0.520
17738WAT     H253457   9.455   5.089   0.496
17739WAT      O53458   0.544   0.735   2.646
17739WAT     H153459   0.526   0.757   2.551
17739WAT     H253460   0.570   0.639   2.654
17740WAT      O53461   3.114   3.272   2.617
17740WAT     H153462   3.037   3.309   2.669
17740WAT     H253463   3.149   3.342   2.555
17741WAT      O53464   2.552   6.495   0.481
17741WAT     H153465   2.649   6.501   0.505
17741WAT     H253466   2.539   6.420   0.416
17742WAT      O53467   6.532   5.508   5.569
17742WAT     H153468   6.554   5.421   5.526
17742WAT     H253469   6.490   5.491   5.658
17743WAT      O53470   3.950   1.649   5.028
17743WAT     H153471   3.969   1.689   4.939
17743WAT     H253472   4.033   1.608   5.065
17744WAT      O53473   5.006   7.607   3.382
17744WAT     H153474   5.103   7.628   3.366
17744WAT     H253475   4.996   7.509   3.402
17745WAT      O53476   3.534   3.683   8.079
17745WAT     H153477   3.490   3.757   8.130
17745WAT     H253478   3.629   3.707   8.062
17746WAT      O53479   8.246   9.386   1.638
17746WAT     H153480   8.167   9.444   1.616
17746WAT     H253481   8.230   9.294   1.602
17747WAT      O53482   6.094   5.083   9.169
17747WAT     H153483   6.033   5.149   9.212
17747WAT     H253484   6.103   5.002   9.228
17748WAT      O53485   3.441   7.782   8.761
17748WAT     H153486   3.523   7.831   8.734
17748WAT     H253487   3.459   7.727   8.842
17749WAT      O53488   4.640   1.823   1.352
17749WAT     H153489   4.605   1.736   1.388
17749WAT     H253490   4.634   1.893   1.424
17750WAT      O53491   8.675   4.406   4.403
17750WAT     H153492   8.683   4.307   4.410
17750WAT     H253493   8.658   4.432   4.308
17751WAT      O53494   8.365   2.499   6.460
17751WAT     H153495   8.268   2.524   6.461
17751WAT     H253496   8.396   2.491   6.365
17752WAT      O53497   0.066   1.733   0.887
17752WAT     H153498   0.125   1.759   0.810
17752WAT     H253499  -0.020   1.695   0.853
17753WAT      O53500   9.025   1.667   5.331
17753WAT     H153501   9.119   1.696   5.316
17753WAT     H253502   9.018   1.622   5.420
17754WAT      O53503   4.635   4.523   4.591
17754WAT     H153504   4.617   4.620   4.574
17754WAT     H253505   4.598   4.498   4.681
17755WAT      O53506   4.088   5.475   0.026
17755WAT     H153507   4.072   5.396  -0.033
17755WAT     H253508   4.054   5.456   0.118
17756WAT      O53509   1.959   0.894   9.792
17756WAT     H153510   1.888   0.932   9.852
17756WAT     H253511   1.921   0.816   9.742
17757WAT      O53512   5.118   8.840   3.671
17757WAT     H153513   5.208   8.874   3.643
17757WAT     H253514   5.123   8.808   3.766
17758WAT      O53515   1.842   2.984   5.427
17758WAT     H153516   1.779   3.057   5.454
17758WAT     H253517   1.859   2.925   5.506
17759WAT      O53518   1.763   6.883   6.995
17759WAT     H153519   1.784   6.833   6.910
17759WAT     H253520   1.671   6.920   6.990
17760WAT      O53521   0.931   8.021   5.020
17760WAT     H153522   0.898   7.942   4.968
17760WAT     H253523   0.870   8.099   5.005
17761WAT      O53524   1.316   8.353   3.383
17761WAT     H153525   1.249   8.280   3.396
17761WAT     H253526   1.404   8.313   3.356
17762WAT      O53527   7.703   7.192   6.218
17762WAT     H153528   7.627   7.254   6.202
17762WAT     H253529   7.679   7.100   6.186
17763WAT      O53530   7.554   1.641   5.571
17763WAT     H153531   7.500   1.622   5.653
17763WAT     H253532   7.591   1.734   5.577
17764WAT      O53533   2.450   2.596   7.781
17764WAT     H153534   2.427   2.500   7.796
17764WAT     H253535   2.549   2.605   7.771
17765WAT      O53536   2.712   1.449   3.872
17765WAT     H153537   2.778   1.514   3.835
17765WAT     H253538   2.751   1.357   3.870
17766WAT      O53539   4.433   3.043   7.949
17766WAT     H153540   4.442   2.944   7.950
17766WAT     H253541   4.452   3.077   7.857
17767WAT      O53542   5.867   4.883   1.926
17767WAT     H153543   5.767   4.888   1.932
17767WAT     H253544   5.908   4.946   1.992
17768WAT      O53545   5.861   7.620   6.104
17768WAT     H153546   5.925   7.558   6.150
17768WAT     H253547   5.846   7.701   6.161
17769WAT      O53548   7.110   4.631   4.803
17769WAT     H153549   7.087   4.587   4.716
17769WAT     H253550   7.029   4.631   4.863
17770WAT      O53551   0.795   0.911   2.888
17770WAT     H153552   0.849   0.844   2.838
17770WAT     H253553   0.699   0.905   2.860
17771WAT      O53554   1.341   4.631   6.522
17771WAT     H153555   1.400   4.693   6.574
17771WAT     H253556   1.367   4.536   6.541
17772WAT      O53557   1.432   0.884   2.303
17772WAT     H153558   1.353   0.934   2.339
17772WAT     H253559   1.477   0.836   2.378
17773WAT      O53560   8.007   8.239   7.693
17773WAT     H153561   7.962   8.230   7.782
17773WAT     H253562   7.987   8.159   7.637
17774WAT      O53563   0.004   7.096   3.103
17774WAT     H153564  -0.054   7.056   3.174
17774WAT     H253565   0.078   7.147   3.146
17775WAT      O53566   5.052   6.541   4.144
17775WAT     H153567   5.103   6.527   4.229
17775WAT     H253568   4.968   6.487   4.146
17776WAT      O53569   1.447   6.557   6.612
17776WAT     H153570   1.431   6.631   6.546
17776WAT     H253571   1.384   6.567   6.689
17777WAT      O53572   3.943   6.214   2.740
17777WAT     H153573   3.901   6.304   2.747
17777WAT     H253574   4.029   6.213   2.792
17778WAT      O53575   8.925   0.117   6.341
17778WAT     H153576   8.996   0.153   6.401
17778WAT     H253577   8.840   0.168   6.354
17779WAT      O53578   3.519   2.676   5.510
17779WAT     H153579   3.508   2.774   5.493
17779WAT     H253580   3.439   2.642   5.559
17780WAT      O53581   9.687   6.011   7.954
17780WAT     H153582   9.741   5.971   7.880
17780WAT     H253583   9.663   5.940   8.020
17781WAT      O53584   1.470   2.620   7.384
17781WAT     H153585   1.418   2.538   7.359
17781WAT     H253586   1.468   2.632   7.483
17782WAT      O53587   6.002   0.643   8.632
17782WAT     H153588   6.005   0.741   8.613
17782WAT     H253589   6.084   0.599   8.596
17783WAT      O53590   7.276   2.382   3.035
17783WAT     H153591   7.295   2.286   3.016
17783WAT     H253592   7.256   2.392   3.132
17784WAT      O53593   4.118   6.986   5.694
17784WAT     H153594   4.196   7.038   5.661
17784WAT     H253595   4.075   7.034   5.770
17785WAT      O53596   4.409   8.877   5.231
17785WAT     H153597   4.429   8.840   5.322
17785WAT     H253598   4.312   8.865   5.210
17786WAT      O53599   0.633   4.042   6.139
17786WAT     H153600   0.715   3.985   6.129
17786WAT     H253601   0.655   4.124   6.192
17787WAT      O53602   4.101   7.664  -0.002
17787WAT     H153603   4.135   7.742   0.051
17787WAT     H253604   4.068   7.593   0.060
17788WAT      O53605   1.268   0.488   3.337
17788WAT     H153606   1.192   0.471   3.273
17788WAT     H253607   1.330   0.556   3.297
17789WAT      O53608   3.202   8.981   8.585
17789WAT     H153609   3.145   9.040   8.642
17789WAT     H253610   3.221   9.026   8.498
17790WAT      O53611   4.148   3.279   9.135
17790WAT     H153612   4.089   3.237   9.203
17790WAT     H253613   4.152   3.378   9.150
17791WAT      O53614   3.134   8.049   9.653
17791WAT     H153615   3.050   8.098   9.676
17791WAT     H253616   3.136   7.961   9.701
17792WAT      O53617   1.630   9.683   2.859
17792WAT     H153618   1.593   9.775   2.850
17792WAT     H253619   1.601   9.643   2.946
17793WAT      O53620   4.895   2.079   4.640
17793WAT     H153621   4.822   2.023   4.602
17793WAT     H253622   4.928   2.143   4.571
17794WAT      O53623   7.264   4.485   0.320
17794WAT     H153624   7.241   4.546   0.244
17794WAT     H253625   7.332   4.418   0.288
17795WAT      O53626   4.427   3.380   1.085
17795WAT     H153627   4.438   3.464   1.138
17795WAT     H253628   4.427   3.402   0.987
17796WAT      O53629   0.877   9.117   1.334
17796WAT     H153630   0.924   9.069   1.408
17796WAT     H253631   0.788   9.075   1.318
17797WAT      O53632   9.386   7.774   8.628
17797WAT     H153633   9.362   7.681   8.600
17797WAT     H253634   9.412   7.774   8.724
17798WAT      O53635   7.685   3.770   5.234
17798WAT     H153636   7.765   3.815   5.193
17798WAT     H253637   7.669   3.683   5.187
17799WAT      O53638   9.765   6.250   6.737
17799WAT     H153639   9.805   6.331   6.780
17799WAT     H253640   9.684   6.276   6.685
17800WAT      O53641   7.438   4.735   1.736
17800WAT     H153642   7.530   4.728   1.697
17800WAT     H253643   7.374   4.765   1.666
17801WAT      O53644   5.320   7.732   1.992
17801WAT     H153645   5.289   7.756   1.900
17801WAT     H253646   5.245   7.689   2.042
17802WAT      O53647   9.606   8.818   9.489
17802WAT     H153648   9.587   8.873   9.570
17802WAT     H253649   9.679   8.861   9.436
17803WAT      O53650   2.493   6.900   2.032
17803WAT     H153651   2.545   6.921   1.950
17803WAT     H253652   2.536   6.823   2.079
17804WAT      O53653   9.083   8.352   4.672
17804WAT     H153654   9.118   8.304   4.752
17804WAT     H253655   9.023   8.291   4.620
17805WAT      O53656   4.456   1.729   5.083
17805WAT     H153657   4.507   1.644   5.095
17805WAT     H253658   4.498   1.784   5.010
17806WAT      O53659   5.023   8.885   5.675
17806WAT     H153660   5.040   8.848   5.767
17806WAT     H253661   5.107   8.881   5.622
17807WAT      O53662   1.225   4.213   5.772
17807WAT     H153663   1.126   4.204   5.786
17807WAT     H253664   1.263   4.276   5.840
17808WAT      O53665   8.167   1.001   6.766
17808WAT     H153666   8.134   0.985   6.673
17808WAT     H253667   8.093   1.039   6.821
17809WAT      O53668   6.393   2.477   8.874
17809WAT     H153669   6.390   2.379   8.891
17809WAT     H253670   6.424   2.493   8.780
17810WAT      O53671   3.261   3.061   4.852
17810WAT     H153672   3.316   3.104   4.781
17810WAT     H253673   3.300   2.971   4.875
17811WAT      O53674   7.350   1.277   6.084
17811WAT     H153675   7.446   1.292   6.107
17811WAT     H253676   7.325   1.182   6.105
17812WAT      O53677   6.684   3.860   2.328
17812WAT     H153678   6.619   3.850   2.403
17812WAT     H253679   6.635   3.889   2.245
17813WAT      O53680   8.261   2.429   7.133
17813WAT     H153681   8.218   2.369   7.065
17813WAT     H253682   8.358   2.442   7.110
17814WAT      O53683   3.827   8.802   6.760
17814WAT     H153684   3.770   8.721   6.742
17814WAT     H253685   3.916   8.791   6.717
17815WAT      O53686   2.656   5.209   3.520
17815WAT     H153687   2.651   5.156   3.605
17815WAT     H253688   2.584   5.278   3.520
17816WAT      O53689   8.599   3.461   1.861
17816WAT     H153690   8.519   3.484   1.805
17816WAT     H253691   8.637   3.374   1.832
17817WAT      O53692   7.010   3.523   8.973
17817WAT     H153693   6.974   3.482   8.889
17817WAT     H253694   6.943   3.589   9.009
17818WAT      O53695   5.874   1.108   9.528
17818WAT     H153696   5.834   1.069   9.611
17818WAT     H253697   5.837   1.200   9.513
17819WAT      O53698   0.190   9.458   4.032
17819WAT     H153699   0.180   9.370   3.986
17819WAT     H253700   0.104   9.508   4.028
17820WAT      O53701   3.069   8.025   3.341
17820WAT     H153702   3.129   8.012   3.263
17820WAT     H253703   3.028   8.117   3.337
17821WAT      O53704   3.696   1.115   2.038
17821WAT     H153705   3.749   1.048   2.090
17821WAT     H253706   3.613   1.138   2.090
17822WAT      O53707   8.056   4.720   1.720
17822WAT     H153708   8.107   4.635   1.710
17822WAT     H253709   8.085   4.785   1.650
17823WAT      O53710   4.900   6.535   6.278
17823WAT     H153711   4.912   6.441   6.311
17823WAT     H253712   4.811   6.570   6.308
17824WAT      O53713   3.906   5.528   9.005
17824WAT     H153714   3.944   5.435   9.009
17824WAT     H253715   3.849   5.544   9.085
17825WAT      O53716   8.584   9.166   7.767
17825WAT     H153717   8.600   9.233   7.838
17825WAT     H253718   8.649   9.090   7.777
17826WAT      O53719   1.479   8.628   0.623
17826WAT     H153720   1.462   8.606   0.527
17826WAT     H253721   1.507   8.545   0.672
17827WAT      O53722   6.181   1.363   0.028
17827WAT     H153723   6.204   1.266   0.026
17827WAT     H253724   6.169   1.392   0.123
17828WAT      O53725   5.892   0.922   5.017
17828WAT     H153726   5.928   1.008   4.980
17828WAT     H253727   5.817   0.890   4.960
17829WAT      O53728   7.046   6.796   0.239
17829WAT     H153729   7.076   6.884   0.276
17829WAT     H253730   7.087   6.782   0.149
17830WAT      O53731   3.121   4.704   1.322
17830WAT     H153732   3.052   4.774   1.301
17830WAT     H253733   3.131   4.643   1.244
17831WAT      O53734   9.668   2.794   7.917
17831WAT     H153735   9.695   2.718   7.859
17831WAT     H253736   9.749   2.841   7.952
17832WAT      O53737   3.920   1.329   9.879
17832WAT     H153738   3.905   1.282   9.966
17832WAT     H253739   3.853   1.403   9.870
17833WAT      O53740   3.303   0.134   6.689
17833WAT     H153741   3.276   0.064   6.756
17833WAT     H253742   3.247   0.216   6.702
17834WAT      O53743   1.377   8.737   6.505
17834WAT     H153744   1.438   8.810   6.474
17834WAT     H253745   1.309   8.776   6.568
17835WAT      O53746   6.803   0.506   3.387
17835WAT     H153747   6.767   0.591   3.423
17835WAT     H253748   6.791   0.503   3.288
17836WAT      O53749   8.359   4.424   7.878
17836WAT     H153750   8.418   4.344   7.879
17836WAT     H253751   8.357   4.464   7.787
17837WAT      O53752   3.780   4.984   4.112
17837WAT     H153753   3.797   5.074   4.153
17837WAT     H253754   3.794   4.989   4.014
17838WAT      O53755   1.346   9.725   5.890
17838WAT     H153756   1.370   9.814   5.930
17838WAT     H253757   1.423   9.662   5.898
17839WAT      O53758   3.201   0.644   8.951
17839WAT     H153759   3.157   0.593   9.025
17839WAT     H253760   3.201   0.590   8.868
17840WAT      O53761   8.534   8.084   8.216
17840WAT     H153762   8.563   8.031   8.296
17840WAT     H253763   8.548   8.181   8.233
17841WAT      O53764   3.619   5.679   4.190
17841WAT     H153765   3.674   5.712   4.267
17841WAT     H253766   3.638   5.734   4.109
17842WAT      O53767   5.961   9.111   5.391
17842WAT     H153768   5.881   9.096   5.333
17842WAT     H253769   6.043   9.119   5.334
17843WAT      O53770   2.794   9.274   9.243
17843WAT     H153771   2.768   9.365   9.210
17843WAT     H253772   2.745   9.205   9.190
17844WAT      O53773   6.165   2.893   7.701
17844WAT     H153774   6.244   2.928   7.751
17844WAT     H253775   6.195   2.858   7.612
17845WAT      O53776   1.687   0.545   7.981
17845WAT     H153777   1.688   0.494   7.895
17845WAT     H253778   1.655   0.486   8.055
17846WAT      O53779   2.447   3.778   3.952
17846WAT     H153780   2.376   3.718   3.916
17846WAT     H253781   2.438   3.786   4.051
17847WAT      O53782   7.040   8.241   6.266
17847WAT     H153783   7.057   8.330   6.308
17847WAT     H253784   6.988   8.253   6.181
17848WAT      O53785   9.739   2.082   1.014
17848WAT     H153786   9.768   2.033   0.932
17848WAT     H253787   9.798   2.162   1.027
17849WAT      O53788   4.528   1.809   9.131
17849WAT     H153789   4.469   1.881   9.097
17849WAT     H253790   4.482   1.762   9.207
17850WAT      O53791   1.173   6.527   8.327
17850WAT     H153792   1.075   6.543   8.341
17850WAT     H253793   1.189   6.501   8.232
17851WAT      O53794   8.328   3.710   5.265
17851WAT     H153795   8.258   3.674   5.327
17851WAT     H253796   8.387   3.773   5.315
17852WAT      O53797   2.866   1.831   7.050
17852WAT     H153798   2.930   1.830   6.974
17852WAT     H253799   2.915   1.847   7.136
17853WAT      O53800   0.641   6.209   3.648
17853WAT     H153801   0.557   6.158   3.633
17853WAT     H253802   0.683   6.181   3.734
17854WAT      O53803   7.437   8.566   9.606
17854WAT     H153804   7.535   8.584   9.613
17854WAT     H253805   7.421   8.500   9.532
17855WAT      O53806   6.449   3.824   4.224
17855WAT     H153807   6.452   3.923   4.209
17855WAT     H253808   6.354   3.792   4.220
17856WAT      O53809   9.274   3.678   8.311
17856WAT     H153810   9.213   3.643   8.240
17856WAT     H253811   9.265   3.622   8.394
17857WAT      O53812   4.317   4.319   9.643
17857WAT     H153813   4.413   4.292   9.638
17857WAT     H253814   4.305   4.390   9.713
17858WAT      O53815   1.777   8.332   8.300
17858WAT     H153816   1.870   8.324   8.337
17858WAT     H253817   1.781   8.332   8.200
17859WAT      O53818   3.178   4.256   8.130
17859WAT     H153819   3.146   4.168   8.095
17859WAT     H253820   3.167   4.325   8.059
17860WAT      O53821   2.962   4.871   7.175
17860WAT     H153822   2.985   4.952   7.122
17860WAT     H253823   2.895   4.895   7.245
17861WAT      O53824   1.917   1.730   7.478
17861WAT     H153825   1.857   1.808   7.494
17861WAT     H253826   1.949   1.695   7.566
17862WAT      O53827   4.164   5.950   3.727
17862WAT     H153828   4.151   5.920   3.821
17862WAT     H253829   4.151   5.873   3.665
17863WAT      O53830   5.603   1.404   0.188
17863WAT     H153831   5.678   1.339   0.199
17863WAT     H253832   5.539   1.368   0.119
17864WAT      O53833   9.806   6.631   6.530
17864WAT     H153834   9.771   6.633   6.623
17864WAT     H253835   9.846   6.720   6.507
17865WAT      O53836   6.594   2.122   5.821
17865WAT     H153837   6.656   2.154   5.749
17865WAT     H253838   6.646   2.070   5.889
17866WAT      O53839   8.630   4.790   9.809
17866WAT     H153840   8.561   4.835   9.752
17866WAT     H253841   8.602   4.794   9.904
17867WAT      O53842   2.884   1.546   4.216
17867WAT     H153843   2.828   1.609   4.162
17867WAT     H253844   2.837   1.459   4.227
17868WAT      O53845   7.479   8.978   1.712
17868WAT     H153846   7.398   9.027   1.680
17868WAT     H253847   7.532   8.947   1.633
17869WAT      O53848   9.659   1.013   6.453
17869WAT     H153849   9.643   1.107   6.484
17869WAT     H253850   9.726   1.013   6.379
17870WAT      O53851   4.330   1.337   0.520
17870WAT     H153852   4.313   1.337   0.421
17870WAT     H253853   4.398   1.407   0.541
17871WAT      O53854   7.392   7.599   0.637
17871WAT     H153855   7.339   7.516   0.649
17871WAT     H253856   7.456   7.609   0.713
17872WAT      O53857   1.360   9.659   2.670
17872WAT     H153858   1.311   9.737   2.708
17872WAT     H253859   1.321   9.635   2.581
17873WAT      O53860   0.341   4.251   4.005
17873WAT     H153861   0.284   4.217   4.080
17873WAT     H253862   0.431   4.276   4.040
17874WAT      O53863   3.140   3.139   8.977
17874WAT     H153864   3.205   3.206   8.940
17874WAT     H253865   3.048   3.179   8.979
17875WAT      O53866   4.551   5.047   1.525
17875WAT     H153867   4.612   5.063   1.603
17875WAT     H253868   4.479   4.983   1.552
17876WAT      O53869   0.983   2.692   3.857
17876WAT     H153870   1.014   2.772   3.908
17876WAT     H253871   0.888   2.705   3.828
17877WAT      O53872   3.531   3.235   6.877
17877WAT     H153873   3.537   3.135   6.875
17877WAT     H253874   3.624   3.273   6.885
17878WAT      O53875   4.315   6.215   6.115
17878WAT     H153876   4.335   6.207   6.017
17878WAT     H253877   4.255   6.140   6.142
17879WAT      O53878   3.607   9.218   1.328
17879WAT     H153879   3.679   9.171   1.379
17879WAT     H253880   3.554   9.151   1.277
17880WAT      O53881   1.630   8.889   5.842
17880WAT     H153882   1.687   8.939   5.908
17880WAT     H253883   1.687   8.844   5.774
17881WAT      O53884   9.077   3.131   1.853
17881WAT     H153885   9.037   3.223   1.856
17881WAT     H253886   9.043   3.077   1.930
17882WAT      O53887   6.354   0.893   8.622
17882WAT     H153888   6.406   0.961   8.570
17882WAT     H253889   6.371   0.905   8.720
17883WAT      O53890   2.589   4.799   2.077
17883WAT     H153891   2.688   4.792   2.068
17883WAT     H253892   2.560   4.894   2.063
17884WAT      O53893   8.808   9.200   8.752
17884WAT     H153894   8.845   9.262   8.683
17884WAT     H253895   8.871   9.194   8.829
17885WAT      O53896   8.319   4.637   8.044
17885WAT     H153897   8.220   4.654   8.038
17885WAT     H253898   8.343   4.562   7.983
17886WAT      O53899   2.332   0.732   9.124
17886WAT     H153900   2.237   0.709   9.108
17886WAT     H253901   2.352   0.724   9.222
17887WAT      O53902   4.859   2.673   5.364
17887WAT     H153903   4.911   2.649   5.283
17887WAT     H253904   4.778   2.726   5.337
17888WAT      O53905   4.766   8.319   5.892
17888WAT     H153906   4.770   8.404   5.840
17888WAT     H253907   4.677   8.313   5.938
17889WAT      O53908   5.920   7.141   5.594
17889WAT     H153909   5.935   7.139   5.496
17889WAT     H253910   5.900   7.049   5.628
17890WAT      O53911   0.652   4.811   3.207
17890WAT     H153912   0.644   4.851   3.298
17890WAT     H253913   0.690   4.719   3.214
17891WAT      O53914   1.626   6.610   0.219
17891WAT     H153915   1.574   6.619   0.304
17891WAT     H253916   1.588   6.536   0.164
17892WAT      O53917   7.522   3.769   7.483
17892WAT     H153918   7.516   3.771   7.383
17892WAT     H253919   7.606   3.722   7.510
17893WAT      O53920   5.355   4.542   0.429
17893WAT     H153921   5.373   4.582   0.339
17893WAT     H253922   5.409   4.590   0.498
17894WAT      O53923   6.370   3.804   6.369
17894WAT     H153924   6.402   3.711   6.383
17894WAT     H253925   6.444   3.868   6.392
17895WAT      O53926   8.571   7.284   2.863
17895WAT     H153927   8.573   7.333   2.776
17895WAT     H253928   8.663   7.249   2.882
17896WAT      O53929   6.381   0.416   4.351
17896WAT     H153930   6.369   0.476   4.430
17896WAT     H253931   6.478   0.395   4.339
17897WAT      O53932   0.824   2.999   1.933
17897WAT     H153933   0.880   3.063   1.881
17897WAT     H253934   0.785   3.045   2.013
17898WAT      O53935   9.451   6.026   9.745
17898WAT     H153936   9.523   5.959   9.762
17898WAT     H253937   9.363   5.979   9.737
17899WAT      O53938   1.664   8.232   4.723
17899WAT     H153939   1.639   8.136   4.728
17899WAT     H253940   1.581   8.287   4.714
17900WAT      O53941   7.770   2.686   8.383
17900WAT     H153942   7.778   2.779   8.347
17900WAT     H253943   7.679   2.674   8.423
17901WAT      O53944   5.651   2.780   4.175
17901WAT     H153945   5.688   2.837   4.249
17901WAT     H253946   5.638   2.686   4.209
17902WAT      O53947   6.714   9.254   9.852
17902WAT     H153948   6.701   9.345   9.812
17902WAT     H253949   6.696   9.258   9.950
17903WAT      O53950   1.436   5.513   0.263
17903WAT     H153951   1.356   5.498   0.205
17903WAT     H253952   1.445   5.437   0.327
17904WAT      O53953   8.539   3.874   9.140
17904WAT     H153954   8.596   3.900   9.218
17904WAT     H253955   8.594   3.879   9.056
17905WAT      O53956   4.245   7.785   4.365
17905WAT     H153957   4.154   7.761   4.398
17905WAT     H253958   4.271   7.722   4.291
17906WAT      O53959   5.756   1.989   0.160
17906WAT     H153960   5.692   2.046   0.107
17906WAT     H253961   5.747   1.894   0.132
17907WAT      O53962   7.029   9.840   4.489
17907WAT     H153963   6.995   9.800   4.574
17907WAT     H253964   7.011   9.938   4.489
17908WAT      O53965   0.021   3.316   1.022
17908WAT     H153966   0.097   3.281   1.077
17908WAT     H253967  -0.060   3.325   1.079
17909WAT      O53968   0.957   1.708   9.613
17909WAT     H153969   1.052   1.697   9.643
17909WAT     H253970   0.911   1.619   9.616
17910WAT      O53971   1.665   5.664   6.744
17910WAT     H153972   1.602   5.690   6.671
17910WAT     H253973   1.739   5.607   6.706
17911WAT      O53974   6.024   8.236   5.247
17911WAT     H153975   6.113   8.197   5.223
17911WAT     H253976   5.985   8.184   5.324
17912WAT      O53977   9.113   5.949   0.152
17912WAT     H153978   9.127   6.048   0.152
17912WAT     H253979   9.024   5.928   0.110
17913WAT      O53980   0.149   4.146   4.170
17913WAT     H153981   0.167   4.068   4.111
17913WAT     H253982   0.187   4.130   4.261
17914WAT      O53983   6.530   0.700   7.623
17914WAT     H153984   6.510   0.780   7.680
17914WAT     H253985   6.579   0.728   7.540
17915WAT      O53986   5.066   8.835   2.898
17915WAT     H153987   5.155   8.876   2.918
17915WAT     H253988   5.054   8.754   2.955
17916WAT      O53989   4.333   1.705   9.305
17916WAT     H153990   4.405   1.649   9.346
17916WAT     H253991   4.246   1.686   9.351
17917WAT      O53992   3.386   6.872   3.141
17917WAT     H153993   3.365   6.838   3.049
17917WAT     H253994   3.485   6.870   3.156
17918WAT      O53995   2.555   8.210   2.106
17918WAT     H153996   2.600   8.289   2.065
17918WAT     H253997   2.609   8.128   2.090
17919WAT      O53998   5.105   5.146   7.495
17919WAT     H153999   5.013   5.159   7.534
17919WAT     H254000   5.157   5.230   7.506
17920WAT      O54001   8.916   0.235   7.276
17920WAT     H154002   8.983   0.237   7.350
17920WAT     H254003   8.910   0.143   7.239
17921WAT      O54004   3.331   2.511   3.790
17921WAT     H154005   3.354   2.591   3.735
17921WAT     H254006   3.411   2.451   3.798
17922WAT      O54007   3.573   6.248   6.334
17922WAT     H154008   3.566   6.270   6.237
17922WAT     H254009   3.669   6.253   6.363
17923WAT      O54010   0.482   7.292   5.892
17923WAT     H154011   0.465   7.379   5.938
17923WAT     H254012   0.567   7.298   5.839
17924WAT      O54013   4.931   7.203   4.334
17924WAT     H154014   4.968   7.208   4.427
17924WAT     H254015   4.958   7.116   4.292
17925WAT      O54016   2.444   3.413   1.945
17925WAT     H154017   2.524   3.374   1.901
17925WAT     H254018   2.445   3.391   2.043
17926WAT      O54019   4.710   2.953   6.311
17926WAT     H154020   4.744   2.984   6.400
17926WAT     H254021   4.663   3.028   6.265
17927WAT      O54022   3.890   3.702   7.625
17927WAT     H154023   3.899   3.790   7.579
17927WAT     H254024   3.969   3.645   7.602
17928WAT      O54025   9.090   2.465   2.873
17928WAT     H154026   9.145   2.539   2.835
17928WAT     H254027   9.135   2.430   2.956
17929WAT      O54028   3.239   7.976   8.780
17929WAT     H154029   3.284   7.890   8.754
17929WAT     H254030   3.236   7.982   8.880
17930WAT      O54031   0.518   6.294   7.171
17930WAT     H154032   0.552   6.335   7.086
17930WAT     H254033   0.594   6.283   7.235
17931WAT      O54034   9.793   8.889   0.113
17931WAT     H154035   9.815   8.956   0.184
17931WAT     H254036   9.777   8.800   0.156
17932WAT      O54037   5.637   1.888   8.247
17932WAT     H154038   5.605   1.801   8.285
17932WAT     H254039   5.559   1.936   8.206
17933WAT      O54040   7.510   8.101   1.266
17933WAT     H154041   7.449   8.153   1.206
17933WAT     H254042   7.455   8.044   1.328
17934WAT      O54043   5.540   7.086   8.881
17934WAT     H154044   5.488   7.151   8.825
17934WAT     H254045   5.620   7.054   8.831
17935WAT      O54046   0.468   6.271   4.572
17935WAT     H154047   0.396   6.230   4.516
17935WAT     H254048   0.464   6.371   4.563
17936WAT      O54049   8.666   5.812   0.316
17936WAT     H154050   8.679   5.740   0.384
17936WAT     H254051   8.570   5.814   0.288
17937WAT      O54052   9.264   3.211   0.621
17937WAT     H154053   9.356   3.190   0.655
17937WAT     H254054   9.268   3.227   0.522
17938WAT      O54055   1.059   1.129   7.495
17938WAT     H154056   1.069   1.031   7.511
17938WAT     H254057   1.075   1.149   7.399
17939WAT      O54058   7.155   2.085   9.237
17939WAT     H154059   7.092   2.029   9.290
17939WAT     H254060   7.236   2.031   9.215
17940WAT      O54061   6.025   6.260   6.393
17940WAT     H154062   6.080   6.263   6.476
17940WAT     H254063   6.085   6.247   6.313
17941WAT      O54064   4.808   1.331   6.668
17941WAT     H154065   4.800   1.412   6.611
17941WAT     H254066   4.805   1.249   6.611
17942WAT      O54067   3.367   4.192   2.598
17942WAT     H154068   3.347   4.284   2.564
17942WAT     H254069   3.292   4.131   2.573
17943WAT      O54070   3.886   6.960   2.894
17943WAT     H154071   3.823   6.882   2.903
17943WAT     H254072   3.834   7.044   2.879
17944WAT      O54073   9.438   6.575   6.033
17944WAT     H154074   9.393   6.588   5.945
17944WAT     H254075   9.532   6.611   6.028
17945WAT      O54076   0.770   1.939   0.641
17945WAT     H154077   0.788   1.985   0.727
17945WAT     H254078   0.704   1.866   0.655
17946WAT      O54079   8.602   9.237   2.478
17946WAT     H154080   8.618   9.147   2.519
17946WAT     H254081   8.603   9.307   2.549
17947WAT      O54082   6.838   7.670   3.141
17947WAT     H154083   6.795   7.760   3.145
17947WAT     H254084   6.937   7.680   3.149
17948WAT      O54085   8.301   9.052   8.647
17948WAT     H154086   8.330   9.011   8.733
17948WAT     H254087   8.240   8.989   8.599
17949WAT      O54088   0.998   0.668   5.021
17949WAT     H154089   0.990   0.688   5.119
17949WAT     H254090   0.946   0.737   4.970
17950WAT      O54091   6.413   8.142   8.978
17950WAT     H154092   6.462   8.144   8.890
17950WAT     H254093   6.369   8.053   8.988
17951WAT      O54094   2.932   4.230   9.115
17951WAT     H154095   2.869   4.154   9.129
17951WAT     H254096   3.006   4.225   9.182
17952WAT      O54097   5.409   2.090   0.101
17952WAT     H154098   5.389   2.179   0.060
17952WAT     H254099   5.467   2.103   0.182
17953WAT      O54100   2.537   2.199   8.433
17953WAT     H154101   2.571   2.242   8.349
17953WAT     H254102   2.470   2.128   8.409
17954WAT      O54103   5.710   5.517   2.093
17954WAT     H154104   5.800   5.512   2.137
17954WAT     H254105   5.641   5.474   2.151
17955WAT      O54106   4.145   1.516   3.168
17955WAT     H154107   4.230   1.504   3.219
17955WAT     H254108   4.118   1.429   3.127
17956WAT      O54109   5.418   9.300   4.335
17956WAT     H154110   5.446   9.304   4.431
17956WAT     H254111   5.500   9.294   4.278
17957WAT      O54112   2.310   2.395   1.176
17957WAT     H154113   2.236   2.384   1.109
17957WAT     H254114   2.398   2.398   1.128
17958WAT      O54115   8.496   4.245   3.936
17958WAT     H154116   8.495   4.283   3.844
17958WAT     H254117   8.564   4.293   3.991
17959WAT      O54118   2.355   0.583   2.189
17959WAT     H154119   2.421   0.535   2.246
17959WAT     H254120   2.349   0.539   2.099
17960WAT      O54121   5.327   0.332   3.073
17960WAT     H154122   5.387   0.328   3.153
17960WAT     H254123   5.367   0.281   2.998
17961WAT      O54124   7.255   5.223   4.211
17961WAT     H154125   7.180   5.166   4.246
17961WAT     H254126   7.230   5.258   4.120
17962WAT      O54127   2.604   8.357   8.251
17962WAT     H154128   2.690   8.403   8.274
17962WAT     H254129   2.551   8.415   8.189
17963WAT      O54130   1.301   6.698   0.997
17963WAT     H154131   1.323   6.601   1.010
17963WAT     H254132   1.202   6.710   0.995
17964WAT      O54133   2.730   2.458   0.060
17964WAT     H154134   2.812   2.499   0.022
17964WAT     H254135   2.732   2.466   0.160
17965WAT      O54136   6.753   2.113   9.429
17965WAT     H154137   6.782   2.208   9.437
17965WAT     H254138   6.671   2.108   9.371
17966WAT      O54139   0.944   7.797   5.432
17966WAT     H154140   0.872   7.747   5.384
17966WAT     H254141   1.026   7.741   5.436
17967WAT      O54142   9.624   6.664   8.392
17967WAT     H154143   9.526   6.670   8.372
17967WAT     H254144   9.657   6.571   8.371
17968WAT      O54145   4.446   2.345   1.545
17968WAT     H154146   4.368   2.370   1.487
17968WAT     H254147   4.505   2.425   1.558
17969WAT      O54148   7.562   3.694   5.482
17969WAT     H154149   7.584   3.736   5.394
17969WAT     H254150   7.500   3.754   5.533
17970WAT      O54151   7.619   5.020   0.581
17970WAT     H154152   7.682   4.947   0.553
17970WAT     H254153   7.582   4.999   0.671
17971WAT      O54154   7.557   3.913   9.174
17971WAT     H154155   7.545   3.816   9.191
17971WAT     H254156   7.652   3.939   9.190
17972WAT      O54157   0.347   3.558   2.421
17972WAT     H154158   0.264   3.503   2.410
17972WAT     H254159   0.370   3.564   2.518
17973WAT      O54160   7.000   6.222   5.897
17973WAT     H154161   6.988   6.293   5.828
17973WAT     H254162   7.001   6.132   5.854
17974WAT      O54163   7.988   2.332   0.016
17974WAT     H154164   7.978   2.367   0.109
17974WAT     H254165   7.900   2.300  -0.018
17975WAT      O54166   7.006   3.502   7.975
17975WAT     H154167   7.062   3.456   7.906
17975WAT     H254168   7.051   3.587   8.003
17976WAT      O54169   0.947   2.154   5.556
17976WAT     H154170   0.963   2.240   5.604
17976WAT     H254171   0.990   2.157   5.466
17977WAT      O54172   2.699   2.734   6.811
17977WAT     H154173   2.663   2.774   6.727
17977WAT     H254174   2.721   2.638   6.796
17978WAT      O54175   6.117   7.385   7.845
17978WAT     H154176   6.070   7.313   7.895
17978WAT     H254177   6.216   7.380   7.862
17979WAT      O54178   0.667   5.790   6.059
17979WAT     H154179   0.652   5.714   5.996
17979WAT     H254180   0.678   5.875   6.007
17980WAT      O54181   7.382   1.602   6.638
17980WAT     H154182   7.454   1.548   6.595
17980WAT     H254183   7.358   1.679   6.579
17981WAT      O54184   7.394   4.105   1.969
17981WAT     H154185   7.415   4.202   1.955
17981WAT     H254186   7.462   4.065   2.031
17982WAT      O54187   3.753   0.706   8.131
17982WAT     H154188   3.790   0.782   8.183
17982WAT     H254189   3.657   0.692   8.156
17983WAT      O54190   8.110   8.812   8.070
17983WAT     H154191   8.139   8.885   8.131
17983WAT     H254192   8.122   8.724   8.115
17984WAT      O54193   3.325   6.843   0.984
17984WAT     H154194   3.397   6.877   0.924
17984WAT     H254195   3.251   6.910   0.989
17985WAT      O54196   0.049   7.812   7.027
17985WAT     H154197   0.092   7.871   7.095
17985WAT     H254198   0.105   7.730   7.013
17986WAT      O54199   1.928   2.958   2.709
17986WAT     H154200   1.869   3.024   2.661
17986WAT     H254201   1.982   3.006   2.778
17987WAT      O54202   0.642   1.408   2.612
17987WAT     H154203   0.730   1.392   2.567
17987WAT     H254204   0.568   1.377   2.553
17988WAT      O54205   2.233   2.151   0.860
17988WAT     H154206   2.211   2.067   0.810
17988WAT     H254207   2.331   2.165   0.858
17989WAT      O54208   5.714   5.868   1.251
17989WAT     H154209   5.647   5.931   1.212
17989WAT     H254210   5.737   5.798   1.184
17990WAT      O54211   4.122   4.284   2.848
17990WAT     H154212   4.201   4.272   2.909
17990WAT     H254213   4.145   4.249   2.757
17991WAT      O54214   4.467   2.044   7.311
17991WAT     H154215   4.559   2.078   7.331
17991WAT     H254216   4.427   2.097   7.237
17992WAT      O54217   7.153   0.884   7.991
17992WAT     H154218   7.224   0.940   8.034
17992WAT     H254219   7.093   0.943   7.936
17993WAT      O54220   4.548   9.684   5.872
17993WAT     H154221   4.626   9.686   5.935
17993WAT     H254222   4.484   9.612   5.900
17994WAT      O54223   8.890   9.316   2.171
17994WAT     H154224   8.805   9.351   2.131
17994WAT     H254225   8.915   9.371   2.251
17995WAT      O54226   2.251   1.322   5.902
17995WAT     H154227   2.294   1.261   5.834
17995WAT     H254228   2.310   1.401   5.917
17996WAT      O54229   4.272   0.801   2.284
17996WAT     H154230   4.364   0.836   2.298
17996WAT     H254231   4.212   0.875   2.252
17997WAT      O54232   0.651   2.484   6.146
17997WAT     H154233   0.575   2.520   6.091
17997WAT     H254234   0.688   2.403   6.102
17998WAT      O54235   5.374   8.415   6.713
17998WAT     H154236   5.417   8.361   6.785
17998WAT     H254237   5.335   8.498   6.753
17999WAT      O54238   2.749   6.377   9.711
17999WAT     H154239   2.737   6.338   9.620
17999WAT     H254240   2.660   6.394   9.753
18000WAT      O54241   7.829   2.996   2.603
18000WAT     H154242   7.926   2.994   2.626
18000WAT     H254243   7.779   2.934   2.665
18001WAT      O54244   4.758   1.971   9.172
18001WAT     H154245   4.668   1.941   9.142
18001WAT     H254246   4.797   2.032   9.103
18002WAT      O54247   4.502   6.437   4.708
18002WAT     H154248   4.552   6.353   4.729
18002WAT     H254249   4.460   6.473   4.792
18003WAT      O54250   5.607   5.625   1.368
18003WAT     H154251   5.593   5.722   1.352
18003WAT     H254252   5.625   5.609   1.465
18004WAT      O54253   3.102   3.967   4.558
18004WAT     H154254   3.201   3.961   4.545
18004WAT     H254255   3.074   3.909   4.634
18005WAT      O54256   8.145   8.802   3.057
18005WAT     H154257   8.169   8.861   3.134
18005WAT     H254258   8.068   8.744   3.083
18006WAT      O54259   8.397   5.015   6.663
18006WAT     H154260   8.405   4.956   6.743
18006WAT     H254261   8.486   5.058   6.644
18007WAT      O54262   8.747   2.626   7.000
18007WAT     H154263   8.792   2.715   6.994
18007WAT     H254264   8.714   2.612   7.093
18008WAT      O54265   6.946   1.721   1.005
18008WAT     H154266   6.927   1.814   1.035
18008WAT     H254267   6.860   1.670   0.999
18009WAT      O54268   5.043   6.440   8.054
18009WAT     H154269   5.131   6.473   8.019
18009WAT     H254270   4.977   6.515   8.052
18010WAT      O54271   7.444   4.895   8.841
18010WAT     H154272   7.515   4.879   8.773
18010WAT     H254273   7.464   4.840   8.923
18011WAT      O54274   8.232   7.923   8.860
18011WAT     H154275   8.319   7.912   8.813
18011WAT     H254276   8.200   8.017   8.850
18012WAT      O54277   1.589   1.064   6.816
18012WAT     H154278   1.581   1.022   6.725
18012WAT     H254279   1.586   1.163   6.808
18013WAT      O54280   3.437   0.613   1.067
18013WAT     H154281   3.518   0.555   1.071
18013WAT     H254282   3.448   0.691   1.128
18014WAT      O54283   6.037   9.743   5.682
18014WAT     H154284   6.062   9.671   5.747
18014WAT     H254285   6.109   9.812   5.679
18015WAT      O54286   3.130   8.512   6.892
18015WAT     H154287   3.110   8.500   6.795
18015WAT     H254288   3.229   8.503   6.907
18016WAT      O54289   1.526   5.439   6.883
18016WAT     H154290   1.562   5.523   6.842
18016WAT     H254291   1.531   5.445   6.982
18017WAT      O54292   7.359   5.227   8.388
18017WAT     H154293   7.338   5.296   8.318
18017WAT     H254294   7.318   5.255   8.475
18018WAT      O54295   3.848   7.809   2.704
18018WAT     H154296   3.800   7.728   2.672
18018WAT     H254297   3.920   7.834   2.639
18019WAT      O54298   6.241   2.965   2.457
18019WAT     H154299   6.220   2.968   2.555
18019WAT     H254300   6.245   3.058   2.421
18020WAT      O54301   0.693   8.764   8.573
18020WAT     H154302   0.674   8.743   8.669
18020WAT     H254303   0.611   8.747   8.519
18021WAT      O54304   6.110   4.938   7.811
18021WAT     H154305   6.014   4.953   7.789
18021WAT     H254306   6.129   4.973   7.903
18022WAT      O54307   6.326   0.150   4.984
18022WAT     H154308   6.283   0.240   4.981
18022WAT     H254309   6.408   0.154   5.042
18023WAT      O54310   5.743   7.488   8.595
18023WAT     H154311   5.739   7.477   8.496
18023WAT     H254312   5.806   7.562   8.618
18024WAT      O54313   3.473   7.341   5.694
18024WAT     H154314   3.527   7.352   5.610
18024WAT     H254315   3.529   7.298   5.764
18025WAT      O54316   3.538   6.292   9.814
18025WAT     H154317   3.502   6.375   9.773
18025WAT     H254318   3.470   6.253   9.876
18026WAT      O54319   2.852   4.045   1.772
18026WAT     H154320   2.844   3.958   1.724
18026WAT     H254321   2.762   4.077   1.801
18027WAT      O54322   2.740   3.776   2.585
18027WAT     H154323   2.766   3.825   2.668
18027WAT     H254324   2.819   3.769   2.524
18028WAT      O54325   6.540   3.086   3.638
18028WAT     H154326   6.603   3.117   3.710
18028WAT     H254327   6.460   3.145   3.636
18029WAT      O54328   0.134   9.481   7.275
18029WAT     H154329   0.178   9.400   7.314
18029WAT     H254330   0.177   9.503   7.187
18030WAT      O54331   7.033   8.769   5.306
18030WAT     H154332   7.020   8.717   5.390
18030WAT     H254333   7.025   8.867   5.326
18031WAT      O54334   2.246   2.469   7.262
18031WAT     H154335   2.224   2.565   7.280
18031WAT     H254336   2.162   2.416   7.255
18032WAT      O54337   1.427   8.620   8.435
18032WAT     H154338   1.402   8.598   8.529
18032WAT     H254339   1.481   8.703   8.433
18033WAT      O54340   3.685   2.200   2.044
18033WAT     H154341   3.665   2.141   2.123
18033WAT     H254342   3.600   2.221   1.996
18034WAT      O54343   8.873   8.810   8.933
18034WAT     H154344   8.801   8.800   9.001
18034WAT     H254345   8.901   8.720   8.899
18035WAT      O54346   1.333   3.708   7.086
18035WAT     H154347   1.259   3.764   7.049
18035WAT     H254348   1.401   3.692   7.015
18036WAT      O54349   5.182   0.697   4.378
18036WAT     H154350   5.175   0.598   4.370
18036WAT     H254351   5.247   0.720   4.450
18037WAT      O54352   5.972   7.204   5.877
18037WAT     H154353   5.958   7.202   5.778
18037WAT     H254354   6.070   7.203   5.897
18038WAT      O54355   0.254   6.969   7.544
18038WAT     H154356   0.211   6.976   7.454
18038WAT     H254357   0.214   7.038   7.605
18039WAT      O54358   6.049   7.205   4.289
18039WAT     H154359   5.987   7.129   4.311
18039WAT     H254360   6.082   7.247   4.373
18040WAT      O54361   5.213   9.114   3.777
18040WAT     H154362   5.278   9.071   3.841
18040WAT     H254363   5.121   9.110   3.816
18041WAT      O54364   9.090   0.794   3.286
18041WAT     H154365   9.101   0.724   3.215
18041WAT     H254366   9.013   0.770   3.345
18042WAT      O54367   6.199   4.051   1.181
18042WAT     H154368   6.197   3.969   1.238
18042WAT     H254369   6.221   4.131   1.238
18043WAT      O54370   3.521   7.322   7.680
18043WAT     H154371   3.504   7.233   7.637
18043WAT     H254372   3.620   7.338   7.684
18044WAT      O54373   8.574   5.645   6.203
18044WAT     H154374   8.504   5.674   6.138
18044WAT     H254375   8.652   5.706   6.198
18045WAT      O54376   1.357   3.711   7.665
18045WAT     H154377   1.414   3.642   7.709
18045WAT     H254378   1.300   3.668   7.595
18046WAT      O54379   3.798   8.653   7.978
18046WAT     H154380   3.715   8.608   7.945
18046WAT     H254381   3.874   8.633   7.917
18047WAT      O54382   1.590   6.909   6.413
18047WAT     H154383   1.559   6.983   6.473
18047WAT     H254384   1.529   6.830   6.424
18048WAT      O54385   2.137   7.101   8.158
18048WAT     H154386   2.138   7.182   8.099
18048WAT     H254387   2.230   7.066   8.168
18049WAT      O54388   0.385   0.987   5.190
18049WAT     H154389   0.328   1.044   5.130
18049WAT     H254390   0.392   0.895   5.153
18050WAT      O54391   3.824   9.828   6.828
18050WAT     H154392   3.816   9.736   6.790
18050WAT     H254393   3.900   9.876   6.785
18051WAT      O54394   6.523   4.405   0.974
18051WAT     H154395   6.591   4.390   0.902
18051WAT     H254396   6.434   4.374   0.942
18052WAT      O54397   8.310   5.545   1.976
18052WAT     H154398   8.217   5.576   1.997
18052WAT     H254399   8.371   5.572   2.050
18053WAT      O54400   0.393   4.868   4.564
18053WAT     H154401   0.304   4.868   4.520
18053WAT     H254402   0.465   4.877   4.495
18054WAT      O54403   3.998   6.522   5.796
18054WAT     H154404   4.028   6.595   5.736
18054WAT     H254405   3.909   6.488   5.766
18055WAT      O54406   3.423   5.769   2.100
18055WAT     H154407   3.356   5.816   2.042
18055WAT     H254408   3.503   5.743   2.045
18056WAT      O54409   7.350   2.326   1.736
18056WAT     H154410   7.298   2.382   1.799
18056WAT     H254411   7.303   2.239   1.722
18057WAT      O54412   0.807   2.419   8.626
18057WAT     H154413   0.779   2.441   8.532
18057WAT     H254414   0.883   2.478   8.653
18058WAT      O54415   3.768   4.484   2.787
18058WAT     H154416   3.750   4.387   2.776
18058WAT     H254417   3.807   4.501   2.877
18059WAT      O54418   3.325   4.013   7.477
18059WAT     H154419   3.293   4.108   7.471
18059WAT     H254420   3.416   4.006   7.435
18060WAT      O54421   0.568   8.337   8.507
18060WAT     H154422   0.605   8.246   8.489
18060WAT     H254423   0.574   8.393   8.425
18061WAT      O54424   9.518   3.625   6.370
18061WAT     H154425   9.579   3.558   6.327
18061WAT     H254426   9.423   3.604   6.346
18062WAT      O54427   5.135   8.215   3.264
18062WAT     H154428   5.207   8.268   3.309
18062WAT     H254429   5.063   8.193   3.329
18063WAT      O54430   1.513   3.999   3.291
18063WAT     H154431   1.486   3.969   3.382
18063WAT     H254432   1.612   3.985   3.279
18064WAT      O54433   5.192   7.875   0.098
18064WAT     H154434   5.250   7.834   0.028
18064WAT     H254435   5.248   7.897   0.178
18065WAT      O54436   1.736   3.427   8.445
18065WAT     H154437   1.746   3.467   8.354
18065WAT     H254438   1.641   3.397   8.458
18066WAT      O54439   3.179   0.273   3.249
18066WAT     H154440   3.248   0.341   3.226
18066WAT     H254441   3.210   0.182   3.221
18067WAT      O54442   7.636   9.263   7.615
18067WAT     H154443   7.568   9.311   7.670
18067WAT     H254444   7.724   9.265   7.662
18068WAT      O54445   8.831   9.180   6.329
18068WAT     H154446   8.842   9.086   6.362
18068WAT     H254447   8.780   9.179   6.243
18069WAT      O54448   4.438   0.424   6.062
18069WAT     H154449   4.368   0.489   6.033
18069WAT     H254450   4.440   0.346   5.999
18070WAT      O54451   6.391   3.293   6.319
18070WAT     H154452   6.357   3.318   6.228
18070WAT     H254453   6.466   3.227   6.309
18071WAT      O54454   9.601   1.627   7.397
18071WAT     H154455   9.665   1.599   7.325
18071WAT     H254456   9.564   1.718   7.376
18072WAT      O54457   2.546   3.801   3.322
18072WAT     H154458   2.468   3.800   3.260
18072WAT     H254459   2.513   3.811   3.416
18073WAT      O54460   6.081   0.301   0.736
18073WAT     H154461   6.162   0.358   0.753
18073WAT     H254462   6.000   0.349   0.770
18074WAT      O54463   9.887   1.854   5.512
18074WAT     H154464   9.808   1.794   5.503
18074WAT     H254465   9.971   1.801   5.498
18075WAT      O54466   4.750   9.653   0.383
18075WAT     H154467   4.801   9.656   0.297
18075WAT     H254468   4.657   9.619   0.365
18076WAT      O54469   6.776   4.040   5.605
18076WAT     H154470   6.852   4.029   5.669
18076WAT     H254471   6.768   3.958   5.549
18077WAT      O54472   0.109   7.246   2.091
18077WAT     H154473   0.173   7.301   2.037
18077WAT     H254474   0.021   7.293   2.094
18078WAT      O54475   4.952   6.774   9.484
18078WAT     H154476   4.919   6.702   9.546
18078WAT     H254477   4.880   6.797   9.419
18079WAT      O54478   7.238   1.411   2.873
18079WAT     H154479   7.281   1.325   2.846
18079WAT     H254480   7.303   1.486   2.862
18080WAT      O54481   4.061   2.765   0.018
18080WAT     H154482   3.992   2.836   0.008
18080WAT     H254483   4.092   2.735  -0.072
18081WAT      O54484   3.305   7.625   7.192
18081WAT     H154485   3.395   7.630   7.235
18081WAT     H254486   3.297   7.696   7.122
18082WAT      O54487   6.555   1.372   8.785
18082WAT     H154488   6.563   1.380   8.884
18082WAT     H254489   6.462   1.344   8.762
18083WAT      O54490   0.526   1.529   4.834
18083WAT     H154491   0.438   1.482   4.822
18083WAT     H254492   0.510   1.623   4.865
18084WAT      O54493   6.255   1.430   8.797
18084WAT     H154494   6.297   1.495   8.861
18084WAT     H254495   6.199   1.365   8.848
18085WAT      O54496   1.113   1.598   6.268
18085WAT     H154497   1.095   1.537   6.191
18085WAT     H254498   1.178   1.555   6.330
18086WAT      O54499   1.020   4.761   3.477
18086WAT     H154500   0.976   4.817   3.406
18086WAT     H254501   0.960   4.684   3.499
18087WAT      O54502   5.689   3.871   8.771
18087WAT     H154503   5.630   3.947   8.799
18087WAT     H254504   5.770   3.869   8.829
18088WAT      O54505   9.662   7.893   7.032
18088WAT     H154506   9.754   7.856   7.043
18088WAT     H254507   9.608   7.874   7.114
18089WAT      O54508   0.042   0.147   5.112
18089WAT     H154509   0.141   0.143   5.125
18089WAT     H254510   0.013   0.072   5.052
18090WAT      O54511   0.716   9.808   6.575
18090WAT     H154512   0.781   9.847   6.641
18090WAT     H254513   0.753   9.722   6.539
18091WAT      O54514   1.843   8.666   1.047
18091WAT     H154515   1.939   8.670   1.020
18091WAT     H254516   1.833   8.706   1.139
18092WAT      O54517   4.056   8.187   9.833
18092WAT     H154518   4.076   8.261   9.898
18092WAT     H254519   4.007   8.114   9.880
18093WAT      O54520   5.289   9.292   3.038
18093WAT     H154521   5.252   9.245   2.958
18093WAT     H254522   5.365   9.349   3.010
18094WAT      O54523   2.091   0.253   3.465
18094WAT     H154524   2.134   0.279   3.379
18094WAT     H254525   2.003   0.210   3.446
18095WAT      O54526   5.217   5.232   8.780
18095WAT     H154527   5.133   5.198   8.738
18095WAT     H254528   5.260   5.300   8.720
18096WAT      O54529   1.495   8.050   5.482
18096WAT     H154530   1.426   8.026   5.550
18096WAT     H254531   1.484   7.992   5.401
18097WAT      O54532   5.717   4.021   7.744
18097WAT     H154533   5.707   4.073   7.659
18097WAT     H254534   5.771   3.939   7.726
18098WAT      O54535   8.981   7.502   5.477
18098WAT     H154536   8.928   7.536   5.399
18098WAT     H254537   8.970   7.564   5.554
18099WAT      O54538   2.967   3.622   7.618
18099WAT     H154539   2.959   3.687   7.543
18099WAT     H254540   2.963   3.670   7.705
18100WAT      O54541   7.097   2.336   7.776
18100WAT     H154542   7.191   2.307   7.788
18100WAT     H254543   7.090   2.435   7.789
18101WAT      O54544   2.912   7.337   9.108
18101WAT     H154545   2.886   7.385   9.192
18101WAT     H254546   2.841   7.271   9.084
18102WAT      O54547   8.432   2.492   0.532
18102WAT     H154548   8.413   2.496   0.434
18102WAT     H254549   8.373   2.556   0.581
18103WAT      O54550   5.883   4.925   1.549
18103WAT     H154551   5.792   4.948   1.582
18103WAT     H254552   5.946   5.001   1.569
18104WAT      O54553   0.504   7.188   9.484
18104WAT     H154554   0.541   7.229   9.568
18104WAT     H254555   0.415   7.229   9.464
18105WAT      O54556   9.646   0.878   5.344
18105WAT     H154557   9.616   0.939   5.270
18105WAT     H254558   9.666   0.788   5.307
18106WAT      O54559   6.390   2.246   5.678
18106WAT     H154560   6.358   2.311   5.747
18106WAT     H254561   6.458   2.185   5.718
18107WAT      O54562   3.939   4.972   5.044
18107WAT     H154563   3.892   5.043   5.097
18107WAT     H254564   3.877   4.937   4.974
18108WAT      O54565   3.699   1.885   0.271
18108WAT     H154566   3.631   1.949   0.235
18108WAT     H254567   3.660   1.793   0.274
18109WAT      O54568   6.514   3.897   0.661
18109WAT     H154569   6.547   3.909   0.567
18109WAT     H254570   6.522   3.984   0.711
18110WAT      O54571   0.539   5.378   9.634
18110WAT     H154572   0.495   5.430   9.561
18110WAT     H254573   0.484   5.298   9.656
18111WAT      O54574   6.912   2.790   9.568
18111WAT     H154575   7.006   2.760   9.554
18111WAT     H254576   6.903   2.885   9.540
18112WAT      O54577   8.113   2.260   9.258
18112WAT     H154578   8.135   2.277   9.162
18112WAT     H254579   8.058   2.336   9.293
18113WAT      O54580   1.191   4.109   8.516
18113WAT     H154581   1.196   4.208   8.529
18113WAT     H254582   1.118   4.088   8.451
18114WAT      O54583   7.126   2.108   6.343
18114WAT     H154584   7.174   2.129   6.257
18114WAT     H254585   7.036   2.070   6.322
18115WAT      O54586   6.452   4.523   4.734
18115WAT     H154587   6.510   4.590   4.780
18115WAT     H254588   6.359   4.561   4.724
18116WAT      O54589   6.177   8.862   0.671
18116WAT     H154590   6.094   8.917   0.662
18116WAT     H254591   6.174   8.786   0.606
18117WAT      O54592   0.635   5.571   4.088
18117WAT     H154593   0.536   5.560   4.096
18117WAT     H254594   0.663   5.551   3.995
18118WAT      O54595   1.733   4.203   0.468
18118WAT     H154596   1.677   4.226   0.548
18118WAT     H254597   1.763   4.288   0.423
18119WAT      O54598   2.760   0.783   4.904
18119WAT     H154599   2.830   0.733   4.955
18119WAT     H254600   2.735   0.732   4.822
18120WAT      O54601   9.086   8.182   7.300
18120WAT     H154602   9.176   8.187   7.256
18120WAT     H254603   9.088   8.233   7.386
18121WAT      O54604   2.704   5.893   3.353
18121WAT     H154605   2.634   5.862   3.417
18121WAT     H254606   2.795   5.878   3.393
18122WAT      O54607   4.981   5.988   1.087
18122WAT     H154608   4.986   5.894   1.055
18122WAT     H254609   5.074   6.024   1.097
18123WAT      O54610   6.499   4.267   3.716
18123WAT     H154611   6.512   4.206   3.638
18123WAT     H254612   6.416   4.241   3.765
18124WAT      O54613   7.279   9.577   6.137
18124WAT     H154614   7.269   9.483   6.104
18124WAT     H254615   7.361   9.618   6.096
18125WAT      O54616   6.141   8.183   0.994
18125WAT     H154617   6.164   8.142   0.906
18125WAT     H254618   6.048   8.220   0.990
18126WAT      O54619   1.487   3.256   3.101
18126WAT     H154620   1.522   3.253   3.194
18126WAT     H254621   1.483   3.351   3.070
18127WAT      O54622   9.096   2.147   6.255
18127WAT     H154623   9.066   2.215   6.321
18127WAT     H254624   9.196   2.137   6.260
18128WAT      O54625   9.317   0.380   1.465
18128WAT     H154626   9.318   0.476   1.493
18128WAT     H254627   9.231   0.337   1.494
18129WAT      O54628   2.931   4.601   7.163
18129WAT     H154629   3.015   4.570   7.209
18129WAT     H254630   2.919   4.699   7.177
18130WAT      O54631   5.960   4.445   3.647
18130WAT     H154632   5.934   4.541   3.637
18130WAT     H254633   6.039   4.426   3.589
18131WAT      O54634   7.353   6.430   6.615
18131WAT     H154635   7.260   6.401   6.595
18131WAT     H254636   7.351   6.509   6.677
18132WAT      O54637   8.706   8.552   9.405
18132WAT     H154638   8.746   8.644   9.412
18132WAT     H254639   8.607   8.559   9.395
18133WAT      O54640   3.590   8.364   9.006
18133WAT     H154641   3.589   8.346   8.908
18133WAT     H254642   3.501   8.342   9.045
18134WAT      O54643   7.662   3.094   8.459
18134WAT     H154644   7.659   3.078   8.558
18134WAT     H254645   7.582   3.146   8.431
18135WAT      O54646   7.034   8.100   7.552
18135WAT     H154647   6.941   8.119   7.584
18135WAT     H254648   7.053   8.155   7.471
18136WAT      O54649   1.981   2.587   2.898
18136WAT     H154650   1.989   2.653   2.823
18136WAT     H254651   2.071   2.550   2.921
18137WAT      O54652   6.523   2.158   6.534
18137WAT     H154653   6.553   2.254   6.536
18137WAT     H254654   6.475   2.137   6.619
18138WAT      O54655   4.406   8.865   8.221
18138WAT     H154656   4.329   8.866   8.284
18138WAT     H254657   4.492   8.869   8.272
18139WAT      O54658   2.844   4.138   8.238
18139WAT     H154659   2.827   4.048   8.199
18139WAT     H254660   2.845   4.206   8.164
18140WAT      O54661   1.792   5.378   9.741
18140WAT     H154662   1.792   5.307   9.670
18140WAT     H254663   1.724   5.355   9.810
18141WAT      O54664   6.840   4.075   1.594
18141WAT     H154665   6.936   4.102   1.607
18141WAT     H254666   6.822   4.065   1.496
18142WAT      O54667   5.773   1.193   3.111
18142WAT     H154668   5.698   1.171   3.048
18142WAT     H254669   5.748   1.164   3.203
18143WAT      O54670   3.174   2.051   2.859
18143WAT     H154671   3.247   2.119   2.865
18143WAT     H254672   3.086   2.095   2.875
18144WAT      O54673   9.313   9.056   1.971
18144WAT     H154674   9.355   9.130   1.920
18144WAT     H254675   9.228   9.028   1.926
18145WAT      O54676   4.891   3.151   3.626
18145WAT     H154677   4.944   3.066   3.625
18145WAT     H254678   4.931   3.216   3.562
18146WAT      O54679   3.944   1.206   6.589
18146WAT     H154680   3.953   1.113   6.623
18146WAT     H254681   3.926   1.268   6.665
18147WAT      O54682   2.769   2.359   9.001
18147WAT     H154683   2.730   2.345   9.092
18147WAT     H254684   2.714   2.425   8.951
18148WAT      O54685   8.230   9.370   7.942
18148WAT     H154686   8.214   9.414   7.854
18148WAT     H254687   8.323   9.390   7.973
18149WAT      O54688   3.039   9.206   8.435
18149WAT     H154689   3.108   9.152   8.387
18149WAT     H254690   2.979   9.145   8.486
18150WAT      O54691   6.299   7.545   3.347
18150WAT     H154692   6.217   7.595   3.372
18150WAT     H254693   6.280   7.446   3.347
18151WAT      O54694   2.633   4.197   1.874
18151WAT     H154695   2.695   4.275   1.866
18151WAT     H254696   2.551   4.225   1.925
18152WAT      O54697   1.785   0.825   1.302
18152WAT     H154698   1.690   0.839   1.276
18152WAT     H254699   1.831   0.769   1.232
18153WAT      O54700   8.126   5.489   6.099
18153WAT     H154701   8.075   5.563   6.143
18153WAT     H254702   8.221   5.517   6.087
18154WAT      O54703   2.247   0.997   0.317
18154WAT     H154704   2.193   0.916   0.293
18154WAT     H254705   2.194   1.056   0.377
18155WAT      O54706   8.678   7.334   6.508
18155WAT     H154707   8.662   7.424   6.549
18155WAT     H254708   8.770   7.302   6.534
18156WAT      O54709   0.803   7.374   0.561
18156WAT     H154710   0.855   7.445   0.514
18156WAT     H254711   0.717   7.412   0.596
18157WAT      O54712   4.568   3.997   4.136
18157WAT     H154713   4.593   3.985   4.232
18157WAT     H254714   4.507   4.076   4.128
18158WAT      O54715   6.086   4.034   9.473
18158WAT     H154716   5.995   3.994   9.477
18158WAT     H254717   6.085   4.124   9.518
18159WAT      O54718   5.492   3.611   0.710
18159WAT     H154719   5.511   3.522   0.668
18159WAT     H254720   5.549   3.681   0.666
18160WAT      O54721   6.681   4.181   4.249
18160WAT     H154722   6.710   4.101   4.196
18160WAT     H254723   6.716   4.264   4.205
18161WAT      O54724   2.831   5.704   8.062
18161WAT     H154725   2.900   5.676   8.129
18161WAT     H254726   2.829   5.803   8.055
18162WAT      O54727   4.945   0.688   8.303
18162WAT     H154728   5.043   0.693   8.285
18162WAT     H254729   4.908   0.603   8.266
18163WAT      O54730   5.834   3.094   9.219
18163WAT     H154731   5.789   3.044   9.293
18163WAT     H254732   5.872   3.028   9.154
18164WAT      O54733   8.073   8.722   7.205
18164WAT     H154734   8.150   8.659   7.194
18164WAT     H254735   7.997   8.674   7.250
18165WAT      O54736   1.746   5.399   2.764
18165WAT     H154737   1.663   5.448   2.736
18165WAT     H254738   1.787   5.354   2.685
18166WAT      O54739   1.266   4.594   7.538
18166WAT     H154740   1.181   4.585   7.486
18166WAT     H254741   1.291   4.504   7.575
18167WAT      O54742   1.737   0.710   7.526
18167WAT     H154743   1.802   0.686   7.597
18167WAT     H254744   1.745   0.807   7.503
18168WAT      O54745   2.231   7.975   6.624
18168WAT     H154746   2.253   8.068   6.595
18168WAT     H254747   2.299   7.944   6.691
18169WAT      O54748   9.621   2.338   1.440
18169WAT     H154749   9.633   2.346   1.539
18169WAT     H254750   9.696   2.385   1.393
18170WAT      O54751   9.790   6.129   4.713
18170WAT     H154752   9.777   6.047   4.768
18170WAT     H254753   9.786   6.210   4.772
18171WAT      O54754   4.775   4.470   9.567
18171WAT     H154755   4.827   4.555   9.568
18171WAT     H254756   4.808   4.411   9.493
18172WAT      O54757   3.841   3.035   5.045
18172WAT     H154758   3.826   3.107   4.977
18172WAT     H254759   3.753   3.005   5.081
18173WAT      O54760   5.264   0.993   2.283
18173WAT     H154761   5.328   1.024   2.212
18173WAT     H254762   5.267   0.893   2.289
18174WAT      O54763   6.597   2.561   4.614
18174WAT     H154764   6.668   2.505   4.657
18174WAT     H254765   6.588   2.647   4.663
18175WAT      O54766   8.359   8.317   7.475
18175WAT     H154767   8.310   8.250   7.418
18175WAT     H254768   8.304   8.400   7.485
18176WAT      O54769   5.264   4.210   5.372
18176WAT     H154770   5.318   4.179   5.450
18176WAT     H254771   5.289   4.156   5.291
18177WAT      O54772   3.576   8.792   4.637
18177WAT     H154773   3.675   8.805   4.639
18177WAT     H254774   3.554   8.704   4.679
18178WAT      O54775   9.462   7.520   4.867
18178WAT     H154776   9.412   7.442   4.830
18178WAT     H254777   9.480   7.504   4.964
18179WAT      O54778   5.440   7.101   2.164
18179WAT     H154779   5.361   7.042   2.143
18179WAT     H254780   5.497   7.056   2.233
18180WAT      O54781   6.152   7.037   4.974
18180WAT     H154782   6.140   6.990   5.062
18180WAT     H254783   6.248   7.066   4.966
18181WAT      O54784   6.126   1.425   9.646
18181WAT     H154785   6.027   1.413   9.633
18181WAT     H254786   6.148   1.413   9.743
18182WAT      O54787   0.331   6.548   6.459
18182WAT     H154788   0.342   6.599   6.545
18182WAT     H254789   0.250   6.490   6.465
18183WAT      O54790   1.154   7.843   0.057
18183WAT     H154791   1.077   7.897   0.021
18183WAT     H254792   1.119   7.767   0.111
18184WAT      O54793   4.155   7.231   9.766
18184WAT     H154794   4.143   7.137   9.735
18184WAT     H254795   4.252   7.246   9.789
18185WAT      O54796   1.762   4.003   3.177
18185WAT     H154797   1.760   4.081   3.114
18185WAT     H254798   1.829   4.019   3.249
18186WAT      O54799   3.676   8.008   5.603
18186WAT     H154800   3.768   7.984   5.636
18186WAT     H254801   3.612   7.935   5.626
18187WAT      O54802   6.004   3.009   1.325
18187WAT     H154803   6.034   3.068   1.400
18187WAT     H254804   6.053   3.035   1.241
18188WAT      O54805   1.095   2.536   9.435
18188WAT     H154806   1.162   2.475   9.393
18188WAT     H254807   1.007   2.524   9.390
18189WAT      O54808   7.382   6.518   1.827
18189WAT     H154809   7.293   6.474   1.833
18189WAT     H254810   7.447   6.472   1.887
18190WAT      O54811   3.201   8.456   3.463
18190WAT     H154812   3.107   8.429   3.486
18190WAT     H254813   3.242   8.503   3.542
18191WAT      O54814   7.592   1.085   1.639
18191WAT     H154815   7.549   1.089   1.729
18191WAT     H254816   7.525   1.109   1.568
18192WAT      O54817   9.155   3.677   2.540
18192WAT     H154818   9.165   3.586   2.581
18192WAT     H254819   9.185   3.675   2.445
18193WAT      O54820   6.143   2.036   6.277
18193WAT     H154821   6.174   1.965   6.213
18193WAT     H254822   6.071   2.091   6.234
18194WAT      O54823   3.276   1.814   2.889
18194WAT     H154824   3.264   1.909   2.860
18194WAT     H254825   3.298   1.812   2.987
18195WAT      O54826   4.848   6.778   0.433
18195WAT     H154827   4.893   6.801   0.347
18195WAT     H254828   4.843   6.859   0.492
18196WAT      O54829   6.518   5.005   9.288
18196WAT     H154830   6.451   4.938   9.258
18196WAT     H254831   6.609   4.978   9.256
18197WAT      O54832   9.562   7.466   6.499
18197WAT     H154833   9.536   7.372   6.522
18197WAT     H254834   9.652   7.487   6.537
18198WAT      O54835   9.522   2.862   0.545
18198WAT     H154836   9.541   2.937   0.481
18198WAT     H254837   9.432   2.824   0.524
18199WAT      O54838   3.144   3.603   6.809
18199WAT     H154839   3.154   3.699   6.836
18199WAT     H254840   3.066   3.563   6.856
18200WAT      O54841   4.975   7.210   0.570
18200WAT     H154842   4.963   7.289   0.630
18200WAT     H254843   4.954   7.237   0.475
18201WAT      O54844   4.327   9.011   5.636
18201WAT     H154845   4.241   8.989   5.591
18201WAT     H254846   4.341   8.949   5.714
18202WAT      O54847   0.792   4.043   3.706
18202WAT     H154848   0.697   4.054   3.677
18202WAT     H254849   0.839   3.981   3.643
18203WAT      O54850   5.960   4.484   2.244
18203WAT     H154851   5.977   4.481   2.343
18203WAT     H254852   6.019   4.417   2.198
18204WAT      O54853   0.815   0.338   4.761
18204WAT     H154854   0.863   0.252   4.747
18204WAT     H254855   0.748   0.327   4.834
18205WAT      O54856   9.225   9.564   0.219
18205WAT     H154857   9.274   9.610   0.292
18205WAT     H254858   9.126   9.570   0.236
18206WAT      O54859   8.832   5.873   7.196
18206WAT     H154860   8.789   5.825   7.272
18206WAT     H254861   8.883   5.808   7.139
18207WAT      O54862   7.331   0.190   7.808
18207WAT     H154863   7.280   0.232   7.733
18207WAT     H254864   7.312   0.092   7.811
18208WAT      O54865   1.329   0.971   2.760
18208WAT     H154866   1.255   1.011   2.706
18208WAT     H254867   1.370   1.042   2.818
18209WAT      O54868   0.284   5.876   1.390
18209WAT     H154869   0.214   5.927   1.440
18209WAT     H254870   0.275   5.779   1.411
18210WAT      O54871   6.631   0.830   1.438
18210WAT     H154872   6.664   0.872   1.522
18210WAT     H254873   6.699   0.765   1.404
18211WAT      O54874   3.610   1.891   0.741
18211WAT     H154875   3.578   1.982   0.715
18211WAT     H254876   3.591   1.875   0.837
18212WAT      O54877   4.059   0.064   5.930
18212WAT     H154878   4.086   0.117   6.011
18212WAT     H254879   4.135   0.063   5.865
18213WAT      O54880   4.520   1.532   9.370
18213WAT     H154881   4.616   1.518   9.345
18213WAT     H254882   4.488   1.455   9.424
18214WAT      O54883   5.041   8.738   5.918
18214WAT     H154884   4.977   8.666   5.946
18214WAT     H254885   5.012   8.825   5.958
18215WAT      O54886   0.051   3.419   9.224
18215WAT     H154887   0.071   3.365   9.142
18215WAT     H254888   0.119   3.398   9.295
18216WAT      O54889   8.491   6.189   3.387
18216WAT     H154890   8.535   6.196   3.298
18216WAT     H254891   8.454   6.279   3.413
18217WAT      O54892   0.196   1.422   6.756
18217WAT     H154893   0.264   1.493   6.737
18217WAT     H254894   0.218   1.378   6.843
18218WAT      O54895   0.918   5.176   6.864
18218WAT     H154896   0.838   5.223   6.902
18218WAT     H254897   0.901   5.078   6.863
18219WAT      O54898   9.852   7.754   9.094
18219WAT     H154899   9.793   7.686   9.052
18219WAT     H254900   9.809   7.790   9.176
18220WAT      O54901   6.607   2.880   2.222
18220WAT     H154902   6.686   2.906   2.167
18220WAT     H254903   6.555   2.809   2.175
18221WAT      O54904   7.397   5.716   8.061
18221WAT     H154905   7.461   5.660   8.009
18221WAT     H254906   7.384   5.676   8.152
18222WAT      O54907   0.956   7.369   6.881
18222WAT     H154908   1.050   7.334   6.879
18222WAT     H254909   0.921   7.376   6.788
18223WAT      O54910   0.911   5.948   8.491
18223WAT     H154911   0.938   5.990   8.578
18223WAT     H254912   0.834   5.999   8.452
18224WAT      O54913   7.558   5.943   9.117
18224WAT     H154914   7.574   6.037   9.088
18224WAT     H254915   7.501   5.895   9.050
18225WAT      O54916   2.035   3.857   5.840
18225WAT     H154917   2.076   3.781   5.890
18225WAT     H254918   2.063   3.943   5.883
18226WAT      O54919   6.082   6.348   6.806
18226WAT     H154920   6.121   6.307   6.724
18226WAT     H254921   6.061   6.276   6.872
18227WAT      O54922   7.740   7.963   6.225
18227WAT     H154923   7.831   7.923   6.237
18227WAT     H254924   7.694   7.921   6.147
18228WAT      O54925   2.837   6.215   2.110
18228WAT     H154926   2.908   6.275   2.072
18228WAT     H254927   2.878   6.156   2.180
18229WAT      O54928   8.675   9.756   2.061
18229WAT     H154929   8.709   9.743   1.968
18229WAT     H254930   8.575   9.755   2.060
18230WAT      O54931   0.552   5.809   3.242
18230WAT     H154932   0.491   5.730   3.242
18230WAT     H254933   0.567   5.840   3.148
18231WAT      O54934   0.575   2.120   2.027
18231WAT     H154935   0.489   2.112   2.077
18231WAT     H254936   0.647   2.069   2.074
18232WAT      O54937   2.280   8.808   9.193
18232WAT     H154938   2.318   8.717   9.208
18232WAT     H254939   2.180   8.802   9.186
18233WAT      O54940   0.383   8.415   3.209
18233WAT     H154941   0.462   8.400   3.149
18233WAT     H254942   0.299   8.389   3.161
18234WAT      O54943   8.361   5.012   7.333
18234WAT     H154944   8.330   4.919   7.352
18234WAT     H254945   8.414   5.046   7.411
18235WAT      O54946   8.185   4.532   4.938
18235WAT     H154947   8.172   4.531   4.839
18235WAT     H254948   8.211   4.625   4.967
18236WAT      O54949   5.188   5.566   8.493
18236WAT     H154950   5.158   5.652   8.452
18236WAT     H254951   5.109   5.505   8.504
18237WAT      O54952   2.552   5.356   3.843
18237WAT     H154953   2.611   5.398   3.773
18237WAT     H254954   2.576   5.392   3.933
18238WAT      O54955   2.799   5.178   7.109
18238WAT     H154956   2.885   5.139   7.075
18238WAT     H254957   2.809   5.197   7.207
18239WAT      O54958   1.102   5.177   1.095
18239WAT     H154959   1.156   5.259   1.115
18239WAT     H254960   1.157   5.096   1.111
18240WAT      O54961   2.248   9.162   7.726
18240WAT     H154962   2.204   9.101   7.792
18240WAT     H254963   2.268   9.111   7.642
18241WAT      O54964   0.086   8.828   2.015
18241WAT     H154965   0.015   8.898   2.021
18241WAT     H254966   0.123   8.810   2.107
18242WAT      O54967   5.582   3.246   4.366
18242WAT     H154968   5.497   3.250   4.313
18242WAT     H254969   5.634   3.330   4.352
18243WAT      O54970   4.891   2.734   1.112
18243WAT     H154971   4.980   2.777   1.098
18243WAT     H254972   4.894   2.676   1.192
18244WAT      O54973   9.230   6.189   2.714
18244WAT     H154974   9.133   6.203   2.697
18244WAT     H254975   9.250   6.091   2.710
18245WAT      O54976   5.418   1.445   3.101
18245WAT     H154977   5.489   1.408   3.042
18245WAT     H254978   5.420   1.398   3.189
18246WAT      O54979   3.592   6.300   6.069
18246WAT     H154980   3.619   6.234   5.999
18246WAT     H254981   3.625   6.391   6.043
18247WAT      O54982   1.673   6.009   5.873
18247WAT     H154983   1.594   5.948   5.872
18247WAT     H254984   1.683   6.049   5.964
18248WAT      O54985   4.698   6.702   8.368
18248WAT     H154986   4.772   6.758   8.329
18248WAT     H254987   4.641   6.666   8.295
18249WAT      O54988   6.488   4.303   1.241
18249WAT     H154989   6.496   4.341   1.149
18249WAT     H254990   6.566   4.333   1.297
18250WAT      O54991   5.528   5.143   9.486
18250WAT     H154992   5.469   5.221   9.508
18250WAT     H254993   5.582   5.165   9.404
18251WAT      O54994   4.911   2.645   4.718
18251WAT     H154995   4.870   2.644   4.809
18251WAT     H254996   4.935   2.739   4.693
18252WAT      O54997   5.777   6.726   7.370
18252WAT     H154998   5.788   6.686   7.461
18252WAT     H254999   5.758   6.824   7.379
18253WAT      O55000   2.304   6.541   4.337
18253WAT     H155001   2.245   6.522   4.416
18253WAT     H255002   2.275   6.627   4.295
18254WAT      O55003   8.345   6.598   1.408
18254WAT     H155004   8.311   6.637   1.323
18254WAT     H255005   8.300   6.642   1.486
18255WAT      O55006   5.935   2.722   1.307
18255WAT     H155007   6.012   2.675   1.266
18255WAT     H255008   5.955   2.820   1.313
18256WAT      O55009   1.232   1.551   1.199
18256WAT     H155010   1.319   1.503   1.190
18256WAT     H255011   1.249   1.643   1.234
18257WAT      O55012   6.141   7.319   4.050
18257WAT     H155013   6.143   7.419   4.061
18257WAT     H255014   6.122   7.277   4.139
18258WAT      O55015   6.025   8.382   3.515
18258WAT     H155016   5.967   8.460   3.539
18258WAT     H255017   6.119   8.400   3.542
18259WAT      O55018   6.640   1.600   7.981
18259WAT     H155019   6.704   1.619   8.055
18259WAT     H255020   6.547   1.594   8.017
18260WAT      O55021   4.571   9.466   2.486
18260WAT     H155022   4.570   9.383   2.542
18260WAT     H255023   4.504   9.531   2.522
18261WAT      O55024   6.023   4.635   7.646
18261WAT     H155025   5.954   4.641   7.718
18261WAT     H255026   6.112   4.661   7.683
18262WAT      O55027   8.924   2.152   5.594
18262WAT     H155028   8.933   2.093   5.675
18262WAT     H255029   8.888   2.241   5.622
18263WAT      O55030   0.187   6.914   7.089
18263WAT     H155031   0.126   6.874   7.021
18263WAT     H255032   0.134   6.965   7.156
18264WAT      O55033   7.249   6.076   9.859
18264WAT     H155034   7.185   6.000   9.859
18264WAT     H255035   7.226   6.140   9.786
18265WAT      O55036   2.037   0.124   7.170
18265WAT     H155037   2.060   0.220   7.181
18265WAT     H255038   2.111   0.077   7.121
18266WAT      O55039   8.112   5.593   9.195
18266WAT     H155040   8.170   5.589   9.277
18266WAT     H255041   8.091   5.688   9.174
18267WAT      O55042   9.127   9.322   4.684
18267WAT     H155043   9.181   9.404   4.664
18267WAT     H255044   9.154   9.285   4.772
18268WAT      O55045   4.318   8.195   7.258
18268WAT     H155046   4.256   8.131   7.304
18268WAT     H255047   4.386   8.143   7.205
18269WAT      O55048   4.595   3.309   2.937
18269WAT     H155049   4.500   3.303   2.906
18269WAT     H255050   4.643   3.379   2.886
18270WAT      O55051   7.747   9.787   3.100
18270WAT     H155052   7.802   9.809   3.020
18270WAT     H255053   7.738   9.868   3.158
18271WAT      O55054   6.086   2.430   7.388
18271WAT     H155055   6.156   2.484   7.340
18271WAT     H255056   6.105   2.332   7.374
18272WAT      O55057   8.029   2.876   7.005
18272WAT     H155058   7.966   2.919   6.941
18272WAT     H255059   7.977   2.821   7.070
18273WAT      O55060   0.437   7.855   0.148
18273WAT     H155061   0.439   7.839   0.246
18273WAT     H255062   0.378   7.787   0.104
18274WAT      O55063   7.279   8.430   3.081
18274WAT     H155064   7.339   8.427   3.001
18274WAT     H255065   7.301   8.354   3.142
18275WAT      O55066   3.958   5.521   4.098
18275WAT     H155067   4.050   5.531   4.060
18275WAT     H255068   3.901   5.470   4.033
18276WAT      O55069   2.568   3.784   9.340
18276WAT     H155070   2.532   3.866   9.296
18276WAT     H255071   2.567   3.796   9.440
18277WAT      O55072   3.036   6.712   7.061
18277WAT     H155073   2.946   6.739   7.027
18277WAT     H255074   3.035   6.714   7.161
18278WAT      O55075   3.687   7.717   3.947
18278WAT     H155076   3.758   7.766   3.998
18278WAT     H255077   3.727   7.639   3.900
18279WAT      O55078   7.005   4.195   5.412
18279WAT     H155079   6.948   4.191   5.330
18279WAT     H255080   6.953   4.164   5.491
18280WAT      O55081   3.499   7.988   8.306
18280WAT     H155082   3.468   7.953   8.217
18280WAT     H255083   3.594   8.020   8.297
18281WAT      O55084   9.740   5.399   2.142
18281WAT     H155085   9.824   5.383   2.195
18281WAT     H255086   9.661   5.396   2.203
18282WAT      O55087   5.291   7.518   0.281
18282WAT     H155088   5.233   7.460   0.223
18282WAT     H255089   5.354   7.461   0.332
18283WAT      O55090   6.210   6.359   8.784
18283WAT     H155091   6.148   6.281   8.788
18283WAT     H255092   6.223   6.387   8.689
18284WAT      O55093   5.531   2.783   1.697
18284WAT     H155094   5.519   2.782   1.796
18284WAT     H255095   5.441   2.782   1.653
18285WAT      O55096   4.838   3.211   6.383
18285WAT     H155097   4.830   3.293   6.327
18285WAT     H255098   4.921   3.161   6.356
18286WAT      O55099   0.224   3.917   0.519
18286WAT     H155100   0.248   3.820   0.516
18286WAT     H255101   0.227   3.949   0.614
18287WAT      O55102   3.796   7.338   6.444
18287WAT     H155103   3.729   7.383   6.386
18287WAT     H255104   3.886   7.344   6.402
18288WAT      O55105   8.553   3.815   0.474
18288WAT     H155106   8.519   3.798   0.567
18288WAT     H255107   8.534   3.735   0.416
18289WAT      O55108   7.318   6.585   0.142
18289WAT     H155109   7.261   6.530   0.081
18289WAT     H255110   7.408   6.598   0.101
18290WAT      O55111   0.879   8.777   4.959
18290WAT     H155112   0.943   8.839   4.913
18290WAT     H255113   0.907   8.765   5.054
18291WAT      O55114   7.303   6.457   7.587
18291WAT     H155115   7.349   6.532   7.635
18291WAT     H255116   7.218   6.490   7.547
18292WAT      O55117   1.173   4.929   6.959
18292WAT     H155118   1.225   4.971   6.884
18292WAT     H255119   1.214   4.841   6.982
18293WAT      O55120   9.238   8.289   1.818
18293WAT     H155121   9.174   8.346   1.766
18293WAT     H255122   9.331   8.326   1.809
18294WAT      O55123   4.527   8.586   5.096
18294WAT     H155124   4.460   8.593   5.022
18294WAT     H255125   4.569   8.675   5.111
18295WAT      O55126   7.419   7.885   9.346
18295WAT     H155127   7.434   7.884   9.445
18295WAT     H255128   7.377   7.799   9.317
18296WAT      O55129   8.065   6.405   6.775
18296WAT     H155130   8.092   6.459   6.855
18296WAT     H255131   8.007   6.461   6.716
18297WAT      O55132   3.601   3.152   3.964
18297WAT     H155133   3.693   3.140   4.000
18297WAT     H255134   3.605   3.212   3.883
18298WAT      O55135   5.363   8.364   2.991
18298WAT     H155136   5.268   8.337   2.976
18298WAT     H255137   5.368   8.425   3.070
18299WAT      O55138   0.004   2.397   7.391
18299WAT     H155139   0.008   2.481   7.445
18299WAT     H255140   0.007   2.419   7.293
18300WAT      O55141   3.129   4.252   1.479
18300WAT     H155142   3.104   4.264   1.575
18300WAT     H255143   3.228   4.259   1.470
18301WAT      O55144   3.580   3.253   3.113
18301WAT     H155145   3.520   3.332   3.127
18301WAT     H255146   3.672   3.285   3.090
18302WAT      O55147   3.409   2.322   0.289
18302WAT     H155148   3.484   2.387   0.300
18302WAT     H255149   3.329   2.355   0.339
18303WAT      O55150   8.635   0.925   7.740
18303WAT     H155151   8.541   0.957   7.730
18303WAT     H255152   8.697   1.003   7.744
18304WAT      O55153   9.456   9.271   6.929
18304WAT     H155154   9.360   9.248   6.944
18304WAT     H255155   9.464   9.336   6.854
18305WAT      O55156   6.985   6.928   1.576
18305WAT     H155157   6.928   6.977   1.510
18305WAT     H255158   7.079   6.964   1.572
18306WAT      O55159   2.318   1.858   0.344
18306WAT     H155160   2.271   1.945   0.327
18306WAT     H255161   2.331   1.809   0.258
18307WAT      O55162   4.035   6.367   7.552
18307WAT     H155163   3.982   6.292   7.512
18307WAT     H255164   4.132   6.344   7.552
18308WAT      O55165   1.579   1.346   6.703
18308WAT     H155166   1.609   1.324   6.609
18308WAT     H255167   1.570   1.445   6.713
18309WAT      O55168   1.933   4.695   9.548
18309WAT     H155169   2.002   4.760   9.514
18309WAT     H255170   1.847   4.709   9.499
18310WAT      O55171   7.963   6.842   7.781
18310WAT     H155172   7.864   6.827   7.777
18310WAT     H255173   7.993   6.835   7.877
18311WAT      O55174   5.202   7.611   2.637
18311WAT     H155175   5.201   7.612   2.537
18311WAT     H255176   5.123   7.661   2.671
18312WAT      O55177   7.293   6.599   6.813
18312WAT     H155178   7.319   6.608   6.909
18312WAT     H255179   7.204   6.555   6.806
18313WAT      O55180   0.115   9.051   8.856
18313WAT     H155181   0.210   9.054   8.826
18313WAT     H255182   0.079   8.959   8.842
18314WAT      O55183   9.690   8.607   7.874
18314WAT     H155184   9.715   8.511   7.860
18314WAT     H255185   9.703   8.657   7.788
18315WAT      O55186   2.035   4.065   6.115
18315WAT     H155187   2.088   4.072   6.031
18315WAT     H255188   1.950   4.118   6.106
18316WAT      O55189   6.354   0.380   9.546
18316WAT     H155190   6.423   0.384   9.473
18316WAT     H255191   6.366   0.459   9.607
18317WAT      O55192   4.104   0.233   2.935
18317WAT     H155193   4.183   0.185   2.896
18317WAT     H255194   4.033   0.243   2.864
18318WAT      O55195   0.277   8.021   1.127
18318WAT     H155196   0.329   7.936   1.122
18318WAT     H255197   0.280   8.067   1.038
18319WAT      O55198   6.901   0.883   3.245
18319WAT     H155199   6.993   0.859   3.214
18319WAT     H255200   6.886   0.981   3.233
18320WAT      O55201   8.131   3.311   3.894
18320WAT     H155202   8.158   3.406   3.908
18320WAT     H255203   8.213   3.255   3.883
18321WAT      O55204   6.529   2.945   4.548
18321WAT     H155205   6.565   3.034   4.575
18321WAT     H255206   6.597   2.895   4.495
18322WAT      O55207   3.420   7.818   3.893
18322WAT     H155208   3.506   7.782   3.927
18322WAT     H255209   3.437   7.881   3.817
18323WAT      O55210   6.690   0.148   9.856
18323WAT     H155211   6.683   0.242   9.888
18323WAT     H255212   6.623   0.091   9.904
18324WAT      O55213   8.496   5.410   6.313
18324WAT     H155214   8.536   5.488   6.266
18324WAT     H255215   8.399   5.405   6.292
18325WAT      O55216   2.405   9.161   7.273
18325WAT     H155217   2.346   9.220   7.218
18325WAT     H255218   2.501   9.178   7.250
18326WAT      O55219   8.789   3.977   7.845
18326WAT     H155220   8.690   3.978   7.855
18326WAT     H255221   8.814   3.997   7.750
18327WAT      O55222   9.807   6.747   6.173
18327WAT     H155223   9.906   6.748   6.183
18327WAT     H255224   9.778   6.660   6.132
18328WAT      O55225   8.278   4.069   5.253
18328WAT     H155226   8.199   4.025   5.295
18328WAT     H255227   8.263   4.077   5.154
18329WAT      O55228   3.398   3.095   3.508
18329WAT     H155229   3.314   3.128   3.463
18329WAT     H255230   3.465   3.070   3.438
18330WAT      O55231   5.197   3.127   4.849
18330WAT     H155232   5.145   3.130   4.934
18330WAT     H255233   5.290   3.160   4.865
18331WAT      O55234   0.901   0.461   7.013
18331WAT     H155235   0.867   0.368   7.028
18331WAT     H255236   0.974   0.481   7.078
18332WAT      O55237   4.670   6.527   8.963
18332WAT     H155238   4.704   6.476   8.883
18332WAT     H255239   4.680   6.471   9.045
18333WAT      O55240   8.183   8.339   1.394
18333WAT     H155241   8.174   8.331   1.494
18333WAT     H255242   8.276   8.371   1.373
18334WAT      O55243   2.209   7.693   7.935
18334WAT     H155244   2.218   7.789   7.911
18334WAT     H255245   2.126   7.680   7.988
18335WAT      O55246   1.828   3.613   9.576
18335WAT     H155247   1.875   3.526   9.565
18335WAT     H255248   1.809   3.653   9.486
18336WAT      O55249   4.779   8.281   3.881
18336WAT     H155250   4.829   8.212   3.934
18336WAT     H255251   4.790   8.264   3.784
18337WAT      O55252   3.494   7.554   3.099
18337WAT     H155253   3.547   7.524   3.020
18337WAT     H255254   3.397   7.538   3.082
18338WAT      O55255   7.634   2.353   1.696
18338WAT     H155256   7.650   2.300   1.613
18338WAT     H255257   7.541   2.335   1.730
18339WAT      O55258   6.166   0.145   7.933
18339WAT     H155259   6.126   0.151   8.025
18339WAT     H255260   6.152   0.232   7.885
18340WAT      O55261   8.495   6.272   0.697
18340WAT     H155262   8.573   6.326   0.730
18340WAT     H255263   8.453   6.319   0.619
18341WAT      O55264   5.533   5.178   3.680
18341WAT     H155265   5.569   5.252   3.736
18341WAT     H255266   5.593   5.164   3.601
18342WAT      O55267   0.919   3.574   1.334
18342WAT     H155268   0.934   3.672   1.321
18342WAT     H255269   1.008   3.528   1.340
18343WAT      O55270   6.703   1.802   0.069
18343WAT     H155271   6.768   1.845   0.006
18343WAT     H255272   6.612   1.839   0.052
18344WAT      O55273   6.213   1.425   3.280
18344WAT     H155274   6.244   1.382   3.195
18344WAT     H255275   6.140   1.491   3.259
18345WAT      O55276   8.914   0.734   3.981
18345WAT     H155277   8.958   0.707   3.896
18345WAT     H255278   8.972   0.801   4.028
18346WAT      O55279   8.427   9.000   0.543
18346WAT     H155280   8.386   9.051   0.467
18346WAT     H255281   8.366   8.925   0.569
18347WAT      O55282   3.854   0.723   9.655
18347WAT     H155283   3.940   0.772   9.667
18347WAT     H255284   3.796   0.774   9.591
18348WAT      O55285   2.229   7.644   3.727
18348WAT     H155286   2.190   7.553   3.714
18348WAT     H255287   2.274   7.648   3.816
18349WAT      O55288   2.372   7.131   4.601
18349WAT     H155289   2.302   7.082   4.653
18349WAT     H255290   2.439   7.171   4.665
18350WAT      O55291   3.518   4.817   8.457
18350WAT     H155292   3.538   4.904   8.410
18350WAT     H255293   3.595   4.793   8.515
18351WAT      O55294   8.189   3.929   3.783
18351WAT     H155295   8.168   4.007   3.842
18351WAT     H255296   8.104   3.886   3.754
18352WAT      O55297   7.652   6.765   6.493
18352WAT     H155298   7.738   6.815   6.504
18352WAT     H255299   7.639   6.703   6.572
18353WAT      O55300   3.103   5.110   8.559
18353WAT     H155301   3.037   5.078   8.491
18353WAT     H255302   3.176   5.043   8.570
18354WAT      O55303   8.678   3.267   6.256
18354WAT     H155304   8.732   3.318   6.323
18354WAT     H255305   8.711   3.289   6.164
18355WAT      O55306   5.516   4.756   8.459
18355WAT     H155307   5.607   4.725   8.487
18355WAT     H255308   5.495   4.843   8.504
18356WAT      O55309   1.280   6.836   6.167
18356WAT     H155310   1.250   6.843   6.072
18356WAT     H255311   1.241   6.911   6.220
18357WAT      O55312   3.080   1.595   7.120
18357WAT     H155313   3.030   1.619   7.203
18357WAT     H255314   3.069   1.497   7.101
18358WAT      O55315   5.154   5.003   3.110
18358WAT     H155316   5.126   4.979   3.017
18358WAT     H255317   5.233   4.948   3.136
18359WAT      O55318   1.909   0.867   5.208
18359WAT     H155319   1.978   0.849   5.278
18359WAT     H255320   1.898   0.786   5.151
18360WAT      O55321   3.840   9.347   3.992
18360WAT     H155322   3.932   9.313   3.973
18360WAT     H255323   3.772   9.277   3.970
18361WAT      O55324   6.772   6.321   7.060
18361WAT     H155325   6.834   6.247   7.087
18361WAT     H255326   6.707   6.338   7.134
18362WAT      O55327   4.177   0.976   3.694
18362WAT     H155328   4.270   0.948   3.670
18362WAT     H255329   4.180   1.033   3.777
18363WAT      O55330   6.769   0.590   8.796
18363WAT     H155331   6.824   0.518   8.839
18363WAT     H255332   6.694   0.615   8.858
18364WAT      O55333   1.128   8.823   8.310
18364WAT     H155334   1.146   8.728   8.282
18364WAT     H255335   1.032   8.833   8.332
18365WAT      O55336   4.357   9.619   2.660
18365WAT     H155337   4.283   9.601   2.595
18365WAT     H255338   4.391   9.532   2.696
18366WAT      O55339   1.361   4.685   7.791
18366WAT     H155340   1.345   4.615   7.861
18366WAT     H255341   1.357   4.644   7.700
18367WAT      O55342   3.960   5.464   8.403
18367WAT     H155343   4.046   5.510   8.426
18367WAT     H255344   3.927   5.497   8.315
18368WAT      O55345   3.255   1.770   3.756
18368WAT     H155346   3.190   1.695   3.741
18368WAT     H255347   3.210   1.843   3.808
18369WAT      O55348   4.576   8.796   5.677
18369WAT     H155349   4.656   8.852   5.696
18369WAT     H255350   4.502   8.821   5.740
18370WAT      O55351   2.819   4.107   5.178
18370WAT     H155352   2.916   4.086   5.176
18370WAT     H255353   2.767   4.028   5.145
18371WAT      O55354   0.712   1.179   3.202
18371WAT     H155355   0.623   1.202   3.162
18371WAT     H255356   0.716   1.212   3.296
18372WAT      O55357   4.464   3.063   4.603
18372WAT     H155358   4.449   3.072   4.701
18372WAT     H255359   4.378   3.036   4.559
18373WAT      O55360   9.889   9.108   6.104
18373WAT     H155361   9.844   9.126   6.016
18373WAT     H255362   9.825   9.061   6.164
18374WAT      O55363   8.133   3.506   5.940
18374WAT     H155364   8.232   3.519   5.930
18374WAT     H255365   8.105   3.427   5.885
18375WAT      O55366   4.328   4.010   2.460
18375WAT     H155367   4.305   3.914   2.480
18375WAT     H255368   4.416   4.013   2.412
18376WAT      O55369   4.262   8.922   3.166
18376WAT     H155370   4.316   8.876   3.236
18376WAT     H255371   4.165   8.913   3.189
18377WAT      O55372   9.248   9.129   6.157
18377WAT     H155373   9.188   9.181   6.218
18377WAT     H255374   9.329   9.183   6.135
18378WAT      O55375   4.444   1.762   4.341
18378WAT     H155376   4.442   1.813   4.256
18378WAT     H255377   4.389   1.810   4.410
18379WAT      O55378   4.405   3.239   5.299
18379WAT     H155379   4.498   3.205   5.289
18379WAT     H255380   4.404   3.320   5.358
18380WAT      O55381   1.158   1.817   1.549
18380WAT     H155382   1.222   1.798   1.474
18380WAT     H255383   1.164   1.744   1.617
18381WAT      O55384   7.159   5.548   7.900
18381WAT     H155385   7.252   5.520   7.880
18381WAT     H255386   7.157   5.646   7.923
18382WAT      O55387   7.428   0.538   4.790
18382WAT     H155388   7.519   0.501   4.770
18382WAT     H255389   7.386   0.568   4.705
18383WAT      O55390   7.125   7.456   0.378
18383WAT     H155391   7.079   7.505   0.304
18383WAT     H255392   7.056   7.421   0.441
18384WAT      O55393   0.776   4.045   0.363
18384WAT     H155394   0.677   4.050   0.353
18384WAT     H255395   0.819   4.115   0.305
18385WAT      O55396   1.797   8.859   2.607
18385WAT     H155397   1.717   8.801   2.626
18385WAT     H255398   1.871   8.836   2.670
18386WAT      O55399   4.480   9.435   8.602
18386WAT     H155400   4.433   9.523   8.598
18386WAT     H255401   4.444   9.382   8.679
18387WAT      O55402   3.806   7.692   8.277
18387WAT     H155403   3.752   7.703   8.361
18387WAT     H255404   3.903   7.694   8.299
18388WAT      O55405   4.605   5.710   8.146
18388WAT     H155406   4.588   5.662   8.060
18388WAT     H255407   4.701   5.738   8.150
18389WAT      O55408   5.819   0.853   0.522
18389WAT     H155409   5.768   0.769   0.542
18389WAT     H255410   5.775   0.902   0.446
18390WAT      O55411   5.938   2.542   9.368
18390WAT     H155412   5.936   2.477   9.444
18390WAT     H255413   5.873   2.512   9.298
18391WAT      O55414   0.352   0.482   8.012
18391WAT     H155415   0.413   0.561   8.001
18391WAT     H255416   0.290   0.498   8.088
18392WAT      O55417   9.666   5.999   4.262
18392WAT     H155418   9.690   5.908   4.228
18392WAT     H255419   9.741   6.034   4.319
18393WAT      O55420   3.227   8.035   6.393
18393WAT     H155421   3.227   7.936   6.385
18393WAT     H255422   3.269   8.075   6.311
18394WAT      O55423   1.210   9.800   7.405
18394WAT     H155424   1.112   9.784   7.408
18394WAT     H255425   1.259   9.715   7.420
18395WAT      O55426   2.689   1.125   9.259
18395WAT     H155427   2.732   1.054   9.203
18395WAT     H255428   2.696   1.213   9.211
18396WAT      O55429   7.787   1.491   4.210
18396WAT     H155430   7.828   1.559   4.270
18396WAT     H255431   7.856   1.455   4.147
18397WAT      O55432   5.185   5.653   2.816
18397WAT     H155433   5.150   5.725   2.757
18397WAT     H255434   5.250   5.597   2.765
18398WAT      O55435   2.715   7.300   2.743
18398WAT     H155436   2.626   7.262   2.717
18398WAT     H255437   2.703   7.362   2.821
18399WAT      O55438   3.131   0.509   5.125
18399WAT     H155439   3.196   0.584   5.141
18399WAT     H255440   3.123   0.453   5.207
18400WAT      O55441   9.020   9.842   7.531
18400WAT     H155442   9.100   9.784   7.541
18400WAT     H255443   8.984   9.835   7.438
18401WAT      O55444   0.313   7.493   9.134
18401WAT     H155445   0.222   7.499   9.094
18401WAT     H255446   0.379   7.540   9.076
18402WAT      O55447   2.677   4.155   0.277
18402WAT     H155448   2.732   4.079   0.313
18402WAT     H255449   2.738   4.228   0.245
18403WAT      O55450   7.887   7.067   2.243
18403WAT     H155451   7.825   6.989   2.240
18403WAT     H255452   7.840   7.147   2.279
18404WAT      O55453   2.023   9.770   0.519
18404WAT     H155454   2.098   9.820   0.476
18404WAT     H255455   2.003   9.688   0.466
18405WAT      O55456   8.434   2.459   7.987
18405WAT     H155457   8.367   2.504   8.046
18405WAT     H255458   8.396   2.452   7.894
18406WAT      O55459   1.036   2.406   6.416
18406WAT     H155460   1.026   2.496   6.374
18406WAT     H255461   1.124   2.367   6.389
18407WAT      O55462   1.333   2.032   2.540
18407WAT     H155463   1.274   1.957   2.512
18407WAT     H255464   1.319   2.110   2.479
18408WAT      O55465   1.290   9.612   6.502
18408WAT     H155466   1.223   9.675   6.542
18408WAT     H255467   1.310   9.640   6.408
18409WAT      O55468   2.794   8.368   1.929
18409WAT     H155469   2.820   8.330   1.840
18409WAT     H255470   2.748   8.456   1.916
18410WAT      O55471   4.878   0.094   3.940
18410WAT     H155472   4.862   0.056   3.849
18410WAT     H255473   4.976   0.102   3.956
18411WAT      O55474   9.502   3.013   1.983
18411WAT     H155475   9.461   3.086   1.928
18411WAT     H255476   9.447   3.000   2.066
18412WAT      O55477   5.068   0.722   8.636
18412WAT     H155478   5.162   0.757   8.633
18412WAT     H255479   5.006   0.788   8.595
18413WAT      O55480   9.063   1.259   2.223
18413WAT     H155481   8.965   1.240   2.216
18413WAT     H255482   9.099   1.277   2.131
18414WAT      O55483   4.218   3.752   7.558
18414WAT     H155484   4.162   3.826   7.521
18414WAT     H255485   4.162   3.669   7.566
18415WAT      O55486   2.139   0.300   1.298
18415WAT     H155487   2.148   0.366   1.373
18415WAT     H255488   2.112   0.211   1.334
18416WAT      O55489   0.131   4.995   2.675
18416WAT     H155490   0.145   5.012   2.773
18416WAT     H255491   0.095   5.077   2.632
18417WAT      O55492   8.820   1.979   9.663
18417WAT     H155493   8.899   1.920   9.679
18417WAT     H255494   8.850   2.060   9.612
18418WAT      O55495   5.212   7.005   6.822
18418WAT     H155496   5.253   6.986   6.733
18418WAT     H255497   5.282   6.996   6.893
18419WAT      O55498   2.729   6.477   5.039
18419WAT     H155499   2.717   6.536   5.119
18419WAT     H255500   2.659   6.405   5.040
18420WAT      O55501   1.648   8.780   8.657
18420WAT     H155502   1.619   8.834   8.736
18420WAT     H255503   1.685   8.692   8.688
18421WAT      O55504   5.044   2.811   9.138
18421WAT     H155505   4.973   2.744   9.159
18421WAT     H255506   5.064   2.864   9.220
18422WAT      O55507   0.234   6.214   2.500
18422WAT     H155508   0.210   6.303   2.461
18422WAT     H255509   0.171   6.193   2.575
18423WAT      O55510   7.766   7.269   4.742
18423WAT     H155511   7.765   7.361   4.780
18423WAT     H255512   7.704   7.265   4.663
18424WAT      O55513   6.179   1.134   6.271
18424WAT     H155514   6.080   1.147   6.269
18424WAT     H255515   6.221   1.209   6.322
18425WAT      O55516   0.901   9.227   2.341
18425WAT     H155517   0.876   9.296   2.409
18425WAT     H255518   0.995   9.198   2.355
18426WAT      O55519   4.823   4.730   9.039
18426WAT     H155520   4.803   4.640   9.078
18426WAT     H255521   4.770   4.742   8.954
18427WAT      O55522   8.962   7.671   5.699
18427WAT     H155523   9.037   7.667   5.766
18427WAT     H255524   8.875   7.657   5.745
18428WAT      O55525   4.414   5.397   2.047
18428WAT     H155526   4.457   5.343   2.120
18428WAT     H255527   4.376   5.335   1.979
18429WAT      O55528   8.095   8.944   0.720
18429WAT     H155529   8.092   9.026   0.664
18429WAT     H255530   8.138   8.870   0.668
18430WAT      O55531   4.535   4.963   1.080
18430WAT     H155532   4.582   4.929   1.161
18430WAT     H255533   4.466   5.031   1.107
18431WAT      O55534   2.786   4.341   8.414
18431WAT     H155535   2.695   4.367   8.446
18431WAT     H255536   2.785   4.246   8.383
18432WAT      O55537   1.978   1.728   0.092
18432WAT     H155538   2.069   1.756   0.064
18432WAT     H255539   1.978   1.630   0.113
18433WAT      O55540   5.698   1.728   0.114
18433WAT     H155541   5.651   1.696   0.197
18433WAT     H255542   5.633   1.733   0.039
18434WAT      O55543   5.538   8.020   7.789
18434WAT     H155544   5.460   7.965   7.816
18434WAT     H255545   5.596   8.038   7.869
18435WAT      O55546   1.441   7.476   8.328
18435WAT     H155547   1.514   7.458   8.263
18435WAT     H255548   1.353   7.456   8.286
18436WAT      O55549   4.114   9.009   2.807
18436WAT     H155550   4.153   9.093   2.846
18436WAT     H255551   4.185   8.939   2.800
18437WAT      O55552   1.779   2.375   4.920
18437WAT     H155553   1.754   2.305   4.987
18437WAT     H255554   1.837   2.335   4.849
18438WAT      O55555   6.583   6.441   4.326
18438WAT     H155556   6.588   6.523   4.269
18438WAT     H255557   6.664   6.384   4.311
18439WAT      O55558   1.030   4.259   8.875
18439WAT     H155559   1.058   4.321   8.948
18439WAT     H255560   1.108   4.238   8.817
18440WAT      O55561   5.669   9.719   1.997
18440WAT     H155562   5.611   9.643   2.026
18440WAT     H255563   5.752   9.684   1.954
18441WAT      O55564   9.098   1.223   9.614
18441WAT     H155565   9.083   1.318   9.587
18441WAT     H255566   9.189   1.213   9.654
18442WAT      O55567   7.400   3.444   8.357
18442WAT     H155568   7.345   3.441   8.440
18442WAT     H255569   7.398   3.354   8.313
18443WAT      O55570   4.805   2.927   1.944
18443WAT     H155571   4.875   2.918   1.874
18443WAT     H255572   4.837   2.989   2.016
18444WAT      O55573   0.598   4.842   1.974
18444WAT     H155574   0.616   4.753   2.016
18444WAT     H255575   0.503   4.869   1.991
18445WAT      O55576   0.161   7.649   5.094
18445WAT     H155577   0.128   7.586   5.023
18445WAT     H255578   0.259   7.637   5.106
18446WAT      O55579   3.007   0.824   9.430
18446WAT     H155580   2.999   0.727   9.408
18446WAT     H255581   2.923   0.871   9.407
18447WAT      O55582   9.034   6.216   9.831
18447WAT     H155583   8.952   6.159   9.830
18447WAT     H255584   9.087   6.198   9.913
18448WAT      O55585   1.603   5.178   4.158
18448WAT     H155586   1.698   5.193   4.185
18448WAT     H255587   1.546   5.251   4.195
18449WAT      O55588   2.271   4.879   4.709
18449WAT     H155589   2.196   4.815   4.696
18449WAT     H255590   2.273   4.908   4.805
18450WAT      O55591   7.812   7.174   1.041
18450WAT     H155592   7.785   7.267   1.068
18450WAT     H255593   7.785   7.109   1.112
18451WAT      O55594   9.310   2.557   9.341
18451WAT     H155595   9.276   2.468   9.373
18451WAT     H255596   9.251   2.630   9.378
18452WAT      O55597   0.139   2.444   0.944
18452WAT     H155598   0.184   2.441   0.855
18452WAT     H255599   0.150   2.355   0.990
18453WAT      O55600   5.265   9.822   7.863
18453WAT     H155601   5.315   9.782   7.786
18453WAT     H255602   5.311   9.905   7.893
18454WAT      O55603   3.675   0.819   9.462
18454WAT     H155604   3.658   0.721   9.454
18454WAT     H255605   3.615   0.858   9.532
18455WAT      O55606   8.780   8.113   0.914
18455WAT     H155607   8.706   8.158   0.963
18455WAT     H255608   8.849   8.081   0.980
18456WAT      O55609   1.012   3.782   8.404
18456WAT     H155610   1.061   3.737   8.478
18456WAT     H255611   0.914   3.761   8.411
18457WAT      O55612   1.635   5.909   7.703
18457WAT     H155613   1.599   5.830   7.753
18457WAT     H255614   1.590   5.992   7.735
18458WAT      O55615   3.503   7.922   0.467
18458WAT     H155616   3.490   7.913   0.565
18458WAT     H255617   3.513   8.018   0.442
18459WAT      O55618   0.471   8.041   3.837
18459WAT     H155619   0.448   8.116   3.774
18459WAT     H255620   0.388   8.006   3.879
18460WAT      O55621   8.027   7.062   5.473
18460WAT     H155622   8.052   6.973   5.435
18460WAT     H255623   8.074   7.134   5.421
18461WAT      O55624   8.967   5.164   9.494
18461WAT     H155625   8.931   5.090   9.551
18461WAT     H255626   9.066   5.164   9.499
18462WAT      O55627   9.515   4.791   1.076
18462WAT     H155628   9.503   4.759   0.982
18462WAT     H255629   9.611   4.781   1.102
18463WAT      O55630   9.464   6.078   5.597
18463WAT     H155631   9.478   5.991   5.550
18463WAT     H255632   9.429   6.062   5.689
18464WAT      O55633   3.512   7.359   1.821
18464WAT     H155634   3.606   7.388   1.802
18464WAT     H255635   3.513   7.283   1.886
18465WAT      O55636   1.590   1.611   6.733
18465WAT     H155637   1.535   1.674   6.788
18465WAT     H255638   1.687   1.628   6.749
18466WAT      O55639   3.046   5.298   1.187
18466WAT     H155640   2.970   5.363   1.177
18466WAT     H255641   3.110   5.334   1.255
18467WAT      O55642   4.335   9.128   4.263
18467WAT     H155643   4.384   9.041   4.259
18467WAT     H255644   4.237   9.111   4.269
18468WAT      O55645   7.363   9.337   9.787
18468WAT     H155646   7.446   9.336   9.842
18468WAT     H255647   7.382   9.299   9.696
18469WAT      O55648   3.971   2.950   5.296
18469WAT     H155649   3.939   2.975   5.205
18469WAT     H255650   4.038   2.877   5.290
18470WAT      O55651   7.065   0.206   2.073
18470WAT     H155652   6.972   0.244   2.077
18470WAT     H255653   7.107   0.211   2.164
18471WAT      O55654   3.535   9.651   4.854
18471WAT     H155655   3.479   9.572   4.879
18471WAT     H255656   3.501   9.732   4.902
18472WAT      O55657   7.820   0.645   7.417
18472WAT     H155658   7.857   0.706   7.487
18472WAT     H255659   7.731   0.678   7.388
18473WAT      O55660   2.148   5.591   3.488
18473WAT     H155661   2.075   5.639   3.441
18473WAT     H255662   2.182   5.516   3.430
18474WAT      O55663   6.282   9.139   8.660
18474WAT     H155664   6.254   9.044   8.664
18474WAT     H255665   6.308   9.171   8.751
18475WAT      O55666   8.601   9.692   5.837
18475WAT     H155667   8.626   9.752   5.761
18475WAT     H255668   8.501   9.680   5.839
18476WAT      O55669   1.491   0.498   2.921
18476WAT     H155670   1.561   0.565   2.946
18476WAT     H255671   1.411   0.546   2.885
18477WAT      O55672   0.130   1.803   8.683
18477WAT     H155673   0.031   1.792   8.694
18477WAT     H255674   0.176   1.717   8.706
18478WAT      O55675   2.284   2.182   7.575
18478WAT     H155676   2.311   2.142   7.662
18478WAT     H255677   2.359   2.237   7.539
18479WAT      O55678   9.196   8.522   7.898
18479WAT     H155679   9.134   8.599   7.913
18479WAT     H255680   9.189   8.491   7.804
18480WAT      O55681   9.135   1.281   9.165
18480WAT     H155682   9.209   1.231   9.209
18480WAT     H255683   9.119   1.367   9.214
18481WAT      O55684   7.358   9.275   3.687
18481WAT     H155685   7.296   9.340   3.731
18481WAT     H255686   7.439   9.261   3.744
18482WAT      O55687   5.529   4.536   6.144
18482WAT     H155688   5.494   4.573   6.230
18482WAT     H255689   5.567   4.610   6.089
18483WAT      O55690   5.457   5.295   0.526
18483WAT     H155691   5.519   5.254   0.593
18483WAT     H255692   5.441   5.230   0.452
18484WAT      O55693   5.885   8.747   3.824
18484WAT     H155694   5.923   8.839   3.836
18484WAT     H255695   5.865   8.708   3.913
18485WAT      O55696   5.052   0.418   6.114
18485WAT     H155697   5.116   0.437   6.189
18485WAT     H255698   4.983   0.353   6.145
18486WAT      O55699   3.936   8.153   5.140
18486WAT     H155700   3.933   8.058   5.170
18486WAT     H255701   3.842   8.189   5.137
18487WAT      O55702   9.096   3.297   3.058
18487WAT     H155703   9.055   3.328   3.143
18487WAT     H255704   9.087   3.369   2.989
18488WAT      O55705   5.554   0.641   7.946
18488WAT     H155706   5.504   0.565   7.903
18488WAT     H255707   5.548   0.722   7.888
18489WAT      O55708   0.186   4.252   3.037
18489WAT     H155709   0.238   4.274   2.954
18489WAT     H255710   0.090   4.237   3.013
18490WAT      O55711   3.541   4.821   2.533
18490WAT     H155712   3.476   4.813   2.457
18490WAT     H255713   3.552   4.918   2.557
18491WAT      O55714   6.096   4.054   0.956
18491WAT     H155715   6.140   4.063   1.046
18491WAT     H255716   6.118   4.134   0.900
18492WAT      O55717   4.203   5.566   8.467
18492WAT     H155718   4.296   5.603   8.460
18492WAT     H255719   4.201   5.491   8.533
18493WAT      O55720   7.167   0.404   8.682
18493WAT     H155721   7.176   0.329   8.748
18493WAT     H255722   7.174   0.491   8.730
18494WAT      O55723   8.581   2.556   4.590
18494WAT     H155724   8.539   2.476   4.633
18494WAT     H255725   8.548   2.564   4.496
18495WAT      O55726   8.300   1.450   9.193
18495WAT     H155727   8.328   1.403   9.277
18495WAT     H255728   8.244   1.388   9.138
18496WAT      O55729   8.252   8.075   2.480
18496WAT     H155730   8.155   8.049   2.476
18496WAT     H255731   8.308   7.998   2.448
18497WAT      O55732   7.602   7.519   7.245
18497WAT     H155733   7.626   7.436   7.295
18497WAT     H255734   7.668   7.591   7.267
18498WAT      O55735   0.100   2.896   8.995
18498WAT     H155736   0.006   2.929   8.999
18498WAT     H255737   0.108   2.809   9.045
18499WAT      O55738   4.773   5.287   2.750
18499WAT     H155739   4.762   5.242   2.661
18499WAT     H255740   4.756   5.385   2.739
18500WAT      O55741   9.441   5.855   0.563
18500WAT     H155742   9.367   5.789   0.571
18500WAT     H255743   9.407   5.938   0.518
18501WAT      O55744   5.184   1.398   9.220
18501WAT     H155745   5.128   1.321   9.250
18501WAT     H255746   5.245   1.427   9.294
18502WAT      O55747   6.754   9.209   1.394
18502WAT     H155748   6.727   9.122   1.435
18502WAT     H255749   6.684   9.238   1.329
18503WAT      O55750   4.925   0.804   9.805
18503WAT     H155751   4.906   0.729   9.868
18503WAT     H255752   5.003   0.857   9.839
18504WAT      O55753   4.692   2.725   4.235
18504WAT     H155754   4.605   2.682   4.213
18504WAT     H255755   4.732   2.681   4.315
18505WAT      O55756   0.528   5.451   7.563
18505WAT     H155757   0.626   5.456   7.579
18505WAT     H255758   0.488   5.382   7.623
18506WAT      O55759   1.236   9.174   6.599
18506WAT     H155760   1.292   9.179   6.682
18506WAT     H255761   1.183   9.257   6.589
18507WAT      O55762   0.246   1.415   2.563
18507WAT     H155763   0.155   1.446   2.535
18507WAT     H255764   0.299   1.390   2.482
18508WAT      O55765   0.053   4.996   3.696
18508WAT     H155766  -0.010   4.941   3.642
18508WAT     H255767   0.068   5.084   3.650
18509WAT      O55768   6.444   8.701   7.983
18509WAT     H155769   6.526   8.723   7.929
18509WAT     H255770   6.367   8.686   7.921
18510WAT      O55771   3.001   6.290   3.168
18510WAT     H155772   3.032   6.293   3.073
18510WAT     H255773   2.917   6.235   3.173
18511WAT      O55774   0.321   3.700   1.489
18511WAT     H155775   0.402   3.756   1.503
18511WAT     H255776   0.239   3.757   1.500
18512WAT      O55777   2.284   2.562   8.329
18512WAT     H155778   2.354   2.617   8.283
18512WAT     H255779   2.323   2.519   8.410
18513WAT      O55780   1.338   6.552   7.246
18513WAT     H155781   1.269   6.624   7.243
18513WAT     H255782   1.340   6.512   7.338
18514WAT      O55783   7.894   8.055   4.644
18514WAT     H155784   7.895   7.957   4.626
18514WAT     H255785   7.800   8.089   4.638
18515WAT      O55786   7.729   5.728   4.016
18515WAT     H155787   7.703   5.734   4.113
18515WAT     H255788   7.721   5.634   3.985
18516WAT      O55789   4.694   3.288   0.317
18516WAT     H155790   4.687   3.372   0.264
18516WAT     H255791   4.641   3.216   0.272
18517WAT      O55792   9.837   6.552   3.972
18517WAT     H155793   9.854   6.503   3.887
18517WAT     H255794   9.877   6.644   3.967
18518WAT      O55795   0.806   8.587   8.275
18518WAT     H155796   0.872   8.604   8.348
18518WAT     H255797   0.810   8.491   8.248
18519WAT      O55798   6.829   3.677   2.120
18519WAT     H155799   6.836   3.772   2.091
18519WAT     H255800   6.754   3.667   2.186
18520WAT      O55801   0.061   7.027   9.532
18520WAT     H155802   0.027   6.979   9.613
18520WAT     H255803  -0.015   7.068   9.483
18521WAT      O55804   5.469   3.960   2.468
18521WAT     H155805   5.483   4.012   2.384
18521WAT     H255806   5.539   3.985   2.535
18522WAT      O55807   9.686   1.289   9.459
18522WAT     H155808   9.754   1.272   9.387
18522WAT     H255809   9.732   1.299   9.546
18523WAT      O55810   3.472   9.285   4.692
18523WAT     H155811   3.568   9.309   4.682
18523WAT     H255812   3.464   9.186   4.705
18524WAT      O55813   7.788   7.764   2.832
18524WAT     H155814   7.698   7.798   2.806
18524WAT     H255815   7.857   7.833   2.810
18525WAT      O55816   5.611   8.534   8.133
18525WAT     H155817   5.522   8.508   8.171
18525WAT     H255818   5.618   8.501   8.039
18526WAT      O55819   1.653   0.977   3.028
18526WAT     H155820   1.560   0.991   2.995
18526WAT     H255821   1.718   1.017   2.963
18527WAT      O55822   5.192   3.547   6.434
18527WAT     H155823   5.233   3.462   6.398
18527WAT     H255824   5.172   3.536   6.531
18528WAT      O55825   4.180   2.459   9.368
18528WAT     H155826   4.209   2.518   9.293
18528WAT     H255827   4.223   2.489   9.453
18529WAT      O55828   9.456   4.263   2.750
18529WAT     H155829   9.422   4.303   2.835
18529WAT     H255830   9.495   4.173   2.768
18530WAT      O55831   6.756   4.210   7.573
18530WAT     H155832   6.671   4.241   7.531
18530WAT     H255833   6.765   4.251   7.663
18531WAT      O55834   5.195   1.150   3.347
18531WAT     H155835   5.117   1.158   3.409
18531WAT     H255836   5.205   1.055   3.318
18532WAT      O55837   6.706   7.262   2.291
18532WAT     H155838   6.786   7.285   2.236
18532WAT     H255839   6.698   7.327   2.367
18533WAT      O55840   4.512   2.626   7.764
18533WAT     H155841   4.476   2.534   7.752
18533WAT     H255842   4.459   2.690   7.709
18534WAT      O55843   3.017   6.646   7.973
18534WAT     H155844   2.941   6.586   7.996
18534WAT     H255845   3.014   6.668   7.876
18535WAT      O55846   9.449   1.630   6.079
18535WAT     H155847   9.353   1.605   6.066
18535WAT     H255848   9.459   1.683   6.164
18536WAT      O55849   8.181   6.788   1.227
18536WAT     H155850   8.125   6.760   1.149
18536WAT     H255851   8.150   6.740   1.309
18537WAT      O55852   7.847   2.076   8.914
18537WAT     H155853   7.770   2.023   8.879
18537WAT     H255854   7.878   2.038   9.001
18538WAT      O55855   7.028   0.728   5.977
18538WAT     H155856   7.081   0.759   5.898
18538WAT     H255857   7.085   0.730   6.059
18539WAT      O55858   3.340   0.071   8.283
18539WAT     H155859   3.290   0.000   8.334
18539WAT     H255860   3.430   0.036   8.260
18540WAT      O55861   7.730   9.335   5.632
18540WAT     H155862   7.762   9.428   5.646
18540WAT     H255863   7.630   9.334   5.631
18541WAT      O55864   0.766   8.897   2.792
18541WAT     H155865   0.783   8.810   2.837
18541WAT     H255866   0.841   8.961   2.813
18542WAT      O55867   0.200   1.586   9.415
18542WAT     H155868   0.114   1.571   9.367
18542WAT     H255869   0.273   1.534   9.370
18543WAT      O55870   7.524   4.940   7.180
18543WAT     H155871   7.595   4.979   7.121
18543WAT     H255872   7.565   4.872   7.241
18544WAT      O55873   6.762   3.056   5.699
18544WAT     H155874   6.724   3.012   5.618
18544WAT     H255875   6.858   3.080   5.683
18545WAT      O55876   1.793   4.141   1.101
18545WAT     H155877   1.696   4.129   1.122
18545WAT     H255878   1.840   4.177   1.181
18546WAT      O55879   0.572   6.470   6.973
18546WAT     H155880   0.491   6.523   6.950
18546WAT     H255881   0.628   6.456   6.891
18547WAT      O55882   1.949   8.735   8.371
18547WAT     H155883   1.853   8.712   8.355
18547WAT     H255884   1.955   8.810   8.437
18548WAT      O55885   1.503   0.049   2.516
18548WAT     H155886   1.510   0.132   2.460
18548WAT     H255887   1.428   0.060   2.582
18549WAT      O55888   1.295   9.746   0.710
18549WAT     H155889   1.249   9.832   0.732
18549WAT     H255890   1.226   9.674   0.698
18550WAT      O55891   2.951   3.743   2.961
18550WAT     H155892   2.896   3.713   3.039
18550WAT     H255893   2.992   3.663   2.917
18551WAT      O55894   2.600   8.027   9.424
18551WAT     H155895   2.538   8.092   9.466
18551WAT     H255896   2.565   8.001   9.334
18552WAT      O55897   3.714   3.421   8.039
18552WAT     H155898   3.693   3.459   8.129
18552WAT     H255899   3.682   3.484   7.968
18553WAT      O55900   5.404   2.038   2.739
18553WAT     H155901   5.406   2.108   2.811
18553WAT     H255902   5.488   1.984   2.744
18554WAT      O55903   0.982   7.987   2.437
18554WAT     H155904   1.079   7.962   2.431
18554WAT     H255905   0.951   8.019   2.348
18555WAT      O55906   7.343   8.188   3.206
18555WAT     H155907   7.423   8.136   3.176
18555WAT     H255908   7.286   8.129   3.263
18556WAT      O55909   7.730   5.010   9.336
18556WAT     H155910   7.766   4.953   9.263
18556WAT     H255911   7.646   4.970   9.372
18557WAT      O55912   6.581   2.287   8.425
18557WAT     H155913   6.678   2.311   8.429
18557WAT     H255914   6.548   2.295   8.331
18558WAT      O55915   9.883   7.824   5.581
18558WAT     H155916   9.892   7.907   5.526
18558WAT     H255917   9.967   7.810   5.634
18559WAT      O55918   2.070   7.516   8.880
18559WAT     H155919   2.029   7.608   8.887
18559WAT     H255920   2.035   7.471   8.798
18560WAT      O55921   2.570   5.367   5.882
18560WAT     H155922   2.619   5.295   5.832
18560WAT     H255923   2.542   5.438   5.818
18561WAT      O55924   4.404   6.329   8.210
18561WAT     H155925   4.367   6.258   8.270
18561WAT     H255926   4.485   6.293   8.163
18562WAT      O55927   5.369   5.761   6.769
18562WAT     H155928   5.374   5.755   6.869
18562WAT     H255929   5.373   5.857   6.742
18563WAT      O55930   3.812   8.751   3.069
18563WAT     H155931   3.879   8.780   3.138
18563WAT     H255932   3.851   8.676   3.015
18564WAT      O55933   0.617   9.030   1.307
18564WAT     H155934   0.555   9.069   1.376
18564WAT     H255935   0.591   9.063   1.217
18565WAT      O55936   7.195   4.805   2.351
18565WAT     H155937   7.280   4.802   2.404
18565WAT     H255938   7.147   4.717   2.360
18566WAT      O55939   5.973   7.591   1.554
18566WAT     H155940   6.042   7.662   1.573
18566WAT     H255941   5.966   7.530   1.633
18567WAT      O55942   3.300   6.578   2.436
18567WAT     H155943   3.245   6.650   2.394
18567WAT     H255944   3.396   6.607   2.438
18568WAT      O55945   9.428   9.184   3.768
18568WAT     H155946   9.462   9.126   3.843
18568WAT     H255947   9.350   9.140   3.725
18569WAT      O55948   0.673   1.494   8.139
18569WAT     H155949   0.675   1.592   8.160
18569WAT     H255950   0.579   1.463   8.132
18570WAT      O55951   1.157   1.626   6.749
18570WAT     H155952   1.204   1.610   6.836
18570WAT     H255953   1.067   1.666   6.767
18571WAT      O55954   1.087   0.391   9.502
18571WAT     H155955   1.111   0.469   9.561
18571WAT     H255956   0.995   0.403   9.467
18572WAT      O55957   9.363   0.329   8.501
18572WAT     H155958   9.404   0.392   8.567
18572WAT     H255959   9.304   0.264   8.550
18573WAT      O55960   1.984   1.921   7.911
18573WAT     H155961   2.024   1.989   7.972
18573WAT     H255962   1.962   1.963   7.823
18574WAT      O55963   3.498   4.833   3.423
18574WAT     H155964   3.523   4.738   3.405
18574WAT     H255965   3.466   4.842   3.517
18575WAT      O55966   7.181   4.881   9.311
18575WAT     H155967   7.259   4.941   9.329
18575WAT     H255968   7.131   4.864   9.396
18576WAT      O55969   2.249   8.301   9.431
18576WAT     H155970   2.274   8.281   9.336
18576WAT     H255971   2.184   8.377   9.433
18577WAT      O55972   7.239   8.643   2.169
18577WAT     H155973   7.253   8.684   2.259
18577WAT     H255974   7.195   8.554   2.179
18578WAT      O55975   5.460   7.724   6.907
18578WAT     H155976   5.375   7.756   6.949
18578WAT     H255977   5.530   7.794   6.918
18579WAT      O55978   9.714   5.016   8.351
18579WAT     H155979   9.737   5.073   8.430
18579WAT     H255980   9.736   4.921   8.371
18580WAT      O55981   9.122   2.058   1.518
18580WAT     H155982   9.139   1.964   1.490
18580WAT     H255983   9.034   2.089   1.480
18581WAT      O55984   7.303   9.267   8.168
18581WAT     H155985   7.328   9.336   8.235
18581WAT     H255986   7.203   9.262   8.160
18582WAT      O55987   9.567   5.655   3.309
18582WAT     H155988   9.529   5.701   3.229
18582WAT     H255989   9.522   5.567   3.321
18583WAT      O55990   7.082   4.710   2.627
18583WAT     H155991   7.096   4.662   2.541
18583WAT     H255992   6.999   4.765   2.622
18584WAT      O55993   6.636   4.822   4.500
18584WAT     H155994   6.648   4.769   4.416
18584WAT     H255995   6.538   4.828   4.521
18585WAT      O55996   4.485   8.947   8.997
18585WAT     H155997   4.548   8.994   8.935
18585WAT     H255998   4.537   8.906   9.072
18586WAT      O55999   6.009   0.266   4.463
18586WAT     H156000   6.083   0.225   4.410
18586WAT     H256001   6.042   0.350   4.506
18587WAT      O56002   3.927   4.119   2.917
18587WAT     H156003   4.010   4.175   2.919
18587WAT     H256004   3.858   4.160   2.976
18588WAT      O56005   4.179   7.905   4.855
18588WAT     H156006   4.110   7.974   4.833
18588WAT     H256007   4.177   7.887   4.953
18589WAT      O56008   9.476   9.507   6.233
18589WAT     H156009   9.440   9.479   6.322
18589WAT     H256010   9.444   9.599   6.211
18590WAT      O56011   9.806   5.423   9.835
18590WAT     H156012   9.778   5.519   9.830
18590WAT     H256013   9.755   5.378   9.908
18591WAT      O56014   2.791   1.396   0.235
18591WAT     H156015   2.879   1.368   0.200
18591WAT     H256016   2.796   1.406   0.335
18592WAT      O56017   3.371   7.797   2.132
18592WAT     H156018   3.394   7.789   2.229
18592WAT     H256019   3.426   7.869   2.090
18593WAT      O56020   3.293   2.897   2.428
18593WAT     H156021   3.371   2.867   2.482
18593WAT     H256022   3.231   2.950   2.486
18594WAT      O56023   2.766   0.566   1.735
18594WAT     H156024   2.715   0.573   1.820
18594WAT     H256025   2.836   0.638   1.733
18595WAT      O56026   4.683   6.123   5.914
18595WAT     H156027   4.600   6.089   5.957
18595WAT     H256028   4.743   6.163   5.983
18596WAT      O56029   5.351   3.660   2.714
18596WAT     H156030   5.400   3.634   2.798
18596WAT     H256031   5.319   3.577   2.668
18597WAT      O56032   2.527   6.191   4.780
18597WAT     H156033   2.444   6.245   4.794
18597WAT     H256034   2.574   6.223   4.697
18598WAT      O56035   0.819   5.595   0.040
18598WAT     H156036   0.731   5.565   0.001
18598WAT     H256037   0.803   5.639   0.128
18599WAT      O56038   6.732   7.413   2.512
18599WAT     H156039   6.652   7.377   2.561
18599WAT     H256040   6.723   7.511   2.500
18600WAT      O56041   8.628   5.078   5.668
18600WAT     H156042   8.710   5.056   5.719
18600WAT     H256043   8.604   5.002   5.607
18601WAT      O56044   9.888   9.425   2.013
18601WAT     H156045   9.851   9.427   1.920
18601WAT     H256046   9.892   9.331   2.045
18602WAT      O56047   2.788   1.426   1.381
18602WAT     H156048   2.758   1.417   1.476
18602WAT     H256049   2.885   1.449   1.378
18603WAT      O56050   5.329   7.893   5.350
18603WAT     H156051   5.317   7.874   5.447
18603WAT     H256052   5.248   7.864   5.300
18604WAT      O56053   4.135   3.054   6.921
18604WAT     H156054   4.156   3.150   6.904
18604WAT     H256055   4.057   3.026   6.864
18605WAT      O56056   1.348   5.339   2.718
18605WAT     H156057   1.264   5.380   2.684
18605WAT     H256058   1.332   5.296   2.807
18606WAT      O56059   4.780   1.970   4.213
18606WAT     H156060   4.870   2.009   4.234
18606WAT     H256061   4.790   1.901   4.141
18607WAT      O56062   7.476   2.605   4.587
18607WAT     H156063   7.539   2.683   4.590
18607WAT     H256064   7.400   2.621   4.649
18608WAT      O56065   5.481   9.556   4.720
18608WAT     H156066   5.384   9.550   4.698
18608WAT     H256067   5.494   9.611   4.802
18609WAT      O56068   7.716   6.851   8.461
18609WAT     H156069   7.667   6.849   8.548
18609WAT     H256070   7.656   6.821   8.388
18610WAT      O56071   1.798   5.820   3.563
18610WAT     H156072   1.757   5.784   3.646
18610WAT     H256073   1.753   5.779   3.483
18611WAT      O56074   3.761   7.730   1.996
18611WAT     H156075   3.804   7.717   1.906
18611WAT     H256076   3.828   7.712   2.068
18612WAT      O56077   2.699   0.580   5.796
18612WAT     H156078   2.631   0.517   5.759
18612WAT     H256079   2.756   0.532   5.863
18613WAT      O56080   0.305   4.449   8.526
18613WAT     H156081   0.268   4.359   8.547
18613WAT     H256082   0.324   4.499   8.611
18614WAT      O56083   0.173   0.983   0.882
18614WAT     H156084   0.209   0.915   0.945
18614WAT     H256085   0.225   0.980   0.796
18615WAT      O56086   5.150   5.270   2.578
18615WAT     H156087   5.133   5.252   2.675
18615WAT     H256088   5.063   5.288   2.532
18616WAT      O56089   1.837   4.397   2.573
18616WAT     H156090   1.852   4.456   2.494
18616WAT     H256091   1.924   4.357   2.602
18617WAT      O56092   3.856   0.858   0.211
18617WAT     H156093   3.953   0.835   0.215
18617WAT     H256094   3.803   0.790   0.262
18618WAT      O56095   4.547   7.166   5.083
18618WAT     H156096   4.462   7.170   5.135
18618WAT     H256097   4.597   7.252   5.092
18619WAT      O56098   8.659   6.563   3.478
18619WAT     H156099   8.726   6.490   3.463
18619WAT     H256100   8.567   6.523   3.480
18620WAT      O56101   4.550   2.398   5.143
18620WAT     H156102   4.619   2.329   5.167
18620WAT     H256103   4.592   2.467   5.084
18621WAT      O56104   4.593   1.870   1.097
18621WAT     H156105   4.509   1.921   1.078
18621WAT     H256106   4.603   1.857   1.196
18622WAT      O56107   1.447   8.040   1.530
18622WAT     H156108   1.519   8.094   1.487
18622WAT     H256109   1.360   8.056   1.484
18623WAT      O56110   9.684   3.104   4.413
18623WAT     H156111   9.623   3.179   4.389
18623WAT     H256112   9.641   3.017   4.387
18624WAT      O56113   9.313   5.132   6.234
18624WAT     H156114   9.297   5.147   6.136
18624WAT     H256115   9.242   5.071   6.270
18625WAT      O56116   2.316   7.980   2.498
18625WAT     H156117   2.392   8.027   2.451
18625WAT     H256118   2.312   8.010   2.593
18626WAT      O56119   1.780   6.748   3.747
18626WAT     H156120   1.785   6.776   3.651
18626WAT     H256121   1.746   6.824   3.802
18627WAT      O56122   8.266   9.741   8.002
18627WAT     H156123   8.235   9.818   8.057
18627WAT     H256124   8.268   9.658   8.058
18628WAT      O56125   3.344   8.498   1.730
18628WAT     H156126   3.404   8.482   1.808
18628WAT     H256127   3.385   8.568   1.671
18629WAT      O56128   2.894   6.536   6.787
18629WAT     H156129   2.930   6.445   6.807
18629WAT     H256130   2.903   6.554   6.689
18630WAT      O56131   1.880   3.617   3.215
18630WAT     H156132   1.815   3.641   3.144
18630WAT     H256133   1.848   3.653   3.303
18631WAT      O56134   6.400   7.168   4.902
18631WAT     H156135   6.395   7.169   4.802
18631WAT     H256136   6.424   7.259   4.935
18632WAT      O56137   9.777   8.396   8.389
18632WAT     H156138   9.711   8.450   8.335
18632WAT     H256139   9.771   8.423   8.485
18633WAT      O56140   2.938   2.059   3.205
18633WAT     H156141   2.886   2.028   3.125
18633WAT     H256142   2.874   2.078   3.280
18634WAT      O56143   5.717   0.706   4.161
18634WAT     H156144   5.707   0.655   4.076
18634WAT     H256145   5.650   0.780   4.163
18635WAT      O56146   3.175   2.641   8.568
18635WAT     H156147   3.236   2.713   8.600
18635WAT     H256148   3.167   2.571   8.639
18636WAT      O56149   1.638   3.908   0.553
18636WAT     H156150   1.703   3.937   0.483
18636WAT     H256151   1.604   3.816   0.532
18637WAT      O56152   3.379   4.556   5.819
18637WAT     H156153   3.386   4.475   5.762
18637WAT     H256154   3.392   4.638   5.763
18638WAT      O56155   6.927   0.620   5.133
18638WAT     H156156   6.959   0.528   5.156
18638WAT     H256157   6.862   0.614   5.057
18639WAT      O56158   8.156   6.510   0.451
18639WAT     H156159   8.080   6.528   0.513
18639WAT     H256160   8.219   6.588   0.451
18640WAT      O56161   0.198   8.462   7.178
18640WAT     H156162   0.151   8.540   7.219
18640WAT     H256163   0.154   8.438   7.092
18641WAT      O56164   7.354   4.524   8.452
18641WAT     H156165   7.436   4.507   8.398
18641WAT     H256166   7.311   4.609   8.421
18642WAT      O56167   5.269   5.795   1.068
18642WAT     H156168   5.242   5.773   1.162
18642WAT     H256169   5.297   5.711   1.021
18643WAT      O56170   0.316   4.815   9.114
18643WAT     H156171   0.242   4.751   9.096
18643WAT     H256172   0.281   4.892   9.168
18644WAT      O56173   0.209   7.567   1.527
18644WAT     H156174   0.132   7.504   1.532
18644WAT     H256175   0.240   7.575   1.432
18645WAT      O56176   9.357   5.867   7.321
18645WAT     H156177   9.260   5.861   7.343
18645WAT     H256178   9.410   5.820   7.392
18646WAT      O56179   9.068   6.798   1.386
18646WAT     H156180   9.042   6.709   1.423
18646WAT     H256181   9.120   6.849   1.455
18647WAT      O56182   2.667   3.664   1.828
18647WAT     H156183   2.601   3.737   1.807
18647WAT     H256184   2.691   3.616   1.743
18648WAT      O56185   8.171   7.551   5.607
18648WAT     H156186   8.131   7.529   5.696
18648WAT     H256187   8.137   7.640   5.576
18649WAT      O56188   3.451   3.890   8.292
18649WAT     H156189   3.541   3.864   8.326
18649WAT     H256190   3.449   3.989   8.274
18650WAT      O56191   5.079   7.889   5.195
18650WAT     H156192   5.134   7.867   5.114
18650WAT     H256193   5.090   7.986   5.217
18651WAT      O56194   5.270   2.987   1.300
18651WAT     H156195   5.195   2.957   1.241
18651WAT     H256196   5.332   3.045   1.248
18652WAT      O56197   6.769   8.262   9.823
18652WAT     H156198   6.674   8.261   9.854
18652WAT     H256199   6.827   8.225   9.895
18653WAT      O56200   3.229   8.981   7.638
18653WAT     H156201   3.172   8.918   7.585
18653WAT     H256202   3.318   8.940   7.655
18654WAT      O56203   4.949   9.836   5.355
18654WAT     H156204   4.915   9.928   5.334
18654WAT     H256205   4.992   9.835   5.445
18655WAT      O56206   6.030   6.674   7.102
18655WAT     H156207   5.976   6.735   7.160
18655WAT     H256208   5.975   6.643   7.025
18656WAT      O56209   1.711   5.140   2.974
18656WAT     H156210   1.735   5.120   3.069
18656WAT     H256211   1.790   5.120   2.915
18657WAT      O56212   8.281   9.400   0.630
18657WAT     H156213   8.220   9.419   0.707
18657WAT     H256214   8.339   9.322   0.652
18658WAT      O56215   7.452   3.391   5.217
18658WAT     H156216   7.544   3.426   5.199
18658WAT     H256217   7.384   3.452   5.176
18659WAT      O56218   5.240   7.353   9.467
18659WAT     H156219   5.256   7.421   9.538
18659WAT     H256220   5.178   7.283   9.501
18660WAT      O56221   9.587   7.356   8.752
18660WAT     H156222   9.544   7.424   8.693
18660WAT     H256223   9.666   7.316   8.706
18661WAT      O56224   7.351   2.858   0.434
18661WAT     H156225   7.444   2.858   0.470
18661WAT     H256226   7.339   2.780   0.372
18662WAT      O56227   0.861   2.408   1.770
18662WAT     H156228   0.915   2.446   1.695
18662WAT     H256229   0.775   2.459   1.778
18663WAT      O56230   0.959   9.085   9.452
18663WAT     H156231   0.891   9.157   9.437
18663WAT     H256232   1.014   9.108   9.532
18664WAT      O56233   7.627   0.715   3.166
18664WAT     H156234   7.628   0.616   3.183
18664WAT     H256235   7.674   0.735   3.080
18665WAT      O56236   9.196   1.757   4.710
18665WAT     H156237   9.102   1.731   4.690
18665WAT     H256238   9.207   1.771   4.808
18666WAT      O56239   3.412   4.584   8.367
18666WAT     H156240   3.456   4.673   8.380
18666WAT     H256241   3.471   4.526   8.310
18667WAT      O56242   6.455   8.382   4.679
18667WAT     H156243   6.510   8.401   4.598
18667WAT     H256244   6.359   8.376   4.652
18668WAT      O56245   1.732   7.075   5.144
18668WAT     H156246   1.811   7.033   5.099
18668WAT     H256247   1.649   7.024   5.120
18669WAT      O56248   2.056   9.269   2.772
18669WAT     H156249   1.964   9.306   2.777
18669WAT     H256250   2.091   9.280   2.679
18670WAT      O56251   3.273   3.576   7.363
18670WAT     H156252   3.331   3.501   7.332
18670WAT     H256253   3.329   3.647   7.405
18671WAT      O56254   9.081   8.721   7.487
18671WAT     H156255   9.088   8.622   7.478
18671WAT     H256256   9.156   8.765   7.436
18672WAT      O56257   0.074   6.482   3.093
18672WAT     H156258  -0.022   6.483   3.063
18672WAT     H256259   0.082   6.533   3.179
18673WAT      O56260   4.737   1.137   1.418
18673WAT     H156261   4.718   1.215   1.359
18673WAT     H256262   4.825   1.150   1.463
18674WAT      O56263   3.102   1.274   3.297
18674WAT     H156264   3.192   1.235   3.315
18674WAT     H256265   3.032   1.218   3.342
18675WAT      O56266   0.982   1.289   5.179
18675WAT     H156267   0.963   1.341   5.096
18675WAT     H256268   0.976   1.191   5.159
18676WAT      O56269   8.017   3.173   5.011
18676WAT     H156270   8.010   3.154   4.913
18676WAT     H256271   8.015   3.087   5.061
18677WAT      O56272   9.202   0.344   3.114
18677WAT     H156273   9.209   0.289   3.197
18677WAT     H256274   9.128   0.310   3.057
18678WAT      O56275   9.672   4.315   6.864
18678WAT     H156276   9.711   4.297   6.774
18678WAT     H256277   9.610   4.241   6.889
18679WAT      O56278   2.861   4.421   3.284
18679WAT     H156279   2.796   4.492   3.308
18679WAT     H256280   2.813   4.345   3.240
18680WAT      O56281   3.508   9.138   2.542
18680WAT     H156282   3.465   9.227   2.529
18680WAT     H256283   3.524   9.122   2.640
18681WAT      O56284   4.090   3.682  -0.000
18681WAT     H156285   4.162   3.654   0.064
18681WAT     H256286   4.024   3.741   0.046
18682WAT      O56287   8.003   9.620   8.841
18682WAT     H156288   8.020   9.704   8.893
18682WAT     H256289   7.910   9.622   8.805
18683WAT      O56290   6.697   5.656   1.259
18683WAT     H156291   6.752   5.604   1.325
18683WAT     H256292   6.673   5.745   1.298
18684WAT      O56293   6.029   3.017   0.271
18684WAT     H156294   6.064   3.110   0.280
18684WAT     H256295   5.930   3.017   0.284
18685WAT      O56296   9.034   1.670   3.791
18685WAT     H156297   9.050   1.587   3.738
18685WAT     H256298   8.949   1.713   3.759
18686WAT      O56299   2.444   5.811   1.731
18686WAT     H156300   2.462   5.733   1.671
18686WAT     H256301   2.530   5.850   1.762
18687WAT      O56302   2.491   5.658   9.387
18687WAT     H156303   2.422   5.647   9.458
18687WAT     H256304   2.497   5.574   9.333
18688WAT      O56305   1.923   0.040   4.809
18688WAT     H156306   1.936  -0.023   4.885
18688WAT     H256307   1.985   0.015   4.734
18689WAT      O56308   3.979   4.065   1.726
18689WAT     H156309   3.911   3.992   1.728
18689WAT     H256310   4.019   4.072   1.635
18690WAT      O56311   2.928   7.050   4.745
18690WAT     H156312   2.990   7.123   4.775
18690WAT     H256313   2.909   7.060   4.648
18691WAT      O56314   1.869   8.230   2.502
18691WAT     H156315   1.901   8.322   2.482
18691WAT     H256316   1.937   8.182   2.557
18692WAT      O56317   2.091   8.111   5.506
18692WAT     H156318   2.043   8.152   5.429
18692WAT     H256319   2.126   8.021   5.480
18693WAT      O56320   0.884   7.692   1.365
18693WAT     H156321   0.898   7.763   1.296
18693WAT     H256322   0.961   7.692   1.429
18694WAT      O56323   9.449   4.556   5.612
18694WAT     H156324   9.493   4.515   5.532
18694WAT     H256325   9.516   4.607   5.665
18695WAT      O56326   3.466   0.128   6.477
18695WAT     H156327   3.409   0.121   6.559
18695WAT     H256328   3.504   0.039   6.454
18696WAT      O56329   6.117   1.359   3.910
18696WAT     H156330   6.018   1.368   3.922
18696WAT     H256331   6.136   1.320   3.821
18697WAT      O56332   8.916   8.345   1.873
18697WAT     H156333   8.829   8.308   1.840
18697WAT     H256334   8.971   8.376   1.795
18698WAT      O56335   1.398   4.356   8.732
18698WAT     H156336   1.480   4.412   8.723
18698WAT     H256337   1.394   4.317   8.824
18699WAT      O56338   0.097   3.314   8.922
18699WAT     H156339   0.162   3.240   8.940
18699WAT     H256340   0.035   3.286   8.848
18700WAT      O56341   6.042   1.448   8.130
18700WAT     H156342   5.950   1.455   8.169
18700WAT     H256343   6.090   1.535   8.145
18701WAT      O56344   7.198   7.460   3.712
18701WAT     H156345   7.188   7.497   3.620
18701WAT     H256346   7.111   7.469   3.762
18702WAT      O56347   1.933   0.054   3.325
18702WAT     H156348   1.866   0.124   3.304
18702WAT     H256349   1.964   0.011   3.240
18703WAT      O56350   2.752   2.573   7.161
18703WAT     H156351   2.819   2.598   7.231
18703WAT     H256352   2.675   2.526   7.205
18704WAT      O56353   0.862   5.241   6.288
18704WAT     H156354   0.892   5.329   6.250
18704WAT     H256355   0.839   5.253   6.384
18705WAT      O56356   7.135   8.603   8.750
18705WAT     H156357   7.109   8.626   8.656
18705WAT     H256358   7.193   8.676   8.787
18706WAT      O56359   3.271   0.424   1.809
18706WAT     H156360   3.296   0.440   1.905
18706WAT     H256361   3.173   0.409   1.802
18707WAT      O56362   4.247   8.068   9.462
18707WAT     H156363   4.315   8.055   9.389
18707WAT     H256364   4.194   7.984   9.473
18708WAT      O56365   0.603   5.058   1.549
18708WAT     H156366   0.564   5.141   1.509
18708WAT     H256367   0.662   5.013   1.482
18709WAT      O56368   3.913   3.177   5.456
18709WAT     H156369   3.899   3.127   5.541
18709WAT     H256370   3.938   3.112   5.384
18710WAT      O56371   7.977   0.189   7.521
18710WAT     H156372   7.975   0.113   7.455
18710WAT     H256373   8.008   0.156   7.610
18711WAT      O56374   8.818   0.361   4.870
18711WAT     H156375   8.883   0.338   4.943
18711WAT     H256376   8.831   0.299   4.793
18712WAT      O56377   2.448   7.834   0.853
18712WAT     H156378   2.420   7.743   0.821
18712WAT     H256379   2.543   7.851   0.824
18713WAT      O56380   6.552   8.826   8.183
18713WAT     H156381   6.528   8.923   8.191
18713WAT     H256382   6.510   8.787   8.101
18714WAT      O56383   7.930   6.507   8.223
18714WAT     H156384   8.010   6.567   8.213
18714WAT     H256385   7.912   6.491   8.320
18715WAT      O56386   3.136   1.550   3.619
18715WAT     H156387   3.138   1.454   3.646
18715WAT     H256388   3.135   1.557   3.519
18716WAT      O56389   9.796   2.397   6.456
18716WAT     H156390   9.845   2.346   6.527
18716WAT     H256391   9.862   2.442   6.395
18717WAT      O56392   4.784   8.249   7.769
18717WAT     H156393   4.721   8.272   7.694
18717WAT     H256394   4.731   8.230   7.852
18718WAT      O56395   6.229   0.817   1.761
18718WAT     H156396   6.241   0.897   1.703
18718WAT     H256397   6.306   0.755   1.749
18719WAT      O56398   2.400   7.058   3.798
18719WAT     H156399   2.494   7.087   3.780
18719WAT     H256400   2.362   7.015   3.717
18720WAT      O56401   9.222   0.380   7.258
18720WAT     H156402   9.263   0.296   7.223
18720WAT     H256403   9.294   0.448   7.274
18721WAT      O56404   0.407   0.526   1.594
18721WAT     H156405   0.448   0.617   1.605
18721WAT     H256406   0.471   0.457   1.627
18722WAT      O56407   2.142   0.861   1.975
18722WAT     H156408   2.079   0.939   1.978
18722WAT     H256409   2.182   0.855   1.884
18723WAT      O56410   9.260   7.750   7.871
18723WAT     H156411   9.346   7.731   7.917
18723WAT     H256412   9.275   7.752   7.772
18724WAT      O56413   2.710   4.569   8.070
18724WAT     H156414   2.643   4.592   7.999
18724WAT     H256415   2.731   4.471   8.066
18725WAT      O56416   3.265   9.174   0.825
18725WAT     H156417   3.348   9.218   0.790
18725WAT     H256418   3.285   9.079   0.849
18726WAT      O56419   1.253   1.860   7.410
18726WAT     H156420   1.187   1.870   7.485
18726WAT     H256421   1.203   1.848   7.324
18727WAT      O56422   2.725   4.713   6.224
18727WAT     H156423   2.715   4.742   6.319
18727WAT     H256424   2.640   4.670   6.193
18728WAT      O56425   1.202   4.644   5.695
18728WAT     H156426   1.281   4.646   5.757
18728WAT     H256427   1.231   4.670   5.603
18729WAT      O56428   0.978   0.747   2.678
18729WAT     H156429   1.048   0.749   2.607
18729WAT     H256430   1.022   0.730   2.767
18730WAT      O56431   8.769   7.457   0.531
18730WAT     H156432   8.852   7.429   0.483
18730WAT     H256433   8.793   7.512   0.610
18731WAT      O56434   6.056   4.001   4.197
18731WAT     H156435   5.964   4.002   4.237
18731WAT     H256436   6.113   4.070   4.242
18732WAT      O56437   6.605   8.267   1.471
18732WAT     H156438   6.511   8.251   1.500
18732WAT     H256439   6.628   8.363   1.485
18733WAT      O56440   2.240   0.717   5.208
18733WAT     H156441   2.288   0.630   5.222
18733WAT     H256442   2.177   0.708   5.131
18734WAT      O56443   7.417   5.167   8.834
18734WAT     H156444   7.462   5.191   8.920
18734WAT     H256445   7.419   5.068   8.821
18735WAT      O56446   4.799   8.473   5.449
18735WAT     H156447   4.722   8.468   5.386
18735WAT     H256448   4.882   8.495   5.397
18736WAT      O56449   0.217   6.247   9.169
18736WAT     H156450   0.233   6.217   9.075
18736WAT     H256451   0.297   6.297   9.202
18737WAT      O56452   1.803   8.932   0.455
18737WAT     H156453   1.748   8.940   0.538
18737WAT     H256454   1.762   8.987   0.383
18738WAT      O56455   5.480   6.175   8.020
18738WAT     H156456   5.421   6.255   8.034
18738WAT     H256457   5.502   6.134   8.108
18739WAT      O56458   5.426   6.759   5.354
18739WAT     H156459   5.398   6.839   5.300
18739WAT     H256460   5.467   6.790   5.440
18740WAT      O56461   9.651   0.117   1.892
18740WAT     H156462   9.727   0.125   1.956
18740WAT     H256463   9.573   0.075   1.938
18741WAT      O56464   1.290   9.806   5.406
18741WAT     H156465   1.376   9.856   5.397
18741WAT     H256466   1.282   9.740   5.332
18742WAT      O56467   3.420   2.711   9.190
18742WAT     H156468   3.426   2.690   9.093
18742WAT     H256469   3.449   2.632   9.244
18743WAT      O56470   1.837   1.817   1.084
18743WAT     H156471   1.747   1.857   1.100
18743WAT     H256472   1.873   1.848   0.996
18744WAT      O56473   4.166   1.055   7.092
18744WAT     H156474   4.233   1.105   7.037
18744WAT     H256475   4.207   1.032   7.180
18745WAT      O56476   8.622   2.779   2.926
18745WAT     H156477   8.568   2.861   2.912
18745WAT     H256478   8.666   2.782   3.016
18746WAT      O56479   4.353   8.763   3.376
18746WAT     H156480   4.402   8.689   3.330
18746WAT     H256481   4.416   8.811   3.437
18747WAT      O56482   1.776   0.199   6.592
18747WAT     H156483   1.725   0.131   6.644
18747WAT     H256484   1.843   0.153   6.534
18748WAT      O56485   4.736   1.922   8.382
18748WAT     H156486   4.713   1.886   8.292
18748WAT     H256487   4.685   2.007   8.398
18749WAT      O56488   1.808   0.827   6.672
18749WAT     H156489   1.820   0.808   6.769
18749WAT     H256490   1.742   0.762   6.633
18750WAT      O56491   1.446   5.829   5.879
18750WAT     H156492   1.394   5.879   5.948
18750WAT     H256493   1.493   5.752   5.923
18751WAT      O56494   7.907   4.217   4.238
18751WAT     H156495   7.884   4.300   4.288
18751WAT     H256496   7.829   4.154   4.240
18752WAT      O56497   7.874   3.071   3.807
18752WAT     H156498   7.912   3.154   3.766
18752WAT     H256499   7.797   3.094   3.866
18753WAT      O56500   7.917   3.894   5.112
18753WAT     H156501   7.883   3.946   5.034
18753WAT     H256502   7.967   3.814   5.080
18754WAT      O56503   3.636   3.344   7.657
18754WAT     H156504   3.616   3.292   7.740
18754WAT     H256505   3.732   3.332   7.632
18755WAT      O56506   1.062   2.396   4.232
18755WAT     H156507   1.027   2.309   4.199
18755WAT     H256508   1.155   2.409   4.197
18756WAT      O56509   1.032   6.941   7.253
18756WAT     H156510   1.018   6.894   7.340
18756WAT     H256511   0.953   6.998   7.232
18757WAT      O56512   8.813   5.060   4.015
18757WAT     H156513   8.872   4.989   3.977
18757WAT     H256514   8.791   5.127   3.944
18758WAT      O56515   7.601   4.543   8.609
18758WAT     H156516   7.672   4.513   8.545
18758WAT     H256517   7.571   4.466   8.665
18759WAT      O56518   2.666   8.985   5.391
18759WAT     H156519   2.614   8.901   5.375
18759WAT     H256520   2.605   9.064   5.389
18760WAT      O56521   1.876   4.276   5.729
18760WAT     H156522   1.807   4.348   5.730
18760WAT     H256523   1.884   4.237   5.821
18761WAT      O56524   3.457   2.080   1.640
18761WAT     H156525   3.504   2.143   1.578
18761WAT     H256526   3.396   2.021   1.587
18762WAT      O56527   3.133   5.768   4.189
18762WAT     H156528   3.226   5.750   4.221
18762WAT     H256529   3.084   5.682   4.178
18763WAT      O56530   2.689   3.485   7.197
18763WAT     H156531   2.775   3.440   7.223
18763WAT     H256532   2.616   3.417   7.194
18764WAT      O56533   8.174   5.091   5.333
18764WAT     H156534   8.194   5.113   5.237
18764WAT     H256535   8.255   5.112   5.388
18765WAT      O56536   3.762   7.152   5.232
18765WAT     H156537   3.844   7.143   5.288
18765WAT     H256538   3.701   7.219   5.273
18766WAT      O56539   2.782   4.483   0.795
18766WAT     H156540   2.742   4.574   0.781
18766WAT     H256541   2.881   4.492   0.809
18767WAT      O56542   3.780   1.480   8.508
18767WAT     H156543   3.789   1.577   8.529
18767WAT     H256544   3.683   1.456   8.503
18768WAT      O56545   7.138   6.801   1.277
18768WAT     H156546   7.149   6.851   1.363
18768WAT     H256547   7.041   6.779   1.264
18769WAT      O56548   3.401   8.373   6.260
18769WAT     H156549   3.376   8.279   6.238
18769WAT     H256550   3.367   8.395   6.352
18770WAT      O56551   0.929   2.110   9.015
18770WAT     H156552   0.882   2.028   9.046
18770WAT     H256553   0.979   2.152   9.091
18771WAT      O56554   5.681   9.315   5.215
18771WAT     H156555   5.735   9.367   5.282
18771WAT     H256556   5.697   9.217   5.227
18772WAT      O56557   9.102   2.566   6.816
18772WAT     H156558   9.193   2.542   6.784
18772WAT     H256559   9.079   2.510   6.896
18773WAT      O56560   4.782   0.108   4.560
18773WAT     H156561   4.719   0.121   4.636
18773WAT     H256562   4.738   0.054   4.489
18774WAT      O56563   4.142   4.195   5.168
18774WAT     H156564   4.122   4.098   5.154
18774WAT     H256565   4.114   4.222   5.261
18775WAT      O56566   1.555   8.679   2.926
18775WAT     H156567   1.622   8.704   2.995
18775WAT     H256568   1.493   8.756   2.909
18776WAT      O56569   6.499   9.014   7.785
18776WAT     H156570   6.422   9.005   7.722
18776WAT     H256571   6.568   8.945   7.765
18777WAT      O56572   1.497   1.253   5.106
18777WAT     H156573   1.573   1.203   5.064
18777WAT     H256574   1.529   1.344   5.134
18778WAT      O56575   2.850   0.276   7.448
18778WAT     H156576   2.790   0.281   7.369
18778WAT     H256577   2.796   0.279   7.532
18779WAT      O56578   7.117   0.069   0.398
18779WAT     H156579   7.054   0.129   0.349
18779WAT     H256580   7.204   0.116   0.412
18780WAT      O56581   5.464   6.684   7.982
18780WAT     H156582   5.527   6.658   7.909
18780WAT     H256583   5.514   6.730   8.055
18781WAT      O56584   2.683   6.661   8.799
18781WAT     H156585   2.727   6.587   8.748
18781WAT     H256586   2.753   6.714   8.848
18782WAT      O56587   4.633   3.069   9.283
18782WAT     H156588   4.710   3.125   9.252
18782WAT     H256589   4.551   3.127   9.288
18783WAT      O56590   7.442   7.956   0.667
18783WAT     H156591   7.485   8.036   0.710
18783WAT     H256592   7.495   7.931   0.586
18784WAT      O56593   0.356   9.448   0.555
18784WAT     H156594   0.414   9.429   0.635
18784WAT     H256595   0.355   9.547   0.538
18785WAT      O56596   1.245   4.814   0.938
18785WAT     H156597   1.311   4.841   0.867
18785WAT     H256598   1.252   4.876   1.016
18786WAT      O56599   9.780   2.444   8.791
18786WAT     H156600   9.796   2.528   8.740
18786WAT     H256601   9.867   2.404   8.820
18787WAT      O56602   8.837   5.556   5.992
18787WAT     H156603   8.891   5.473   5.980
18787WAT     H256604   8.741   5.536   5.971
18788WAT      O56605   0.817   1.435   6.017
18788WAT     H156606   0.749   1.409   5.948
18788WAT     H256607   0.823   1.365   6.087
18789WAT      O56608   7.974   3.948   7.447
18789WAT     H156609   8.025   3.883   7.504
18789WAT     H256610   7.972   3.915   7.353
18790WAT      O56611   0.095   0.915   0.075
18790WAT     H156612   0.084   0.999   0.022
18790WAT     H256613   0.104   0.837   0.013
18791WAT      O56614   8.082   9.821   1.960
18791WAT     H156615   7.985   9.834   1.938
18791WAT     H256616   8.138   9.866   1.890
18792WAT      O56617   0.432   2.449   7.587
18792WAT     H156618   0.398   2.355   7.582
18792WAT     H256619   0.525   2.449   7.624
18793WAT      O56620   1.814   9.614   5.367
18793WAT     H156621   1.771   9.587   5.453
18793WAT     H256622   1.908   9.578   5.365
18794WAT      O56623   9.827   6.988   5.568
18794WAT     H156624   9.783   7.060   5.514
18794WAT     H256625   9.795   6.994   5.663
18795WAT      O56626   3.813   1.738   3.853
18795WAT     H156627   3.741   1.713   3.788
18795WAT     H256628   3.841   1.832   3.837
18796WAT      O56629   0.437   3.030   6.405
18796WAT     H156630   0.341   3.002   6.410
18796WAT     H256631   0.445   3.128   6.423
18797WAT      O56632   1.065   5.403   8.359
18797WAT     H156633   1.072   5.433   8.264
18797WAT     H256634   1.049   5.305   8.362
18798WAT      O56635   3.855   2.336   0.067
18798WAT     H156636   3.941   2.360   0.112
18798WAT     H256637   3.867   2.341  -0.032
18799WAT      O56638   2.831   1.350   6.920
18799WAT     H156639   2.909   1.311   6.968
18799WAT     H256640   2.780   1.278   6.874
18800WAT      O56641   7.629   4.474   2.091
18800WAT     H156642   7.601   4.541   2.161
18800WAT     H256643   7.715   4.431   2.119
18801WAT      O56644   4.848   1.512   4.760
18801WAT     H156645   4.801   1.579   4.703
18801WAT     H256646   4.832   1.420   4.724
18802WAT      O56647   4.183   7.427   8.756
18802WAT     H156648   4.190   7.369   8.675
18802WAT     H256649   4.167   7.370   8.836
18803WAT      O56650   3.431   7.432   9.699
18803WAT     H156651   3.427   7.522   9.655
18803WAT     H256652   3.522   7.394   9.686
18804WAT      O56653   6.481   9.767   1.570
18804WAT     H156654   6.508   9.832   1.641
18804WAT     H256655   6.513   9.799   1.481
18805WAT      O56656   6.907   1.728   3.722
18805WAT     H156657   6.826   1.756   3.775
18805WAT     H256658   6.972   1.684   3.784
18806WAT      O56659   0.628   7.757   4.624
18806WAT     H156660   0.660   7.795   4.538
18806WAT     H256661   0.574   7.826   4.673
18807WAT      O56662   6.800   1.009   3.705
18807WAT     H156663   6.790   0.934   3.770
18807WAT     H256664   6.710   1.049   3.687
18808WAT      O56665   5.485   2.217   6.172
18808WAT     H156666   5.578   2.236   6.204
18808WAT     H256667   5.457   2.126   6.204
18809WAT      O56668   7.140   3.255   5.877
18809WAT     H156669   7.078   3.326   5.913
18809WAT     H256670   7.234   3.287   5.884
18810WAT      O56671   1.824   6.682   9.071
18810WAT     H156672   1.820   6.780   9.051
18810WAT     H256673   1.739   6.638   9.039
18811WAT      O56674   0.523   7.608   0.963
18811WAT     H156675   0.561   7.688   0.915
18811WAT     H256676   0.597   7.547   0.991
18812WAT      O56677   3.176   3.534   8.585
18812WAT     H156678   3.226   3.586   8.516
18812WAT     H256679   3.228   3.452   8.610
18813WAT      O56680   3.240   1.058   8.597
18813WAT     H156681   3.255   1.086   8.692
18813WAT     H256682   3.320   1.007   8.565
18814WAT      O56683   2.996   2.133   0.421
18814WAT     H156684   2.989   2.037   0.448
18814WAT     H256685   2.915   2.183   0.452
18815WAT      O56686   6.173   8.350   6.754
18815WAT     H156687   6.137   8.431   6.800
18815WAT     H256688   6.246   8.377   6.691
18816WAT      O56689   5.900   8.322   3.223
18816WAT     H156690   5.884   8.229   3.191
18816WAT     H256691   5.895   8.325   3.322
18817WAT      O56692   7.532   3.509   1.114
18817WAT     H156693   7.611   3.571   1.112
18817WAT     H256694   7.538   3.445   1.038
18818WAT      O56695   0.919   0.585   6.227
18818WAT     H156696   0.954   0.492   6.237
18818WAT     H256697   0.934   0.617   6.134
18819WAT      O56698   5.547   8.237   8.844
18819WAT     H156699   5.646   8.251   8.847
18819WAT     H256700   5.525   8.151   8.890
18820WAT      O56701   5.669   6.090   0.997
18820WAT     H156702   5.650   6.184   0.967
18820WAT     H256703   5.592   6.056   1.050
18821WAT      O56704   1.177   8.019   8.397
18821WAT     H156705   1.092   8.062   8.367
18821WAT     H256706   1.254   8.065   8.355
18822WAT      O56707   1.566   3.718   9.521
18822WAT     H156708   1.628   3.640   9.518
18822WAT     H256709   1.590   3.778   9.597
18823WAT      O56710   7.009   9.829   0.687
18823WAT     H156711   7.046   9.872   0.604
18823WAT     H256712   6.914   9.858   0.700
18824WAT      O56713   9.757   4.702   8.955
18824WAT     H156714   9.710   4.747   8.879
18824WAT     H256715   9.750   4.759   9.037
18825WAT      O56716   7.440   0.961   8.903
18825WAT     H156717   7.456   0.874   8.857
18825WAT     H256718   7.396   1.025   8.839
18826WAT      O56719   7.689   2.441   5.027
18826WAT     H156720   7.744   2.467   5.106
18826WAT     H256721   7.594   2.429   5.054
18827WAT      O56722   3.411   5.273   4.691
18827WAT     H156723   3.385   5.246   4.784
18827WAT     H256724   3.505   5.245   4.674
18828WAT      O56725   9.849   3.910   8.634
18828WAT     H156726   9.862   3.912   8.733
18828WAT     H256727   9.936   3.891   8.590
18829WAT      O56728   2.274   5.086   0.015
18829WAT     H156729   2.302   5.027   0.090
18829WAT     H256730   2.178   5.069  -0.007
18830WAT      O56731   0.480   4.394   7.760
18830WAT     H156732   0.550   4.338   7.716
18830WAT     H256733   0.518   4.433   7.845
18831WAT      O56734   5.362   6.936   9.563
18831WAT     H156735   5.453   6.979   9.564
18831WAT     H256736   5.344   6.897   9.653
18832WAT      O56737   5.771   2.161   4.690
18832WAT     H156738   5.714   2.239   4.716
18832WAT     H256739   5.716   2.077   4.694
18833WAT      O56740   2.525   8.719   3.604
18833WAT     H156741   2.580   8.636   3.612
18833WAT     H256742   2.453   8.719   3.673
18834WAT      O56743   6.901   8.362   2.153
18834WAT     H156744   6.817   8.409   2.181
18834WAT     H256745   6.878   8.268   2.126
18835WAT      O56746   8.951   4.112   7.660
18835WAT     H156747   9.020   4.091   7.591
18835WAT     H256748   8.990   4.099   7.751
18836WAT      O56749   8.242   2.027   0.973
18836WAT     H156750   8.263   2.103   1.035
18836WAT     H256751   8.149   2.038   0.938
18837WAT      O56752   4.737   0.026   2.520
18837WAT     H156753   4.794   0.106   2.500
18837WAT     H256754   4.745  -0.040   2.446
18838WAT      O56755   5.286   8.981   2.547
18838WAT     H156756   5.189   9.000   2.534
18838WAT     H256757   5.340   9.034   2.481
18839WAT      O56758   2.503   7.940   4.915
18839WAT     H156759   2.434   7.977   4.977
18839WAT     H256760   2.461   7.920   4.826
18840WAT      O56761   5.614   6.233   2.709
18840WAT     H156762   5.670   6.277   2.779
18840WAT     H256763   5.520   6.223   2.743
18841WAT      O56764   3.129   2.395   8.744
18841WAT     H156765   3.073   2.339   8.682
18841WAT     H256766   3.097   2.381   8.838
18842WAT      O56767   2.314   7.799   0.392
18842WAT     H156768   2.364   7.881   0.363
18842WAT     H256769   2.217   7.811   0.374
18843WAT      O56770   6.103   0.058   1.627
18843WAT     H156771   6.143   0.111   1.552
18843WAT     H256772   6.116  -0.039   1.609
18844WAT      O56773   3.874   9.645   0.349
18844WAT     H156774   3.869   9.736   0.307
18844WAT     H256775   3.783   9.603   0.349
18845WAT      O56776   6.314   9.816   6.322
18845WAT     H156777   6.220   9.782   6.323
18845WAT     H256778   6.331   9.862   6.234
18846WAT      O56779   6.903   0.218   2.623
18846WAT     H156780   7.000   0.194   2.630
18846WAT     H256781   6.892   0.294   2.559
18847WAT      O56782   9.713   6.919   7.357
18847WAT     H156783   9.631   6.863   7.341
18847WAT     H256784   9.714   6.949   7.452
18848WAT      O56785   4.099   6.303   8.748
18848WAT     H156786   4.055   6.249   8.820
18848WAT     H256787   4.092   6.254   8.661
18849WAT      O56788   1.459   2.739   1.145
18849WAT     H156789   1.548   2.772   1.114
18849WAT     H256790   1.446   2.644   1.114
18850WAT      O56791   8.708   5.374   1.271
18850WAT     H156792   8.765   5.407   1.346
18850WAT     H256793   8.739   5.284   1.242
18851WAT      O56794   3.471   5.756   2.542
18851WAT     H156795   3.448   5.819   2.468
18851WAT     H256796   3.388   5.733   2.593
18852WAT      O56797   3.822   7.504   3.871
18852WAT     H156798   3.919   7.487   3.891
18852WAT     H256799   3.805   7.486   3.774
18853WAT      O56800   1.209   8.512   0.405
18853WAT     H156801   1.303   8.514   0.371
18853WAT     H256802   1.157   8.585   0.361
18854WAT      O56803   7.741   1.610   8.330
18854WAT     H156804   7.734   1.554   8.413
18854WAT     H256805   7.695   1.698   8.345
18855WAT      O56806   2.499   7.173   6.546
18855WAT     H156807   2.578   7.133   6.592
18855WAT     H256808   2.529   7.229   6.469
18856WAT      O56809   1.658   7.434   7.146
18856WAT     H156810   1.620   7.500   7.083
18856WAT     H256811   1.587   7.404   7.210
18857WAT      O56812   6.227   7.261   6.646
18857WAT     H156813   6.190   7.171   6.621
18857WAT     H256814   6.252   7.311   6.563
18858WAT      O56815   5.945   4.417   2.795
18858WAT     H156816   5.886   4.489   2.831
18858WAT     H256817   5.926   4.331   2.843
18859WAT      O56818   7.620   6.770   1.225
18859WAT     H156819   7.638   6.860   1.263
18859WAT     H256820   7.521   6.759   1.209
18860WAT      O56821   4.203   4.894   6.385
18860WAT     H156822   4.253   4.889   6.298
18860WAT     H256823   4.267   4.884   6.461
18861WAT      O56824   5.957   4.606   1.821
18861WAT     H156825   5.925   4.700   1.815
18861WAT     H256826   6.053   4.604   1.847
18862WAT      O56827   3.015   4.554   6.515
18862WAT     H156828   2.922   4.517   6.506
18862WAT     H256829   3.049   4.579   6.424
18863WAT      O56830   5.964   1.180   1.411
18863WAT     H156831   5.975   1.268   1.457
18863WAT     H256832   5.967   1.106   1.477
18864WAT      O56833   5.225   9.573   2.831
18864WAT     H156834   5.209   9.537   2.739
18864WAT     H256835   5.287   9.512   2.880
18865WAT      O56836   1.802   4.050   8.066
18865WAT     H156837   1.771   4.123   8.127
18865WAT     H256838   1.879   4.084   8.011
18866WAT      O56839   5.812   0.505   7.958
18866WAT     H156840   5.877   0.547   7.895
18866WAT     H256841   5.727   0.558   7.957
18867WAT      O56842   2.085   1.560   7.327
18867WAT     H156843   2.041   1.633   7.381
18867WAT     H256844   2.174   1.538   7.368
18868WAT      O56845   2.415   3.949   8.642
18868WAT     H156846   2.322   3.943   8.680
18868WAT     H256847   2.422   3.888   8.562
18869WAT      O56848   4.636   6.812   7.880
18869WAT     H156849   4.634   6.858   7.968
18869WAT     H256850   4.731   6.790   7.856
18870WAT      O56851   5.859   5.769   1.662
18870WAT     H156852   5.853   5.862   1.699
18870WAT     H256853   5.888   5.707   1.735
18871WAT      O56854   6.433   0.867   6.962
18871WAT     H156855   6.392   0.832   7.047
18871WAT     H256856   6.388   0.824   6.884
18872WAT      O56857   5.195   6.016   0.012
18872WAT     H156858   5.199   5.929  -0.036
18872WAT     H256859   5.108   6.061  -0.009
18873WAT      O56860   3.232   2.284   6.237
18873WAT     H156861   3.267   2.270   6.329
18873WAT     H256862   3.199   2.197   6.200
18874WAT      O56863   6.412   1.116   5.246
18874WAT     H156864   6.356   1.034   5.256
18874WAT     H256865   6.472   1.106   5.167
18875WAT      O56866   5.243   3.914   6.161
18875WAT     H156867   5.297   3.990   6.125
18875WAT     H256868   5.284   3.881   6.246
18876WAT      O56869   7.518   1.456   4.068
18876WAT     H156870   7.604   1.430   4.111
18876WAT     H256871   7.488   1.384   4.005
18877WAT      O56872   3.604   6.365   1.199
18877WAT     H156873   3.646   6.275   1.187
18877WAT     H256874   3.523   6.371   1.141
18878WAT      O56875   4.522   8.051   4.648
18878WAT     H156876   4.620   8.028   4.652
18878WAT     H256877   4.492   8.052   4.552
18879WAT      O56878   4.658   9.115   9.442
18879WAT     H156879   4.720   9.036   9.445
18879WAT     H256880   4.574   9.093   9.491
18880WAT      O56881   9.380   5.030   8.366
18880WAT     H156882   9.480   5.026   8.374
18880WAT     H256883   9.352   5.125   8.356
18881WAT      O56884   0.877   6.749   2.742
18881WAT     H156885   0.959   6.708   2.781
18881WAT     H256886   0.823   6.678   2.696
18882WAT      O56887   8.093   8.883   5.300
18882WAT     H156888   8.028   8.910   5.371
18882WAT     H256889   8.178   8.935   5.310
18883WAT      O56890   7.304   3.893   0.506
18883WAT     H156891   7.233   3.958   0.529
18883WAT     H256892   7.306   3.819   0.574
18884WAT      O56893   8.717   1.096   8.719
18884WAT     H156894   8.697   1.056   8.629
18884WAT     H256895   8.770   1.030   8.773
18885WAT      O56896   9.680   0.502   2.502
18885WAT     H156897   9.626   0.584   2.521
18885WAT     H256898   9.635   0.448   2.431
18886WAT      O56899   6.882   8.124   1.556
18886WAT     H156900   6.877   8.214   1.600
18886WAT     H256901   6.790   8.091   1.538
18887WAT      O56902   0.733   6.353   5.370
18887WAT     H156903   0.763   6.287   5.439
18887WAT     H256904   0.633   6.362   5.374
18888WAT      O56905   9.685   8.738   0.733
18888WAT     H156906   9.746   8.676   0.683
18888WAT     H256907   9.591   8.723   0.702
18889WAT      O56908   1.847   5.493   2.997
18889WAT     H156909   1.898   5.431   3.056
18889WAT     H256910   1.800   5.440   2.926
18890WAT      O56911   2.985   8.390   3.623
18890WAT     H156912   2.953   8.303   3.659
18890WAT     H256913   2.932   8.465   3.663
18891WAT      O56914   7.100   3.469   9.239
18891WAT     H156915   7.043   3.479   9.158
18891WAT     H256916   7.145   3.379   9.238
18892WAT      O56917   1.012   1.217   3.948
18892WAT     H156918   0.917   1.216   3.979
18892WAT     H256919   1.069   1.164   4.011
18893WAT      O56920   8.679   6.452   4.385
18893WAT     H156921   8.651   6.543   4.417
18893WAT     H256922   8.693   6.454   4.286
18894WAT      O56923   3.017   0.595   2.809
18894WAT     H156924   3.037   0.562   2.901
18894WAT     H256925   3.008   0.695   2.811
18895WAT      O56926   4.025   5.177   5.854
18895WAT     H156927   4.072   5.228   5.927
18895WAT     H256928   4.069   5.088   5.843
18896WAT      O56929   6.908   1.586   4.527
18896WAT     H156930   6.943   1.678   4.510
18896WAT     H256931   6.921   1.562   4.624
18897WAT      O56932   9.735   2.819   3.170
18897WAT     H156933   9.775   2.851   3.256
18897WAT     H256934   9.716   2.721   3.176
18898WAT      O56935   1.470   5.988   8.470
18898WAT     H156936   1.381   6.034   8.469
18898WAT     H256937   1.528   6.028   8.540
18899WAT      O56938   0.063   0.019   4.255
18899WAT     H156939   0.029   0.042   4.346
18899WAT     H256940   0.010  -0.058   4.218
18900WAT      O56941   8.922   4.559   5.551
18900WAT     H156942   8.984   4.637   5.540
18900WAT     H256943   8.875   4.565   5.639
18901WAT      O56944   0.329   9.590   0.044
18901WAT     H156945   0.337   9.512  -0.018
18901WAT     H256946   0.241   9.586   0.092
18902WAT      O56947   4.412   4.877   4.442
18902WAT     H156948   4.362   4.792   4.455
18902WAT     H256949   4.510   4.859   4.440
18903WAT      O56950   6.242   1.066   9.332
18903WAT     H156951   6.270   1.132   9.401
18903WAT     H256952   6.311   1.062   9.260
18904WAT      O56953   4.800   2.071   2.260
18904WAT     H156954   4.811   1.978   2.297
18904WAT     H256955   4.703   2.092   2.251
18905WAT      O56956   5.004   2.775   3.390
18905WAT     H156957   5.037   2.867   3.411
18905WAT     H256958   5.060   2.735   3.317
18906WAT      O56959   3.394   5.914   2.333
18906WAT     H156960   3.385   5.835   2.272
18906WAT     H256961   3.462   5.977   2.296
18907WAT      O56962   1.267   2.959   6.032
18907WAT     H156963   1.259   3.040   6.091
18907WAT     H256964   1.276   2.878   6.089
18908WAT      O56965   9.412   9.302   1.870
18908WAT     H156966   9.468   9.353   1.936
18908WAT     H256967   9.353   9.366   1.820
18909WAT      O56968   6.174   9.711   9.130
18909WAT     H156969   6.136   9.733   9.220
18909WAT     H256970   6.201   9.614   9.128
18910WAT      O56971   7.886   6.048   7.988
18910WAT     H156972   7.859   5.955   8.012
18910WAT     H256973   7.921   6.095   8.069
18911WAT      O56974   1.561   3.389   1.252
18911WAT     H156975   1.573   3.422   1.346
18911WAT     H256976   1.581   3.291   1.249
18912WAT      O56977   1.648   1.322   3.311
18912WAT     H156978   1.656   1.317   3.411
18912WAT     H256979   1.556   1.349   3.286
18913WAT      O56980   4.085   7.382   7.047
18913WAT     H156981   4.049   7.331   7.124
18913WAT     H256982   4.037   7.355   6.963
18914WAT      O56983   0.668   5.187   2.088
18914WAT     H156984   0.592   5.132   2.122
18914WAT     H256985   0.705   5.242   2.164
18915WAT      O56986   3.403   8.416   3.780
18915WAT     H156987   3.328   8.351   3.766
18915WAT     H256988   3.366   8.509   3.779
18916WAT      O56989   8.789   4.775   7.692
18916WAT     H156990   8.857   4.834   7.736
18916WAT     H256991   8.789   4.686   7.737
18917WAT      O56992   8.851   7.378   8.747
18917WAT     H156993   8.837   7.448   8.818
18917WAT     H256994   8.813   7.411   8.661
18918WAT      O56995   9.410   4.507   3.215
18918WAT     H156996   9.352   4.586   3.193
18918WAT     H256997   9.503   4.524   3.184
18919WAT      O56998   8.938   6.473   0.036
18919WAT     H156999   8.980   6.387   0.004
18919WAT     H257000   8.935   6.473   0.136
18920WAT      O57001   6.652   3.719   3.290
18920WAT     H157002   6.635   3.718   3.192
18920WAT     H257003   6.663   3.813   3.321
18921WAT      O57004   3.826   7.331   8.562
18921WAT     H157005   3.765   7.315   8.639
18921WAT     H257006   3.861   7.425   8.565
18922WAT      O57007   6.841   3.979   4.494
18922WAT     H157008   6.850   3.879   4.493
18922WAT     H257009   6.763   4.006   4.437
18923WAT      O57010   1.921   9.165   7.102
18923WAT     H157011   1.865   9.160   7.185
18923WAT     H257012   1.959   9.257   7.092
18924WAT      O57013   6.872   6.654   4.062
18924WAT     H157014   6.893   6.723   3.994
18924WAT     H257015   6.855   6.698   4.151
18925WAT      O57016   2.066   9.024   1.645
18925WAT     H157017   2.075   8.993   1.740
18925WAT     H257018   1.970   9.020   1.618
18926WAT      O57019   6.160   9.588   1.945
18926WAT     H157020   6.239   9.610   1.888
18926WAT     H257021   6.172   9.628   2.036
18927WAT      O57022   5.678   6.093   7.549
18927WAT     H157023   5.620   6.026   7.503
18927WAT     H257024   5.679   6.075   7.647
18928WAT      O57025   9.657   5.103   2.301
18928WAT     H157026   9.584   5.086   2.234
18928WAT     H257027   9.738   5.050   2.275
18929WAT      O57028   0.044   3.737   4.738
18929WAT     H157029   0.033   3.833   4.765
18929WAT     H257030   0.129   3.701   4.776
18930WAT      O57031   1.148   0.596   9.194
18930WAT     H157032   1.065   0.611   9.248
18930WAT     H257033   1.149   0.661   9.117
18931WAT      O57034   7.790   8.211   3.282
18931WAT     H157035   7.834   8.291   3.323
18931WAT     H257036   7.748   8.238   3.195
18932WAT      O57037   6.999   7.330   5.123
18932WAT     H157038   6.942   7.409   5.106
18932WAT     H257039   7.087   7.340   5.077
18933WAT      O57040   9.409   2.402   5.659
18933WAT     H157041   9.405   2.367   5.753
18933WAT     H257042   9.450   2.493   5.659
18934WAT      O57043   0.015   3.459   2.762
18934WAT     H157044  -0.011   3.432   2.670
18934WAT     H257045  -0.067   3.482   2.815
18935WAT      O57046   5.927   9.550   3.415
18935WAT     H157047   5.907   9.535   3.318
18935WAT     H257048   5.992   9.481   3.447
18936WAT      O57049   2.863   8.337   2.863
18936WAT     H157050   2.789   8.289   2.909
18936WAT     H257051   2.874   8.428   2.903
18937WAT      O57052   3.114   7.461   7.121
18937WAT     H157053   3.193   7.501   7.167
18937WAT     H257054   3.055   7.534   7.087
18938WAT      O57055   1.987   8.498   5.304
18938WAT     H157056   1.918   8.488   5.377
18938WAT     H257057   2.077   8.506   5.345
18939WAT      O57058   7.613   9.093   4.236
18939WAT     H157059   7.586   9.070   4.142
18939WAT     H257060   7.602   9.191   4.250
18940WAT      O57061   6.421   6.220   2.203
18940WAT     H157062   6.357   6.168   2.146
18940WAT     H257063   6.383   6.311   2.219
18941WAT      O57064   4.654   2.261   1.992
18941WAT     H157065   4.615   2.199   2.060
18941WAT     H257066   4.608   2.248   1.904
18942WAT      O57067   4.018   3.085   8.279
18942WAT     H157068   4.098   3.139   8.308
18942WAT     H257069   4.033   2.989   8.300
18943WAT      O57070   5.081   1.066   7.254
18943WAT     H157071   5.124   0.986   7.212
18943WAT     H257072   4.990   1.079   7.215
18944WAT      O57073   7.057   3.401   3.831
18944WAT     H157074   7.024   3.397   3.926
18944WAT     H257075   6.979   3.405   3.769
18945WAT      O57076   9.082   1.434   8.398
18945WAT     H157077   9.026   1.501   8.449
18945WAT     H257078   9.031   1.349   8.388
18946WAT      O57079   4.395   9.657   9.435
18946WAT     H157080   4.386   9.736   9.375
18946WAT     H257081   4.344   9.673   9.519
18947WAT      O57082   4.420   0.448   1.854
18947WAT     H157083   4.432   0.525   1.917
18947WAT     H257084   4.438   0.362   1.902
18948WAT      O57085   5.740   3.073   2.194
18948WAT     H157086   5.808   3.024   2.140
18948WAT     H257087   5.704   3.012   2.265
18949WAT      O57088   4.753   9.374   7.921
18949WAT     H157089   4.841   9.416   7.940
18949WAT     H257090   4.683   9.445   7.915
18950WAT      O57091   2.363   5.011   8.678
18950WAT     H157092   2.265   5.021   8.664
18950WAT     H257093   2.396   5.084   8.737
18951WAT      O57094   1.361   5.032   0.250
18951WAT     H157095   1.366   4.950   0.307
18951WAT     H257096   1.280   5.029   0.192
18952WAT      O57097   2.305   9.657   6.797
18952WAT     H157098   2.334   9.705   6.714
18952WAT     H257099   2.218   9.696   6.828
18953WAT      O57100   1.695   5.298   3.234
18953WAT     H157101   1.676   5.212   3.282
18953WAT     H257102   1.611   5.332   3.192
18954WAT      O57103   4.552   7.913   7.389
18954WAT     H157104   4.502   7.927   7.475
18954WAT     H257105   4.629   7.852   7.405
18955WAT      O57106   1.498   2.083   3.355
18955WAT     H157107   1.598   2.075   3.352
18955WAT     H257108   1.471   2.177   3.334
18956WAT      O57109   1.535   6.699   7.120
18956WAT     H157110   1.473   6.654   7.184
18956WAT     H257111   1.525   6.798   7.128
18957WAT      O57112   9.169   5.130   0.750
18957WAT     H157113   9.224   5.122   0.667
18957WAT     H257114   9.109   5.051   0.759
18958WAT      O57115   4.916   3.504   6.953
18958WAT     H157116   4.983   3.559   7.003
18958WAT     H257117   4.930   3.515   6.855
18959WAT      O57118   6.945   6.466   6.102
18959WAT     H157119   6.927   6.469   6.004
18959WAT     H257120   7.039   6.496   6.119
18960WAT      O57121   0.080   8.096   9.827
18960WAT     H157122   0.153   8.074   9.891
18960WAT     H257123   0.024   8.171   9.864
18961WAT      O57124   7.534   9.430   2.000
18961WAT     H157125   7.445   9.389   1.978
18961WAT     H257126   7.589   9.435   1.917
18962WAT      O57127   8.473   4.570   8.739
18962WAT     H157128   8.510   4.589   8.831
18962WAT     H257129   8.459   4.472   8.728
18963WAT      O57130   0.936   4.317   9.700
18963WAT     H157131   0.888   4.365   9.774
18963WAT     H257132   0.871   4.295   9.627
18964WAT      O57133   6.388   5.318   2.673
18964WAT     H157134   6.355   5.302   2.766
18964WAT     H257135   6.446   5.400   2.672
18965WAT      O57136   2.798   3.459   4.933
18965WAT     H157137   2.739   3.379   4.922
18965WAT     H257138   2.855   3.448   5.014
18966WAT      O57139   4.520   7.124   6.328
18966WAT     H157140   4.497   7.220   6.341
18966WAT     H257141   4.525   7.103   6.231
18967WAT      O57142   5.134   9.155   3.442
18967WAT     H157143   5.153   9.111   3.529
18967WAT     H257144   5.040   9.187   3.441
18968WAT      O57145   5.357   8.563   4.215
18968WAT     H157146   5.385   8.604   4.128
18968WAT     H257147   5.363   8.631   4.288
18969WAT      O57148   6.275   1.327   3.014
18969WAT     H157149   6.265   1.240   2.967
18969WAT     H257150   6.366   1.364   2.997
18970WAT      O57151   2.980   0.060   1.107
18970WAT     H157152   2.914   0.055   1.182
18970WAT     H257153   2.954  -0.006   1.036
18971WAT      O57154   3.942   7.300   4.805
18971WAT     H157155   3.966   7.396   4.823
18971WAT     H257156   4.024   7.243   4.812
18972WAT      O57157   6.145   9.410   9.728
18972WAT     H157158   6.179   9.353   9.803
18972WAT     H257159   6.056   9.375   9.698
18973WAT      O57160   6.065   0.939   8.575
18973WAT     H157161   6.163   0.920   8.567
18973WAT     H257162   6.034   0.987   8.492
18974WAT      O57163   0.448   2.643   0.173
18974WAT     H157164   0.349   2.659   0.170
18974WAT     H257165   0.475   2.616   0.265
18975WAT      O57166   8.307   9.138   1.217
18975WAT     H157167   8.314   9.164   1.121
18975WAT     H257168   8.395   9.153   1.262
18976WAT      O57169   5.726   6.396   2.929
18976WAT     H157170   5.725   6.316   2.989
18976WAT     H257171   5.796   6.461   2.960
18977WAT      O57172   2.584   7.093   9.615
18977WAT     H157173   2.660   7.125   9.671
18977WAT     H257174   2.604   7.111   9.519
18978WAT      O57175   3.016   9.035   3.057
18978WAT     H157176   3.087   9.080   3.003
18978WAT     H257177   2.932   9.090   3.054
18979WAT      O57178   4.558   8.654   3.996
18979WAT     H157179   4.469   8.695   4.017
18979WAT     H257180   4.570   8.648   3.897
18980WAT      O57181   9.501   2.993   3.479
18980WAT     H157182   9.415   2.961   3.439
18980WAT     H257183   9.573   2.926   3.463
18981WAT      O57184   7.174   4.834   7.536
18981WAT     H157185   7.187   4.901   7.463
18981WAT     H257186   7.262   4.792   7.559
18982WAT      O57187   8.812   2.680   2.746
18982WAT     H157188   8.885   2.745   2.765
18982WAT     H257189   8.747   2.680   2.822
18983WAT      O57190   8.533   4.899   5.500
18983WAT     H157191   8.437   4.899   5.472
18983WAT     H257192   8.590   4.930   5.424
18984WAT      O57193   8.234   1.007   8.626
18984WAT     H157194   8.199   1.019   8.532
18984WAT     H257195   8.157   1.007   8.690
18985WAT      O57196   3.041   0.800   4.119
18985WAT     H157197   3.046   0.860   4.199
18985WAT     H257198   3.085   0.845   4.041
18986WAT      O57199   6.874   7.748   9.257
18986WAT     H157200   6.824   7.825   9.297
18986WAT     H257201   6.959   7.734   9.308
18987WAT      O57202   0.190   6.720   0.897
18987WAT     H157203   0.140   6.806   0.889
18987WAT     H257204   0.281   6.729   0.857
18988WAT      O57205   9.277   0.999   8.772
18988WAT     H157206   9.362   1.050   8.787
18988WAT     H257207   9.257   0.943   8.852
18989WAT      O57208   9.493   9.085   5.903
18989WAT     H157209   9.455   9.172   5.933
18989WAT     H257210   9.483   9.017   5.976
18990WAT      O57211   8.521   1.703   8.851
18990WAT     H157212   8.496   1.692   8.948
18990WAT     H257213   8.467   1.640   8.796
18991WAT      O57214   5.803   9.343   8.589
18991WAT     H157215   5.827   9.263   8.535
18991WAT     H257216   5.886   9.387   8.623
18992WAT      O57217   0.217   7.676   1.271
18992WAT     H157218   0.135   7.703   1.221
18992WAT     H257219   0.296   7.727   1.235
18993WAT      O57220   0.252   4.464   6.341
18993WAT     H157221   0.265   4.365   6.330
18993WAT     H257222   0.231   4.506   6.253
18994WAT      O57223   3.093   6.852   6.410
18994WAT     H157224   3.111   6.762   6.450
18994WAT     H257225   2.995   6.863   6.395
18995WAT      O57226   0.102   9.271   5.785
18995WAT     H157227   0.004   9.266   5.799
18995WAT     H257228   0.132   9.367   5.788
18996WAT      O57229   3.156   5.099   7.417
18996WAT     H157230   3.176   5.123   7.512
18996WAT     H257231   3.226   5.036   7.384
18997WAT      O57232   2.017   4.737   1.700
18997WAT     H157233   1.973   4.662   1.748
18997WAT     H257234   1.960   4.820   1.709
18998WAT      O57235   4.664   1.421   8.327
18998WAT     H157236   4.700   1.510   8.357
18998WAT     H257237   4.732   1.350   8.345
18999WAT      O57238   0.135   5.369   2.799
18999WAT     H157239   0.180   5.309   2.733
18999WAT     H257240   0.082   5.439   2.750
19000WAT      O57241   1.344   7.485   6.893
19000WAT     H157242   1.398   7.562   6.859
19000WAT     H257243   1.318   7.502   6.988
19001WAT      O57244   9.367   6.139   7.366
19001WAT     H157245   9.375   6.046   7.329
19001WAT     H257246   9.427   6.149   7.445
19002WAT      O57247   6.464   9.473   8.808
19002WAT     H157248   6.399   9.544   8.832
19002WAT     H257249   6.506   9.494   8.720
19003WAT      O57250  -0.002   6.494   6.853
19003WAT     H157251   0.009   6.591   6.872
19003WAT     H257252   0.085   6.455   6.824
19004WAT      O57253   6.365   9.602   2.764
19004WAT     H157254   6.345   9.613   2.861
19004WAT     H257255   6.434   9.531   2.752
19005WAT      O57256   6.291   7.793   4.162
19005WAT     H157257   6.232   7.859   4.115
19005WAT     H257258   6.247   7.762   4.246
19006WAT      O57259   4.306   6.383   7.612
19006WAT     H157260   4.336   6.431   7.695
19006WAT     H257261   4.378   6.391   7.543
19007WAT      O57262   6.043   4.554   0.615
19007WAT     H157263   5.983   4.632   0.598
19007WAT     H257264   6.121   4.584   0.670
19008WAT      O57265   0.977   4.435   3.088
19008WAT     H157266   1.016   4.346   3.111
19008WAT     H257267   1.026   4.473   3.009
19009WAT      O57268   5.372   4.643   3.964
19009WAT     H157269   5.352   4.558   3.915
19009WAT     H257270   5.432   4.623   4.041
19010WAT      O57271   2.160   0.148   6.747
19010WAT     H157272   2.148   0.197   6.661
19010WAT     H257273   2.086   0.171   6.810
19011WAT      O57274   1.644   6.139   4.484
19011WAT     H157275   1.682   6.059   4.530
19011WAT     H257276   1.545   6.131   4.481
19012WAT      O57277   4.881   4.333   8.239
19012WAT     H157278   4.874   4.429   8.266
19012WAT     H257279   4.940   4.285   8.304
19013WAT      O57280   7.812   6.515   3.095
19013WAT     H157281   7.904   6.495   3.061
19013WAT     H257282   7.747   6.512   3.019
19014WAT      O57283   3.526   4.563   7.678
19014WAT     H157284   3.536   4.648   7.729
19014WAT     H257285   3.509   4.583   7.582
19015WAT      O57286   5.629   5.919   5.902
19015WAT     H157287   5.719   5.897   5.866
19015WAT     H257288   5.562   5.917   5.828
19016WAT      O57289   3.542   6.101   4.844
19016WAT     H157290   3.544   6.096   4.744
19016WAT     H257291   3.634   6.115   4.879
19017WAT      O57292   0.947   0.239   9.766
19017WAT     H157293   0.944   0.199   9.674
19017WAT     H257294   0.857   0.276   9.789
19018WAT      O57295   2.307   4.617   6.363
19018WAT     H157296   2.338   4.711   6.377
19018WAT     H257297   2.220   4.603   6.410
19019WAT      O57298   5.434   8.925   0.521
19019WAT     H157299   5.430   8.893   0.427
19019WAT     H257300   5.495   9.004   0.528
19020WAT      O57301   1.637   2.982   8.206
19020WAT     H157302   1.629   2.913   8.135
19020WAT     H257303   1.616   3.072   8.168
19021WAT      O57304   0.998   3.792   0.084
19021WAT     H157305   1.058   3.839   0.149
19021WAT     H257306   1.048   3.717   0.040
19022WAT      O57307   1.070   0.364   5.984
19022WAT     H157308   1.126   0.305   5.926
19022WAT     H257309   0.974   0.355   5.959
19023WAT      O57310   2.993   3.509   1.199
19023WAT     H157311   3.032   3.419   1.219
19023WAT     H257312   2.924   3.501   1.128
19024WAT      O57313   9.107   7.796   4.776
19024WAT     H157314   9.169   7.737   4.828
19024WAT     H257315   9.030   7.823   4.834
19025WAT      O57316   5.386   1.361   2.699
19025WAT     H157317   5.462   1.388   2.758
19025WAT     H257318   5.299   1.381   2.743
19026WAT      O57319   7.797   4.119   6.032
19026WAT     H157320   7.833   4.035   5.991
19026WAT     H257321   7.835   4.198   5.983
19027WAT      O57322   0.346   2.088   9.697
19027WAT     H157323   0.253   2.075   9.663
19027WAT     H257324   0.406   2.018   9.659
19028WAT      O57325   9.581   4.279   6.372
19028WAT     H157326   9.507   4.240   6.427
19028WAT     H257327   9.610   4.366   6.411
19029WAT      O57328   8.003   6.783   0.783
19029WAT     H157329   7.993   6.882   0.773
19029WAT     H257330   8.005   6.760   0.880
19030WAT      O57331   0.370   9.800   9.300
19030WAT     H157332   0.343   9.786   9.396
19030WAT     H257333   0.331   9.726   9.244
19031WAT      O57334   1.663   4.260   3.379
19031WAT     H157335   1.725   4.307   3.442
19031WAT     H257336   1.578   4.238   3.426
19032WAT      O57337   0.212   8.364   0.673
19032WAT     H157338   0.252   8.433   0.613
19032WAT     H257339   0.243   8.273   0.645
19033WAT      O57340   0.783   3.734   1.599
19033WAT     H157341   0.826   3.823   1.613
19033WAT     H257342   0.832   3.664   1.651
19034WAT      O57343   3.504   6.155   2.228
19034WAT     H157344   3.410   6.188   2.223
19034WAT     H257345   3.557   6.193   2.153
19035WAT      O57346   4.865   2.592   3.565
19035WAT     H157347   4.920   2.652   3.507
19035WAT     H257348   4.923   2.553   3.637
19036WAT      O57349   4.688   8.574   0.099
19036WAT     H157350   4.632   8.566   0.016
19036WAT     H257351   4.728   8.485   0.121
19037WAT      O57352   0.643   0.652   4.840
19037WAT     H157353   0.596   0.628   4.925
19037WAT     H257354   0.629   0.580   4.772
19038WAT      O57355   1.863   2.310   7.451
19038WAT     H157356   1.931   2.287   7.521
19038WAT     H257357   1.901   2.378   7.388
19039WAT      O57358   5.947   5.447   0.105
19039WAT     H157359   5.970   5.523   0.044
19039WAT     H257360   5.849   5.428   0.100
19040WAT      O57361   8.174   0.783   1.626
19040WAT     H157362   8.169   0.700   1.570
19040WAT     H257363   8.244   0.844   1.590
19041WAT      O57364   5.503   3.586   8.018
19041WAT     H157365   5.582   3.647   8.011
19041WAT     H257366   5.476   3.578   8.114
19042WAT      O57367   2.583   7.434   1.567
19042WAT     H157368   2.629   7.521   1.555
19042WAT     H257369   2.575   7.387   1.479
19043WAT      O57370   8.387   4.346   7.479
19043WAT     H157371   8.471   4.371   7.430
19043WAT     H257372   8.384   4.247   7.491
19044WAT      O57373   6.750   7.062   4.983
19044WAT     H157374   6.665   7.009   4.981
19044WAT     H257375   6.806   7.032   5.061
19045WAT      O57376   1.476   1.665   8.105
19045WAT     H157377   1.536   1.744   8.091
19045WAT     H257378   1.429   1.643   8.020
19046WAT      O57379   2.359   2.699   0.285
19046WAT     H157380   2.286   2.753   0.243
19046WAT     H257381   2.407   2.646   0.215
19047WAT      O57382   3.432   5.770   8.793
19047WAT     H157383   3.341   5.803   8.818
19047WAT     H257384   3.500   5.808   8.856
19048WAT      O57385   4.885   2.646   7.940
19048WAT     H157386   4.868   2.739   7.909
19048WAT     H257387   4.983   2.629   7.945
19049WAT      O57388   9.214   4.255   6.635
19049WAT     H157389   9.304   4.216   6.615
19049WAT     H257390   9.154   4.244   6.556
19050WAT      O57391   4.306   3.590   0.198
19050WAT     H157392   4.280   3.672   0.249
19050WAT     H257393   4.258   3.511   0.235
19051WAT      O57394   4.188   1.370   4.240
19051WAT     H157395   4.183   1.393   4.143
19051WAT     H257396   4.283   1.353   4.266
19052WAT      O57397   5.443   1.565   5.301
19052WAT     H157398   5.477   1.580   5.394
19052WAT     H257399   5.356   1.516   5.305
19053WAT      O57400   2.017   3.286   2.610
19053WAT     H157401   2.106   3.242   2.626
19053WAT     H257402   1.955   3.220   2.568
19054WAT      O57403   2.420   7.269   6.139
19054WAT     H157404   2.408   7.344   6.204
19054WAT     H257405   2.383   7.295   6.050
19055WAT      O57406   7.013   9.746   2.787
19055WAT     H157407   7.095   9.708   2.745
19055WAT     H257408   6.932   9.698   2.754
19056WAT      O57409   3.071   9.157   8.748
19056WAT     H157410   2.974   9.140   8.729
19056WAT     H257411   3.085   9.164   8.846
19057WAT      O57412   2.749   4.911   4.295
19057WAT     H157413   2.812   4.845   4.254
19057WAT     H257414   2.703   4.962   4.223
19058WAT      O57415   4.917   0.094   8.247
19058WAT     H157416   4.967   0.017   8.207
19058WAT     H257417   4.887   0.156   8.174
19059WAT      O57418   1.119   3.948   5.108
19059WAT     H157419   1.105   3.970   5.012
19059WAT     H257420   1.204   3.989   5.140
19060WAT      O57421   5.273   7.522   3.121
19060WAT     H157422   5.259   7.592   3.191
19060WAT     H257423   5.299   7.565   3.035
19061WAT      O57424   5.157   0.504   7.389
19061WAT     H157425   5.211   0.579   7.352
19061WAT     H257426   5.188   0.418   7.348
19062WAT      O57427   3.815   3.108   7.079
19062WAT     H157428   3.784   3.114   7.174
19062WAT     H257429   3.882   3.034   7.071
19063WAT      O57430   9.001   3.852   1.830
19063WAT     H157431   8.906   3.878   1.813
19063WAT     H257432   9.031   3.888   1.919
19064WAT      O57433   4.169   7.406   4.607
19064WAT     H157434   4.202   7.382   4.516
19064WAT     H257435   4.093   7.471   4.599
19065WAT      O57436   0.375   2.879   2.539
19065WAT     H157437   0.321   2.923   2.611
19065WAT     H257438   0.466   2.922   2.535
19066WAT      O57439   6.801   7.708   4.548
19066WAT     H157440   6.790   7.751   4.458
19066WAT     H257441   6.863   7.629   4.540
19067WAT      O57442   0.634   8.023   9.694
19067WAT     H157443   0.540   7.989   9.691
19067WAT     H257444   0.641   8.107   9.639
19068WAT      O57445   7.333   2.156   1.444
19068WAT     H157446   7.341   2.254   1.463
19068WAT     H257447   7.395   2.131   1.369
19069WAT      O57448   5.518   0.909   7.376
19069WAT     H157449   5.558   0.964   7.449
19069WAT     H257450   5.555   0.938   7.288
19070WAT      O57451   8.032   1.674   1.640
19070WAT     H157452   7.940   1.700   1.668
19070WAT     H257453   8.075   1.619   1.712
19071WAT      O57454   7.956   0.717   6.542
19071WAT     H157455   7.888   0.692   6.473
19071WAT     H257456   8.022   0.643   6.552
19072WAT      O57457   1.544   7.693   8.652
19072WAT     H157458   1.608   7.763   8.619
19072WAT     H257459   1.457   7.702   8.604
19073WAT      O57460   8.359   8.263   2.321
19073WAT     H157461   8.315   8.215   2.396
19073WAT     H257462   8.356   8.362   2.338
19074WAT      O57463   2.508   0.535   3.164
19074WAT     H157464   2.601   0.517   3.131
19074WAT     H257465   2.442   0.493   3.102
19075WAT      O57466   5.492   2.008   1.135
19075WAT     H157467   5.399   1.976   1.148
19075WAT     H257468   5.540   1.948   1.072
19076WAT      O57469   9.427   1.821   2.691
19076WAT     H157470   9.470   1.866   2.770
19076WAT     H257471   9.484   1.745   2.660
19077WAT      O57472   6.030   9.742   2.794
19077WAT     H157473   6.058   9.719   2.887
19077WAT     H257474   6.014   9.658   2.742
19078WAT      O57475   8.607   5.854   5.957
19078WAT     H157476   8.546   5.776   5.972
19078WAT     H257477   8.647   5.882   6.045
19079WAT      O57478   1.512   0.835   0.400
19079WAT     H157479   1.490   0.881   0.486
19079WAT     H257480   1.463   0.879   0.325
19080WAT      O57481   1.795   0.451   6.694
19080WAT     H157482   1.803   0.352   6.680
19080WAT     H257483   1.798   0.471   6.792
19081WAT      O57484   7.145   9.052   6.011
19081WAT     H157485   7.055   9.045   5.969
19081WAT     H257486   7.142   9.012   6.102
19082WAT      O57487   8.563   0.676   8.127
19082WAT     H157488   8.506   0.627   8.062
19082WAT     H257489   8.506   0.714   8.199
19083WAT      O57490   5.308   2.515   3.531
19083WAT     H157491   5.281   2.607   3.559
19083WAT     H257492   5.236   2.474   3.475
19084WAT      O57493   4.031   3.566   5.531
19084WAT     H157494   3.978   3.649   5.549
19084WAT     H257495   3.978   3.505   5.472
19085WAT      O57496   8.758   7.306   5.247
19085WAT     H157497   8.841   7.307   5.303
19085WAT     H257498   8.765   7.233   5.179
19086WAT      O57499   0.914   0.812   7.952
19086WAT     H157500   0.827   0.789   7.909
19086WAT     H257501   0.988   0.803   7.884
19087WAT      O57502   4.934   7.105   7.857
19087WAT     H157503   4.976   7.183   7.902
19087WAT     H257504   4.835   7.108   7.869
19088WAT      O57505   3.038   3.499   7.949
19088WAT     H157506   3.118   3.476   8.005
19088WAT     H257507   3.050   3.590   7.908
19089WAT      O57508   2.248   1.232   3.371
19089WAT     H157509   2.329   1.191   3.329
19089WAT     H257510   2.187   1.265   3.299
19090WAT      O57511   2.589   3.393   1.234
19090WAT     H157512   2.598   3.398   1.334
19090WAT     H257513   2.498   3.357   1.211
19091WAT      O57514   9.611   9.157   7.663
19091WAT     H157515   9.614   9.234   7.599
19091WAT     H257516   9.523   9.157   7.710
19092WAT      O57517   7.965   2.227   4.640
19092WAT     H157518   7.918   2.246   4.727
19092WAT     H257519   8.053   2.184   4.658
19093WAT      O57520   7.629   7.843   8.954
19093WAT     H157521   7.704   7.856   8.889
19093WAT     H257522   7.576   7.762   8.930
19094WAT      O57523   0.159   1.854   9.266
19094WAT     H157524   0.086   1.918   9.244
19094WAT     H257525   0.120   1.773   9.309
19095WAT      O57526   2.533   2.827   7.422
19095WAT     H157527   2.574   2.749   7.375
19095WAT     H257528   2.457   2.796   7.479
19096WAT      O57529   2.338   0.006   6.321
19096WAT     H157530   2.275   0.073   6.281
19096WAT     H257531   2.329   0.008   6.421
19097WAT      O57532   4.024   1.381   5.293
19097WAT     H157533   4.032   1.456   5.358
19097WAT     H257534   4.116   1.348   5.270
19098WAT      O57535   2.473   6.683   1.216
19098WAT     H157536   2.525   6.695   1.300
19098WAT     H257537   2.533   6.698   1.137
19099WAT      O57538   8.166   7.238   7.331
19099WAT     H157539   8.190   7.149   7.370
19099WAT     H257540   8.067   7.245   7.322
19100WAT      O57541   0.546   9.448   4.767
19100WAT     H157542   0.628   9.500   4.743
19100WAT     H257543   0.550   9.358   4.723
19101WAT      O57544   9.072   4.007   2.063
19101WAT     H157545   9.000   3.980   2.126
19101WAT     H257546   9.123   4.084   2.101
19102WAT      O57547   9.811   3.146   6.993
19102WAT     H157548   9.716   3.121   6.978
19102WAT     H257549   9.864   3.124   6.911
19103WAT      O57550   7.006   0.551   1.688
19103WAT     H157551   7.047   0.520   1.773
19103WAT     H257552   7.077   0.592   1.630
19104WAT      O57553   8.228   7.648   4.803
19104WAT     H157554   8.303   7.648   4.737
19104WAT     H257555   8.145   7.615   4.758
19105WAT      O57556   6.641   6.976   3.237
19105WAT     H157557   6.543   6.994   3.241
19105WAT     H257558   6.662   6.889   3.281
19106WAT      O57559   2.071   3.157   2.919
19106WAT     H157560   1.980   3.198   2.921
19106WAT     H257561   2.140   3.229   2.919
19107WAT      O57562   5.792   3.592   6.705
19107WAT     H157563   5.717   3.542   6.662
19107WAT     H257564   5.818   3.668   6.646
19108WAT      O57565   6.417   2.174   9.788
19108WAT     H157566   6.361   2.130   9.718
19108WAT     H257567   6.359   2.209   9.861
19109WAT      O57568   2.768   0.501   3.068
19109WAT     H157569   2.747   0.571   3.000
19109WAT     H257570   2.867   0.492   3.077
19110WAT      O57571   0.877   8.267   1.055
19110WAT     H157572   0.778   8.258   1.069
19110WAT     H257573   0.906   8.204   0.984
19111WAT      O57574   0.845   8.048   3.120
19111WAT     H157575   0.871   7.953   3.107
19111WAT     H257576   0.927   8.106   3.114
19112WAT      O57577   8.772   5.498   7.029
19112WAT     H157578   8.785   5.437   7.107
19112WAT     H257579   8.850   5.560   7.022
19113WAT      O57580   6.515   9.302   7.606
19113WAT     H157581   6.586   9.240   7.571
19113WAT     H257582   6.426   9.256   7.601
19114WAT      O57583   3.310   9.342   9.112
19114WAT     H157584   3.283   9.375   9.202
19114WAT     H257585   3.361   9.414   9.064
19115WAT      O57586   5.657   5.159   7.366
19115WAT     H157587   5.599   5.240   7.357
19115WAT     H257588   5.658   5.108   7.280
19116WAT      O57589   5.359   1.907   5.136
19116WAT     H157590   5.272   1.862   5.114
19116WAT     H257591   5.350   1.954   5.224
19117WAT      O57592   5.812   8.985   0.201
19117WAT     H157593   5.911   8.997   0.199
19117WAT     H257594   5.783   8.930   0.123
19118WAT      O57595   8.129   6.407   0.806
19118WAT     H157596   8.181   6.489   0.782
19118WAT     H257597   8.160   6.331   0.749
19119WAT      O57598   3.809   3.128   0.292
19119WAT     H157599   3.806   3.160   0.387
19119WAT     H257600   3.785   3.031   0.289
19120WAT      O57601   3.883   3.861   0.802
19120WAT     H157602   3.948   3.938   0.805
19120WAT     H257603   3.790   3.896   0.813
19121WAT      O57604   8.431   1.051   6.019
19121WAT     H157605   8.336   1.032   5.998
19121WAT     H257606   8.437   1.106   6.103
19122WAT      O57607   2.912   7.469   7.703
19122WAT     H157608   2.999   7.428   7.677
19122WAT     H257609   2.859   7.403   7.757
19123WAT      O57610   1.322   6.732   9.711
19123WAT     H157611   1.248   6.780   9.663
19123WAT     H257612   1.294   6.713   9.805
19124WAT      O57613   9.791   4.950   1.885
19124WAT     H157614   9.696   4.931   1.860
19124WAT     H257615   9.798   5.044   1.918
19125WAT      O57616   1.481   7.735   8.186
19125WAT     H157617   1.485   7.662   8.255
19125WAT     H257618   1.388   7.770   8.179
19126WAT      O57619   5.424   8.667   4.474
19126WAT     H157620   5.492   8.735   4.500
19126WAT     H257621   5.457   8.575   4.498
19127WAT      O57622   4.452   2.590   0.569
19127WAT     H157623   4.476   2.658   0.500
19127WAT     H257624   4.362   2.552   0.550
19128WAT      O57625   1.598   9.602   6.929
19128WAT     H157626   1.541   9.573   6.852
19128WAT     H257627   1.545   9.663   6.989
19129WAT      O57628   9.777   8.150   4.225
19129WAT     H157629   9.854   8.120   4.282
19129WAT     H257630   9.780   8.249   4.214
19130WAT      O57631   8.550   4.653   5.229
19130WAT     H157632   8.615   4.722   5.200
19130WAT     H257633   8.457   4.689   5.222
19131WAT      O57634   5.731   4.502   9.235
19131WAT     H157635   5.758   4.595   9.259
19131WAT     H257636   5.746   4.441   9.313
19132WAT      O57637   6.820   1.009   2.007
19132WAT     H157638   6.812   0.979   1.912
19132WAT     H257639   6.777   1.099   2.017
19133WAT      O57640   2.766   5.635   7.677
19133WAT     H157641   2.730   5.580   7.752
19133WAT     H257642   2.836   5.697   7.712
19134WAT      O57643   6.801   5.042   3.586
19134WAT     H157644   6.706   5.027   3.611
19134WAT     H257645   6.817   5.012   3.492
19135WAT      O57646   2.476   4.912   9.032
19135WAT     H157647   2.505   4.875   8.943
19135WAT     H257648   2.379   4.894   9.045
19136WAT      O57649   5.771   3.687   5.619
19136WAT     H157650   5.871   3.688   5.630
19136WAT     H257651   5.740   3.775   5.584
19137WAT      O57652   4.104   4.503   5.283
19137WAT     H157653   4.095   4.407   5.312
19137WAT     H257654   4.096   4.508   5.184
19138WAT      O57655   4.023   4.010   3.786
19138WAT     H157656   3.935   3.975   3.754
19138WAT     H257657   4.079   3.934   3.820
19139WAT      O57658   7.679   0.995   0.154
19139WAT     H157659   7.608   0.937   0.113
19139WAT     H257660   7.769   0.967   0.119
19140WAT      O57661   8.411   3.221   2.049
19140WAT     H157662   8.363   3.145   2.092
19140WAT     H257663   8.364   3.247   1.964
19141WAT      O57664   3.560   7.816   3.185
19141WAT     H157665   3.597   7.802   3.276
19141WAT     H257666   3.520   7.731   3.151
19142WAT      O57667   6.985   4.833   6.293
19142WAT     H157668   6.947   4.925   6.296
19142WAT     H257669   6.956   4.782   6.374
19143WAT      O57670   5.068   2.480   3.708
19143WAT     H157671   5.108   2.566   3.677
19143WAT     H257672   5.095   2.462   3.802
19144WAT      O57673   0.293   2.084   5.452
19144WAT     H157674   0.306   2.165   5.396
19144WAT     H257675   0.211   2.094   5.509
19145WAT      O57676   2.710   2.974   6.120
19145WAT     H157677   2.803   2.985   6.084
19145WAT     H257678   2.647   3.028   6.064
19146WAT      O57679   6.834   2.173   0.269
19146WAT     H157680   6.795   2.142   0.182
19146WAT     H257681   6.765   2.165   0.341
19147WAT      O57682   9.605   2.750   2.443
19147WAT     H157683   9.685   2.780   2.495
19147WAT     H257684   9.626   2.755   2.345
19148WAT      O57685   2.051   5.338   1.038
19148WAT     H157686   2.125   5.398   1.070
19148WAT     H257687   2.029   5.272   1.110
19149WAT      O57688   3.122   5.238   0.175
19149WAT     H157689   3.036   5.268   0.133
19149WAT     H257690   3.134   5.283   0.264
19150WAT      O57691   8.303   5.322   2.472
19150WAT     H157692   8.276   5.306   2.567
19150WAT     H257693   8.354   5.243   2.438
19151WAT      O57694   6.802   2.484   4.841
19151WAT     H157695   6.852   2.402   4.813
19151WAT     H257696   6.863   2.546   4.890
19152WAT      O57697   8.488   1.916   0.201
19152WAT     H157698   8.546   1.979   0.149
19152WAT     H257699   8.398   1.958   0.215
19153WAT      O57700   5.357   6.055   6.663
19153WAT     H157701   5.274   6.064   6.717
19153WAT     H257702   5.435   6.089   6.716
19154WAT      O57703   0.236   3.151   6.919
19154WAT     H157704   0.287   3.065   6.912
19154WAT     H257705   0.282   3.213   6.982
19155WAT      O57706   8.400   9.568   8.507
19155WAT     H157707   8.454   9.628   8.448
19155WAT     H257708   8.423   9.473   8.488
19156WAT      O57709   3.522   9.797   6.836
19156WAT     H157710   3.552   9.821   6.928
19156WAT     H257711   3.541   9.873   6.774
19157WAT      O57712   2.682   8.747   9.834
19157WAT     H157713   2.763   8.741   9.774
19157WAT     H257714   2.656   8.656   9.865
19158WAT      O57715   7.200   6.185   7.485
19158WAT     H157716   7.215   6.237   7.569
19158WAT     H257717   7.220   6.242   7.405
19159WAT      O57718   9.877   9.700   2.788
19159WAT     H157719   9.870   9.686   2.887
19159WAT     H257720   9.879   9.798   2.769
19160WAT      O57721   6.371   4.274   8.166
19160WAT     H157722   6.332   4.322   8.244
19160WAT     H257723   6.396   4.181   8.193
19161WAT      O57724   2.911   1.700   0.030
19161WAT     H157725   2.855   1.753   0.094
19161WAT     H257726   2.985   1.655   0.079
19162WAT      O57727   2.279   9.627   8.860
19162WAT     H157728   2.225   9.543   8.867
19162WAT     H257729   2.349   9.628   8.931
19163WAT      O57730   1.806   0.575   2.080
19163WAT     H157731   1.793   0.479   2.056
19163WAT     H257732   1.902   0.592   2.102
19164WAT      O57733   0.694   2.411   6.552
19164WAT     H157734   0.749   2.459   6.483
19164WAT     H257735   0.696   2.462   6.638
19165WAT      O57736   0.057   4.558   7.666
19165WAT     H157737  -0.004   4.576   7.589
19165WAT     H257738   0.151   4.550   7.632
19166WAT      O57739   3.612   1.055   7.895
19166WAT     H157740   3.571   1.045   7.986
19166WAT     H257741   3.556   1.006   7.828
19167WAT      O57742   8.508   5.106   6.293
19167WAT     H157743   8.421   5.085   6.337
19167WAT     H257744   8.536   5.199   6.317
19168WAT      O57745   2.481   6.750   7.648
19168WAT     H157746   2.463   6.840   7.688
19168WAT     H257747   2.505   6.761   7.551
19169WAT      O57748   4.506   0.486   3.971
19169WAT     H157749   4.417   0.449   3.945
19169WAT     H257750   4.572   0.411   3.978
19170WAT      O57751   7.096   1.005   8.569
19170WAT     H157752   7.058   0.941   8.636
19170WAT     H257753   7.120   1.091   8.615
19171WAT      O57754   3.403   3.022   3.760
19171WAT     H157755   3.391   3.020   3.661
19171WAT     H257756   3.470   3.092   3.784
19172WAT      O57757   3.462   4.237   6.830
19172WAT     H157758   3.536   4.240   6.763
19172WAT     H257759   3.415   4.149   6.824
19173WAT      O57760   3.896   1.824   0.835
19173WAT     H157761   3.931   1.796   0.924
19173WAT     H257762   3.810   1.872   0.847
19174WAT      O57763   4.585   0.859   0.518
19174WAT     H157764   4.637   0.808   0.450
19174WAT     H257765   4.535   0.796   0.577
19175WAT      O57766   1.892   7.644   4.335
19175WAT     H157767   1.799   7.652   4.369
19175WAT     H257768   1.944   7.727   4.359
19176WAT      O57769   1.545   8.491   1.031
19176WAT     H157770   1.607   8.434   1.085
19176WAT     H257771   1.580   8.585   1.029
19177WAT      O57772   5.774   8.379   8.789
19177WAT     H157773   5.710   8.451   8.815
19177WAT     H257774   5.853   8.382   8.850
19178WAT      O57775   5.785   3.767   7.326
19178WAT     H157776   5.803   3.676   7.363
19178WAT     H257777   5.702   3.804   7.369
19179WAT      O57778   4.980   6.085   9.780
19179WAT     H157779   4.911   6.034   9.728
19179WAT     H257780   4.938   6.166   9.821
19180WAT      O57781   9.105   6.813   7.712
19180WAT     H157782   9.158   6.736   7.676
19180WAT     H257783   9.009   6.785   7.722
19181WAT      O57784   2.266   4.933   7.483
19181WAT     H157785   2.169   4.918   7.505
19181WAT     H257786   2.295   5.021   7.521
19182WAT      O57787   0.619   3.790   6.844
19182WAT     H157788   0.579   3.757   6.758
19182WAT     H257789   0.707   3.832   6.825
19183WAT      O57790   7.288   2.853   8.180
19183WAT     H157791   7.241   2.914   8.244
19183WAT     H257792   7.382   2.840   8.210
19184WAT      O57793   2.870   6.792   5.006
19184WAT     H157794   2.894   6.803   4.910
19184WAT     H257795   2.939   6.736   5.052
19185WAT      O57796   4.722   5.078   8.480
19185WAT     H157797   4.755   5.033   8.563
19185WAT     H257798   4.676   5.011   8.422
19186WAT      O57799   9.519   7.621   6.253
19186WAT     H157800   9.534   7.558   6.330
19186WAT     H257801   9.464   7.575   6.183
19187WAT      O57802   3.978   5.083   6.898
19187WAT     H157803   3.965   5.009   6.832
19187WAT     H257804   3.896   5.141   6.900
19188WAT      O57805   5.935   8.652   6.735
19188WAT     H157806   5.852   8.599   6.721
19188WAT     H257807   5.990   8.610   6.808
19189WAT      O57808   4.911   7.716   1.756
19189WAT     H157809   4.912   7.722   1.856
19189WAT     H257810   4.969   7.640   1.727
19190WAT      O57811   8.666   8.441   4.189
19190WAT     H157812   8.588   8.405   4.240
19190WAT     H257813   8.750   8.425   4.240
19191WAT      O57814   7.311   4.490   1.728
19191WAT     H157815   7.263   4.501   1.640
19191WAT     H257816   7.377   4.563   1.740
19192WAT      O57817   7.964   4.424   6.301
19192WAT     H157818   7.937   4.480   6.379
19192WAT     H257819   7.930   4.331   6.314
19193WAT      O57820   8.330   6.586   6.261
19193WAT     H157821   8.248   6.614   6.310
19193WAT     H257822   8.409   6.591   6.322
19194WAT      O57823   5.814   9.770   5.846
19194WAT     H157824   5.764   9.855   5.831
19194WAT     H257825   5.868   9.748   5.765
19195WAT      O57826   6.165   8.486   7.261
19195WAT     H157827   6.244   8.439   7.221
19195WAT     H257828   6.092   8.419   7.277
19196WAT      O57829   6.245   5.551   7.228
19196WAT     H157830   6.247   5.493   7.147
19196WAT     H257831   6.310   5.626   7.217
19197WAT      O57832   5.655   7.437   3.213
19197WAT     H157833   5.707   7.505   3.161
19197WAT     H257834   5.580   7.403   3.157
19198WAT      O57835   1.269   6.183   1.659
19198WAT     H157836   1.254   6.120   1.582
19198WAT     H257837   1.367   6.200   1.670
19199WAT      O57838   7.062   4.988   7.978
19199WAT     H157839   6.972   5.014   7.943
19199WAT     H257840   7.129   4.994   7.904
19200WAT      O57841   3.883   8.778   8.433
19200WAT     H157842   3.952   8.706   8.445
19200WAT     H257843   3.792   8.739   8.451
19201WAT      O57844   1.175   5.844   3.897
19201WAT     H157845   1.088   5.796   3.891
19201WAT     H257846   1.237   5.792   3.956
19202WAT      O57847   3.562   8.195   0.776
19202WAT     H157848   3.563   8.252   0.693
19202WAT     H257849   3.542   8.253   0.855
19203WAT      O57850   8.129   8.215   0.954
19203WAT     H157851   8.177   8.244   1.037
19203WAT     H257852   8.138   8.116   0.944
19204WAT      O57853   6.298   0.276   3.809
19204WAT     H157854   6.310   0.285   3.908
19204WAT     H257855   6.300   0.180   3.784
19205WAT      O57856   2.336   5.642   2.092
19205WAT     H157857   2.276   5.637   2.011
19205WAT     H257858   2.431   5.651   2.062
19206WAT      O57859   4.399   4.368   0.326
19206WAT     H157860   4.398   4.322   0.237
19206WAT     H257861   4.492   4.368   0.362
19207WAT      O57862   4.159   8.396   6.870
19207WAT     H157863   4.235   8.410   6.807
19207WAT     H257864   4.081   8.358   6.820
19208WAT      O57865   6.191   4.922   0.953
19208WAT     H157866   6.188   5.005   1.008
19208WAT     H257867   6.270   4.867   0.979
19209WAT      O57868   2.392   4.252   8.303
19209WAT     H157869   2.471   4.275   8.360
19209WAT     H257870   2.380   4.153   8.303
19210WAT      O57871   5.138   0.280   4.176
19210WAT     H157872   5.070   0.351   4.193
19210WAT     H257873   5.225   0.322   4.151
19211WAT      O57874   7.473   0.262   2.346
19211WAT     H157875   7.506   0.316   2.269
19211WAT     H257876   7.485   0.165   2.326
19212WAT      O57877   4.235   7.179   3.347
19212WAT     H157878   4.154   7.226   3.383
19212WAT     H257879   4.298   7.160   3.422
19213WAT      O57880   2.045   6.796   1.538
19213WAT     H157881   1.988   6.849   1.476
19213WAT     H257882   2.035   6.699   1.517
19214WAT      O57883   3.658   4.821   1.808
19214WAT     H157884   3.635   4.911   1.770
19214WAT     H257885   3.657   4.754   1.734
19215WAT      O57886   9.118   2.789   3.465
19215WAT     H157887   9.082   2.882   3.456
19215WAT     H257888   9.174   2.783   3.548
19216WAT      O57889   5.610   2.301   3.194
19216WAT     H157890   5.664   2.378   3.229
19216WAT     H257891   5.531   2.336   3.144
19217WAT      O57892   1.802   6.758   6.330
19217WAT     H157893   1.735   6.829   6.352
19217WAT     H257894   1.801   6.688   6.401
19218WAT      O57895   2.798   2.483   3.773
19218WAT     H157896   2.745   2.561   3.739
19218WAT     H257897   2.772   2.401   3.723
19219WAT      O57898   6.846   5.969   6.560
19219WAT     H157899   6.840   5.882   6.610
19219WAT     H257900   6.760   6.019   6.570
19220WAT      O57901   8.195   3.147   8.203
19220WAT     H157902   8.270   3.196   8.158
19220WAT     H257903   8.167   3.070   8.146
19221WAT      O57904   9.116   7.499   5.176
19221WAT     H157905   9.133   7.544   5.264
19221WAT     H257906   9.160   7.409   5.177
19222WAT      O57907   5.371   0.762   6.375
19222WAT     H157908   5.444   0.830   6.381
19222WAT     H257909   5.409   0.671   6.392
19223WAT      O57910   4.827   6.863   6.899
19223WAT     H157911   4.789   6.912   6.977
19223WAT     H257912   4.852   6.928   6.828
19224WAT      O57913   3.730   5.614   3.099
19224WAT     H157914   3.676   5.549   3.153
19224WAT     H257915   3.697   5.707   3.117
19225WAT      O57916   6.820   0.653   3.653
19225WAT     H157917   6.769   0.678   3.571
19225WAT     H257918   6.917   0.673   3.640
19226WAT      O57919   9.125   2.532   0.937
19226WAT     H157920   9.214   2.573   0.917
19226WAT     H257921   9.076   2.588   1.004
19227WAT      O57922   0.723   8.776   7.752
19227WAT     H157923   0.679   8.865   7.768
19227WAT     H257924   0.747   8.735   7.840
19228WAT      O57925   3.778   7.425   7.721
19228WAT     H157926   3.813   7.510   7.761
19228WAT     H257927   3.855   7.366   7.695
19229WAT      O57928   3.209   5.217   7.165
19229WAT     H157929   3.210   5.307   7.208
19229WAT     H257930   3.187   5.148   7.234
19230WAT      O57931   4.638   4.336   6.282
19230WAT     H157932   4.700   4.305   6.355
19230WAT     H257933   4.692   4.377   6.208
19231WAT      O57934   7.562   6.050   2.025
19231WAT     H157935   7.588   6.030   1.930
19231WAT     H257936   7.462   6.043   2.033
19232WAT      O57937   5.399   5.073   9.853
19232WAT     H157938   5.492   5.091   9.885
19232WAT     H257939   5.346   5.158   9.855
19233WAT      O57940   4.036   1.142   3.268
19233WAT     H157941   3.979   1.169   3.191
19233WAT     H257942   4.002   1.186   3.351
19234WAT      O57943   2.995   6.044   1.461
19234WAT     H157944   3.015   5.949   1.484
19234WAT     H257945   3.078   6.089   1.428
19235WAT      O57946   1.284   7.398   3.941
19235WAT     H157947   1.301   7.409   3.843
19235WAT     H257948   1.189   7.423   3.961
19236WAT      O57949   1.206   5.844   4.352
19236WAT     H157950   1.124   5.902   4.344
19236WAT     H257951   1.248   5.833   4.262
19237WAT      O57952   3.668   5.833   9.191
19237WAT     H157953   3.617   5.755   9.228
19237WAT     H257954   3.671   5.906   9.259
19238WAT      O57955   3.897   2.212   6.741
19238WAT     H157956   3.949   2.135   6.705
19238WAT     H257957   3.958   2.290   6.757
19239WAT      O57958   6.958   6.211   7.728
19239WAT     H157959   6.886   6.188   7.793
19239WAT     H257960   6.998   6.126   7.692
19240WAT      O57961   0.237   5.954   5.998
19240WAT     H157962   0.302   6.014   6.043
19240WAT     H257963   0.162   6.008   5.960
19241WAT      O57964   6.106   2.326   1.811
19241WAT     H157965   6.067   2.371   1.892
19241WAT     H257966   6.193   2.283   1.836
19242WAT      O57967   5.509   9.301   4.603
19242WAT     H157968   5.553   9.259   4.682
19242WAT     H257969   5.505   9.400   4.616
19243WAT      O57970   5.927   2.923   4.109
19243WAT     H157971   5.866   2.890   4.182
19243WAT     H257972   6.012   2.956   4.150
19244WAT      O57973   1.850   9.704   6.436
19244WAT     H157974   1.884   9.795   6.413
19244WAT     H257975   1.909   9.635   6.395
19245WAT      O57976   5.803   2.487   3.428
19245WAT     H157977   5.861   2.514   3.351
19245WAT     H257978   5.715   2.535   3.421
19246WAT      O57979   2.300   8.956   7.953
19246WAT     H157980   2.372   8.891   7.978
19246WAT     H257981   2.211   8.919   7.981
19247WAT      O57982   6.482   2.160   7.699
19247WAT     H157983   6.559   2.177   7.637
19247WAT     H257984   6.434   2.076   7.671
19248WAT      O57985   3.225   9.425   9.367
19248WAT     H157986   3.137   9.407   9.410
19248WAT     H257987   3.266   9.507   9.408
19249WAT      O57988   7.793   6.394   7.434
19249WAT     H157989   7.717   6.331   7.448
19249WAT     H257990   7.779   6.476   7.490
19250WAT      O57991   4.082   2.450   3.320
19250WAT     H157992   4.001   2.501   3.349
19250WAT     H257993   4.153   2.515   3.291
19251WAT      O57994   8.414   1.385   7.185
19251WAT     H157995   8.363   1.309   7.144
19251WAT     H257996   8.351   1.445   7.234
19252WAT      O57997   8.079   2.867   5.050
19252WAT     H157998   8.123   2.798   4.993
19252WAT     H257999   8.087   2.842   5.146
19253WAT      O58000   8.372   4.369   5.996
19253WAT     H158001   8.373   4.372   5.896
19253WAT     H258002   8.279   4.387   6.029
19254WAT      O58003   1.204   1.015   2.385
19254WAT     H158004   1.169   1.065   2.464
19254WAT     H258005   1.207   1.076   2.306
19255WAT      O58006   8.137   2.228   3.798
19255WAT     H158007   8.048   2.242   3.842
19255WAT     H258008   8.124   2.182   3.711
19256WAT      O58009   6.232   3.937   5.934
19256WAT     H158010   6.317   3.889   5.912
19256WAT     H258011   6.250   4.007   6.003
19257WAT      O58012   6.850   8.095   2.031
19257WAT     H158013   6.867   8.030   1.957
19257WAT     H258014   6.831   8.046   2.116
19258WAT      O58015   8.366   1.797   2.113
19258WAT     H158016   8.272   1.763   2.112
19258WAT     H258017   8.408   1.777   2.202
19259WAT      O58018   4.115   7.099   4.796
19259WAT     H158019   4.026   7.069   4.763
19259WAT     H258020   4.123   7.077   4.893
19260WAT      O58021   4.677   5.355   3.316
19260WAT     H158022   4.622   5.288   3.266
19260WAT     H258023   4.771   5.323   3.322
19261WAT      O58024   1.703   9.840   1.206
19261WAT     H158025   1.642   9.772   1.166
19261WAT     H258026   1.743   9.897   1.134
19262WAT      O58027   2.038   5.702   5.984
19262WAT     H158028   2.083   5.781   5.944
19262WAT     H258029   1.942   5.724   6.003
19263WAT      O58030   0.962   5.780   2.438
19263WAT     H158031   0.942   5.725   2.357
19263WAT     H258032   0.926   5.872   2.425
19264WAT      O58033   9.260   8.256   1.211
19264WAT     H158034   9.214   8.212   1.135
19264WAT     H258035   9.256   8.197   1.292
19265WAT      O58036   3.082   0.887   4.746
19265WAT     H158037   2.986   0.878   4.720
19265WAT     H258038   3.113   0.804   4.792
19266WAT      O58039   2.188   2.934   4.152
19266WAT     H158040   2.213   2.946   4.247
19266WAT     H258041   2.254   2.980   4.093
19267WAT      O58042   1.944   6.629   1.202
19267WAT     H158043   1.950   6.569   1.282
19267WAT     H258044   2.036   6.657   1.175
19268WAT      O58045   6.471   9.495   3.197
19268WAT     H158046   6.515   9.565   3.253
19268WAT     H258047   6.449   9.534   3.107
19269WAT      O58048   8.305   9.806   8.308
19269WAT     H158049   8.326   9.863   8.388
19269WAT     H258050   8.241   9.854   8.249
19270WAT      O58051   6.068   7.379   5.212
19270WAT     H158052   6.063   7.415   5.119
19270WAT     H258053   6.013   7.435   5.273
19271WAT      O58054   8.670   6.210   4.163
19271WAT     H158055   8.586   6.188   4.114
19271WAT     H258056   8.692   6.137   4.227
19272WAT      O58057   1.978   0.391   6.070
19272WAT     H158058   1.920   0.387   5.989
19272WAT     H258059   1.929   0.437   6.144
19273WAT      O58060   7.530   7.463   1.941
19273WAT     H158061   7.593   7.460   1.864
19273WAT     H258062   7.442   7.423   1.914
19274WAT      O58063   7.751   6.055   6.283
19274WAT     H158064   7.778   6.063   6.379
19274WAT     H258065   7.672   6.114   6.266
19275WAT      O58066   5.874   4.531   8.715
19275WAT     H158067   5.819   4.533   8.799
19275WAT     H258068   5.970   4.541   8.738
19276WAT      O58069   7.417   6.217   4.574
19276WAT     H158070   7.482   6.292   4.586
19276WAT     H258071   7.331   6.240   4.619
19277WAT      O58072   3.035   2.977   8.167
19277WAT     H158073   3.122   2.978   8.118
19277WAT     H258074   3.041   2.914   8.245
19278WAT      O58075   8.331   4.613   8.325
19278WAT     H158076   8.257   4.678   8.342
19278WAT     H258077   8.334   4.592   8.227
19279WAT      O58078   5.406   3.604   2.235
19279WAT     H158079   5.413   3.534   2.306
19279WAT     H258080   5.401   3.695   2.277
19280WAT      O58081   9.879   0.527   7.468
19280WAT     H158082   9.786   0.517   7.503
19280WAT     H258083   9.908   0.622   7.481
19281WAT      O58084   9.051   8.827   6.356
19281WAT     H158085   9.041   8.739   6.403
19281WAT     H258086   9.025   8.816   6.260
19282WAT      O58087   8.287   6.500   9.591
19282WAT     H158088   8.194   6.518   9.557
19282WAT     H258089   8.353   6.525   9.521
19283WAT      O58090   2.428   4.881   5.519
19283WAT     H158091   2.488   4.911   5.594
19283WAT     H258092   2.413   4.957   5.456
19284WAT      O58093   3.553   6.657   0.980
19284WAT     H158094   3.457   6.688   0.979
19284WAT     H258095   3.583   6.641   0.885
19285WAT      O58096   9.631   7.772   2.029
19285WAT     H158097   9.703   7.808   1.970
19285WAT     H258098   9.542   7.804   1.997
19286WAT      O58099   2.904   7.210   6.909
19286WAT     H158100   2.968   7.163   6.969
19286WAT     H258101   2.903   7.308   6.931
19287WAT      O58102   3.621   2.460   0.063
19287WAT     H158103   3.702   2.403   0.052
19287WAT     H258104   3.609   2.481   0.161
19288WAT      O58105   5.922   6.679   0.358
19288WAT     H158106   5.856   6.605   0.370
19288WAT     H258107   5.918   6.713   0.264
19289WAT      O58108   3.442   7.194   2.031
19289WAT     H158109   3.521   7.202   2.092
19289WAT     H258110   3.369   7.254   2.064
19290WAT      O58111   7.278   9.501   5.192
19290WAT     H158112   7.283   9.594   5.155
19290WAT     H258113   7.236   9.504   5.283
19291WAT      O58114   7.011   1.955   4.172
19291WAT     H158115   7.000   2.027   4.104
19291WAT     H258116   6.951   1.974   4.250
19292WAT      O58117   2.007   6.524   1.499
19292WAT     H158118   2.098   6.492   1.523
19292WAT     H258119   1.938   6.460   1.533
19293WAT      O58120   0.017   0.121   9.291
19293WAT     H158121   0.112   0.151   9.281
19293WAT     H258122  -0.044   0.199   9.279
19294WAT      O58123   1.023   8.599   6.879
19294WAT     H158124   1.108   8.600   6.828
19294WAT     H258125   1.026   8.526   6.947
19295WAT      O58126   8.287   0.466   0.756
19295WAT     H158127   8.279   0.442   0.853
19295WAT     H258128   8.197   0.491   0.721
19296WAT      O58129   1.656   3.203   3.587
19296WAT     H158130   1.612   3.153   3.661
19296WAT     H258131   1.727   3.263   3.625
19297WAT      O58132   4.662   5.896   5.668
19297WAT     H158133   4.712   5.828   5.722
19297WAT     H258134   4.692   5.988   5.693
19298WAT      O58135   3.710   7.225   4.930
19298WAT     H158136   3.726   7.212   5.028
19298WAT     H258137   3.798   7.234   4.883
19299WAT      O58138   6.214   0.864   3.750
19299WAT     H158139   6.117   0.843   3.764
19299WAT     H258140   6.269   0.807   3.811
19300WAT      O58141   7.491   3.692   4.747
19300WAT     H158142   7.432   3.628   4.796
19300WAT     H258143   7.561   3.640   4.697
19301WAT      O58144   7.830   8.052   6.604
19301WAT     H158145   7.855   8.124   6.670
19301WAT     H258146   7.912   8.008   6.570
19302WAT      O58147   7.912   9.744   9.243
19302WAT     H158148   7.917   9.832   9.289
19302WAT     H258149   7.935   9.671   9.307
19303WAT      O58150   8.001   4.753   4.724
19303WAT     H158151   7.909   4.764   4.686
19303WAT     H258152   8.003   4.785   4.818
19304WAT      O58153   5.599   7.348   5.313
19304WAT     H158154   5.579   7.288   5.390
19304WAT     H258155   5.668   7.305   5.255
19305WAT      O58156   6.111   6.571   0.091
19305WAT     H158157   6.128   6.661   0.053
19305WAT     H258158   6.015   6.546   0.076
19306WAT      O58159   4.388   3.701   8.586
19306WAT     H158160   4.370   3.641   8.508
19306WAT     H258161   4.365   3.653   8.671
19307WAT      O58162   3.123   1.445   2.098
19307WAT     H158163   3.208   1.427   2.049
19307WAT     H258164   3.048   1.456   2.033
19308WAT      O58165   6.971   3.474   6.401
19308WAT     H158166   7.021   3.478   6.314
19308WAT     H258167   6.976   3.563   6.446
19309WAT      O58168   7.197   1.448   4.078
19309WAT     H158169   7.166   1.432   4.172
19309WAT     H258170   7.295   1.430   4.072
19310WAT      O58171   5.438   9.279   6.863
19310WAT     H158172   5.370   9.287   6.936
19310WAT     H258173   5.397   9.313   6.778
19311WAT      O58174   3.639   0.527   2.271
19311WAT     H158175   3.607   0.568   2.186
19311WAT     H258176   3.571   0.461   2.304
19312WAT      O58177   4.870   5.201   0.867
19312WAT     H158178   4.954   5.174   0.819
19312WAT     H258179   4.825   5.120   0.905
19313WAT      O58180   2.394   4.125   7.510
19313WAT     H158181   2.435   4.202   7.462
19313WAT     H258182   2.333   4.075   7.449
19314WAT      O58183   9.068   4.045   6.719
19314WAT     H158184   9.127   4.119   6.688
19314WAT     H258185   8.987   4.041   6.661
19315WAT      O58186   0.636   3.501   4.009
19315WAT     H158187   0.609   3.529   4.101
19315WAT     H258188   0.618   3.576   3.945
19316WAT      O58189   5.787   6.442   0.400
19316WAT     H158190   5.710   6.378   0.395
19316WAT     H258191   5.870   6.394   0.428
19317WAT      O58192   2.645   2.000   9.012
19317WAT     H158193   2.657   2.017   8.914
19317WAT     H258194   2.704   2.061   9.064
19318WAT      O58195   3.134   1.920   4.765
19318WAT     H158196   3.035   1.914   4.754
19318WAT     H258197   3.169   1.996   4.710
19319WAT      O58198   1.801   2.558   6.550
19319WAT     H158199   1.766   2.492   6.616
19319WAT     H258200   1.766   2.649   6.572
19320WAT      O58201   3.669   9.696   3.402
19320WAT     H158202   3.654   9.755   3.323
19320WAT     H258203   3.592   9.633   3.413
19321WAT      O58204   2.962   8.391   9.244
19321WAT     H158205   2.909   8.327   9.300
19321WAT     H258206   2.978   8.351   9.154
19322WAT      O58207   3.150   5.784   7.052
19322WAT     H158208   3.236   5.803   7.006
19322WAT     H258209   3.136   5.685   7.058
19323WAT      O58210   0.779   3.210   7.794
19323WAT     H158211   0.767   3.239   7.699
19323WAT     H258212   0.821   3.284   7.846
19324WAT      O58213   5.906   2.678   2.261
19324WAT     H158214   5.837   2.739   2.301
19324WAT     H258215   5.863   2.620   2.191
19325WAT      O58216   1.580   3.899   9.718
19325WAT     H158217   1.559   3.993   9.691
19325WAT     H258218   1.665   3.897   9.769
19326WAT      O58219   3.045   9.622   3.773
19326WAT     H158220   3.061   9.603   3.870
19326WAT     H258221   3.106   9.566   3.717
19327WAT      O58222   7.752   7.367   9.391
19327WAT     H158223   7.820   7.436   9.369
19327WAT     H258224   7.682   7.407   9.451
19328WAT      O58225   0.033   3.723   9.668
19328WAT     H158226   0.009   3.722   9.571
19328WAT     H258227  -0.032   3.781   9.717
19329WAT      O58228   6.134   2.689   2.750
19329WAT     H158229   6.047   2.641   2.733
19329WAT     H258230   6.120   2.787   2.737
19330WAT      O58231   2.203   4.458   2.070
19330WAT     H158232   2.168   4.422   2.157
19330WAT     H258233   2.299   4.482   2.080
19331WAT      O58234   0.110   8.635   6.170
19331WAT     H158235   0.093   8.666   6.264
19331WAT     H258236   0.024   8.634   6.119
19332WAT      O58237   9.295   2.942   8.125
19332WAT     H158238   9.206   2.926   8.167
19332WAT     H258239   9.307   3.040   8.110
19333WAT      O58240   3.187   0.924   4.485
19333WAT     H158241   3.183   0.826   4.465
19333WAT     H258242   3.162   0.940   4.580
19334WAT      O58243   3.212   5.891   6.304
19334WAT     H158244   3.255   5.810   6.264
19334WAT     H258245   3.133   5.918   6.248
19335WAT      O58246   6.318   6.967   7.013
19335WAT     H158247   6.322   6.904   7.090
19335WAT     H258248   6.303   7.060   7.045
19336WAT      O58249   7.874   5.553   3.608
19336WAT     H158250   7.814   5.628   3.580
19336WAT     H258251   7.913   5.574   3.697
19337WAT      O58252   5.527   3.152   7.406
19337WAT     H158253   5.606   3.125   7.461
19337WAT     H258254   5.455   3.186   7.466
19338WAT      O58255   7.945   8.221   9.595
19338WAT     H158256   7.984   8.190   9.507
19338WAT     H258257   7.941   8.144   9.658
19339WAT      O58258   2.544   7.266   4.447
19339WAT     H158259   2.575   7.219   4.364
19339WAT     H258260   2.459   7.223   4.480
19340WAT      O58261   4.287   0.504   0.953
19340WAT     H158262   4.338   0.585   0.982
19340WAT     H258263   4.313   0.426   1.010
19341WAT      O58264   6.483   5.609   7.561
19341WAT     H158265   6.568   5.598   7.612
19341WAT     H258266   6.430   5.684   7.599
19342WAT      O58267   8.360   3.666   9.199
19342WAT     H158268   8.358   3.615   9.286
19342WAT     H258269   8.436   3.731   9.201
19343WAT      O58270   2.209   0.391   3.216
19343WAT     H158271   2.146   0.362   3.144
19343WAT     H258272   2.189   0.485   3.242
19344WAT      O58273   4.516   6.691   1.299
19344WAT     H158274   4.528   6.737   1.387
19344WAT     H258275   4.586   6.722   1.235
19345WAT      O58276   4.536   1.527   1.950
19345WAT     H158277   4.502   1.572   2.033
19345WAT     H258278   4.533   1.428   1.962
19346WAT      O58279   2.046   8.279   9.136
19346WAT     H158280   2.045   8.180   9.154
19346WAT     H258281   2.045   8.295   9.038
19347WAT      O58282   5.488   4.921   6.288
19347WAT     H158283   5.506   4.924   6.190
19347WAT     H258284   5.505   5.012   6.328
19348WAT      O58285   7.035   0.362   5.211
19348WAT     H158286   7.108   0.340   5.147
19348WAT     H258287   7.074   0.376   5.302
19349WAT      O58288   0.914   3.143   7.069
19349WAT     H158289   0.859   3.061   7.059
19349WAT     H258290   0.931   3.183   6.978
19350WAT      O58291   7.559   5.961   5.322
19350WAT     H158292   7.567   5.863   5.304
19350WAT     H258293   7.642   5.993   5.367
19351WAT      O58294   1.121   0.779   7.789
19351WAT     H158295   1.149   0.684   7.772
19351WAT     H258296   1.097   0.822   7.703
19352WAT      O58297   2.331   4.328   2.327
19352WAT     H158298   2.231   4.324   2.325
19352WAT     H258299   2.366   4.244   2.367
19353WAT      O58300   1.651   4.853   7.893
19353WAT     H158301   1.643   4.892   7.802
19353WAT     H258302   1.604   4.765   7.896
19354WAT      O58303   5.900   8.331   5.588
19354WAT     H158304   5.927   8.347   5.683
19354WAT     H258305   5.829   8.261   5.586
19355WAT      O58306   5.908   7.578   5.302
19355WAT     H158307   5.986   7.641   5.309
19355WAT     H258308   5.863   7.573   5.391
19356WAT      O58309   8.457   9.773   6.682
19356WAT     H158310   8.531   9.710   6.658
19356WAT     H258311   8.458   9.791   6.780
19357WAT      O58312   5.712   5.122   6.667
19357WAT     H158313   5.709   5.139   6.765
19357WAT     H258314   5.676   5.201   6.618
19358WAT      O58315   9.046   2.801   6.967
19358WAT     H158316   9.025   2.744   6.888
19358WAT     H258317   8.964   2.850   6.996
19359WAT      O58318   0.041   6.288   6.120
19359WAT     H158319   0.078   6.381   6.121
19359WAT     H258320   0.042   6.252   6.027
19360WAT      O58321   1.888   9.468   3.304
19360WAT     H158322   1.801   9.505   3.336
19360WAT     H258323   1.932   9.535   3.243
19361WAT      O58324   9.422   1.765   6.309
19361WAT     H158325   9.326   1.763   6.283
19361WAT     H258326   9.432   1.729   6.402
19362WAT      O58327   6.740   7.604   7.635
19362WAT     H158328   6.795   7.651   7.567
19362WAT     H258329   6.720   7.666   7.711
19363WAT      O58330   3.378   3.855   9.146
19363WAT     H158331   3.286   3.861   9.185
19363WAT     H258332   3.371   3.837   9.048
19364WAT      O58333   7.787   3.996   7.625
19364WAT     H158334   7.852   3.978   7.552
19364WAT     H258335   7.836   4.016   7.710
19365WAT      O58336   0.130   9.527   1.572
19365WAT     H158337   0.189   9.565   1.500
19365WAT     H258338   0.149   9.429   1.582
19366WAT      O58339   7.947   9.584   3.541
19366WAT     H158340   7.939   9.543   3.632
19366WAT     H258341   8.035   9.631   3.533
19367WAT      O58342   9.764   1.710   8.724
19367WAT     H158343   9.795   1.646   8.653
19367WAT     H258344   9.677   1.751   8.696
19368WAT      O58345   7.030   2.769   1.147
19368WAT     H158346   7.000   2.674   1.151
19368WAT     H258347   7.130   2.772   1.139
19369WAT      O58348   2.398   0.279   5.880
19369WAT     H158349   2.431   0.318   5.965
19369WAT     H258350   2.399   0.350   5.809
19370WAT      O58351   2.258   1.821   6.639
19370WAT     H158352   2.213   1.802   6.551
19370WAT     H258353   2.338   1.763   6.649
19371WAT      O58354   9.578   6.537   9.594
19371WAT     H158355   9.670   6.543   9.634
19371WAT     H258356   9.531   6.457   9.630
19372WAT      O58357   4.960   9.425   8.506
19372WAT     H158358   4.915   9.368   8.575
19372WAT     H258359   5.033   9.372   8.462
19373WAT      O58360   3.058   2.866   7.235
19373WAT     H158361   3.099   2.887   7.146
19373WAT     H258362   3.123   2.887   7.308
19374WAT      O58363   8.503   8.293   4.826
19374WAT     H158364   8.515   8.377   4.879
19374WAT     H258365   8.522   8.214   4.883
19375WAT      O58366   7.242   6.879   3.192
19375WAT     H158367   7.276   6.932   3.270
19375WAT     H258368   7.291   6.791   3.188
19376WAT      O58369   5.519   8.735   0.989
19376WAT     H158370   5.499   8.736   0.891
19376WAT     H258371   5.551   8.825   1.017
19377WAT      O58372   5.796   5.015   4.667
19377WAT     H158373   5.894   5.027   4.652
19377WAT     H258374   5.745   5.075   4.605
19378WAT      O58375   7.786   4.891   8.325
19378WAT     H158376   7.700   4.886   8.273
19378WAT     H258377   7.863   4.883   8.262
19379WAT      O58378   5.144   4.410   7.410
19379WAT     H158379   5.053   4.398   7.371
19379WAT     H258380   5.187   4.491   7.371
19380WAT      O58381   7.541   0.404   7.260
19380WAT     H158382   7.481   0.449   7.327
19380WAT     H258383   7.602   0.340   7.308
19381WAT      O58384   7.562   0.434   0.064
19381WAT     H158385   7.582   0.437  -0.034
19381WAT     H258386   7.581   0.343   0.099
19382WAT      O58387   5.125   7.731   6.828
19382WAT     H158388   5.172   7.746   6.915
19382WAT     H258389   5.062   7.807   6.810
19383WAT      O58390   7.095   4.869   3.418
19383WAT     H158391   7.012   4.817   3.398
19383WAT     H258392   7.170   4.833   3.363
19384WAT      O58393   0.494   6.449   0.464
19384WAT     H158394   0.427   6.522   0.446
19384WAT     H258395   0.511   6.443   0.562
19385WAT      O58396   1.051   0.224   0.605
19385WAT     H158397   1.036   0.288   0.680
19385WAT     H258398   0.962   0.191   0.571
19386WAT      O58399   8.626   9.044   8.636
19386WAT     H158400   8.598   8.959   8.682
19386WAT     H258401   8.684   9.097   8.696
19387WAT      O58402   7.089   6.108   8.848
19387WAT     H158403   7.030   6.048   8.795
19387WAT     H258404   7.121   6.060   8.930
19388WAT      O58405   5.228   0.865   3.344
19388WAT     H158406   5.219   0.795   3.273
19388WAT     H258407   5.154   0.854   3.410
19389WAT      O58408   0.345   4.120   2.079
19389WAT     H158409   0.266   4.142   2.022
19389WAT     H258410   0.412   4.193   2.074
19390WAT      O58411   9.197   4.981   6.814
19390WAT     H158412   9.265   4.925   6.766
19390WAT     H258413   9.222   5.077   6.806
19391WAT      O58414   4.891   7.412   5.393
19391WAT     H158415   4.951   7.351   5.445
19391WAT     H258416   4.908   7.401   5.296
19392WAT      O58417   2.612   0.166   0.888
19392WAT     H158418   2.524   0.172   0.840
19392WAT     H258419   2.598   0.129   0.980
19393WAT      O58420   6.963   2.819   6.507
19393WAT     H158421   6.886   2.880   6.526
19393WAT     H258422   6.980   2.762   6.587
19394WAT      O58423   5.486   7.990   2.869
19394WAT     H158424   5.485   8.054   2.946
19394WAT     H258425   5.393   7.979   2.833
19395WAT      O58426   6.282   7.883   2.232
19395WAT     H158427   6.370   7.844   2.258
19395WAT     H258428   6.269   7.876   2.133
19396WAT      O58429   3.533   0.104   4.255
19396WAT     H158430   3.553   0.057   4.341
19396WAT     H258431   3.618   0.134   4.212
19397WAT      O58432   0.909   1.126   3.002
19397WAT     H158433   0.862   1.128   3.090
19397WAT     H258434   0.877   1.047   2.949
19398WAT      O58435   2.597   3.328   1.487
19398WAT     H158436   2.615   3.234   1.458
19398WAT     H258437   2.516   3.330   1.545
19399WAT      O58438   7.438   3.148   6.431
19399WAT     H158439   7.391   3.216   6.487
19399WAT     H258440   7.393   3.059   6.441
19400WAT      O58441   0.309   4.341   7.343
19400WAT     H158442   0.263   4.253   7.344
19400WAT     H258443   0.315   4.374   7.248
19401WAT      O58444   7.996   0.935   9.042
19401WAT     H158445   8.038   0.846   9.061
19401WAT     H258446   7.995   0.990   9.126
19402WAT      O58447   8.614   1.312   2.941
19402WAT     H158448   8.558   1.232   2.962
19402WAT     H258449   8.611   1.331   2.843
19403WAT      O58450   3.568   7.918   0.114
19403WAT     H158451   3.615   7.846   0.166
19403WAT     H258452   3.477   7.932   0.153
19404WAT      O58453   9.430   6.902   1.865
19404WAT     H158454   9.492   6.921   1.941
19404WAT     H258455   9.382   6.816   1.882
19405WAT      O58456   4.377   1.377   2.736
19405WAT     H158457   4.377   1.350   2.832
19405WAT     H258458   4.332   1.307   2.681
19406WAT      O58459   1.952   3.696   8.081
19406WAT     H158460   1.935   3.599   8.097
19406WAT     H258461   2.046   3.708   8.047
19407WAT      O58462   6.246   8.455   5.262
19407WAT     H158463   6.212   8.502   5.343
19407WAT     H258464   6.188   8.477   5.184
19408WAT      O58465   7.913   5.281   9.269
19408WAT     H158466   7.928   5.267   9.171
19408WAT     H258467   7.815   5.280   9.289
19409WAT      O58468   6.791   1.866   8.356
19409WAT     H158469   6.801   1.849   8.454
19409WAT     H258470   6.845   1.946   8.331
19410WAT      O58471   1.482   2.639   7.639
19410WAT     H158472   1.394   2.645   7.687
19410WAT     H258473   1.537   2.566   7.680
19411WAT      O58474   2.904   2.558   4.012
19411WAT     H158475   2.843   2.616   4.066
19411WAT     H258476   2.857   2.529   3.929
19412WAT      O58477   0.993   2.374   0.618
19412WAT     H158478   1.086   2.401   0.645
19412WAT     H258479   0.997   2.316   0.537
19413WAT      O58480   2.552   9.349   3.836
19413WAT     H158481   2.575   9.446   3.827
19413WAT     H258482   2.579   9.299   3.754
19414WAT      O58483   4.239   1.946   6.444
19414WAT     H158484   4.166   1.884   6.413
19414WAT     H258485   4.324   1.894   6.455
19415WAT      O58486   6.139   9.408   3.521
19415WAT     H158487   6.208   9.467   3.479
19415WAT     H258488   6.161   9.395   3.618
19416WAT      O58489   6.773   3.383   8.095
19416WAT     H158490   6.857   3.427   8.063
19416WAT     H258491   6.698   3.449   8.090
19417WAT      O58492   6.135   1.808   4.725
19417WAT     H158493   6.186   1.846   4.648
19417WAT     H258494   6.171   1.717   4.747
19418WAT      O58495   8.005   0.970   8.764
19418WAT     H158496   8.003   0.967   8.864
19418WAT     H258497   7.996   0.878   8.727
19419WAT      O58498   8.197   9.244   4.668
19419WAT     H158499   8.166   9.187   4.592
19419WAT     H258500   8.282   9.208   4.705
19420WAT      O58501   8.377   8.183   0.377
19420WAT     H158502   8.282   8.172   0.406
19420WAT     H258503   8.427   8.098   0.394
19421WAT      O58504   1.828   7.822   1.894
19421WAT     H158505   1.751   7.885   1.892
19421WAT     H258506   1.882   7.837   1.976
19422WAT      O58507   8.076   0.705   1.047
19422WAT     H158508   7.996   0.653   1.079
19422WAT     H258509   8.048   0.798   1.026
19423WAT      O58510   7.196   2.449   0.303
19423WAT     H158511   7.240   2.536   0.281
19423WAT     H258512   7.098   2.456   0.290
19424WAT      O58513   7.854   5.963   9.241
19424WAT     H158514   7.775   5.968   9.179
19424WAT     H258515   7.846   6.034   9.310
19425WAT      O58516   1.950   3.534   4.570
19425WAT     H158517   1.979   3.539   4.665
19425WAT     H258518   1.898   3.617   4.547
19426WAT      O58519   7.437   7.815   1.436
19426WAT     H158520   7.394   7.727   1.458
19426WAT     H258521   7.456   7.865   1.521
19427WAT      O58522   2.190   3.979   3.307
19427WAT     H158523   2.175   3.911   3.236
19427WAT     H258524   2.105   4.031   3.321
19428WAT      O58525   3.736   3.622   0.796
19428WAT     H158526   3.707   3.592   0.887
19428WAT     H258527   3.792   3.705   0.805
19429WAT      O58528   9.397   7.220   3.762
19429WAT     H158529   9.343   7.235   3.845
19429WAT     H258530   9.393   7.123   3.737
19430WAT      O58531   7.389   5.993   7.380
19430WAT     H158532   7.317   6.057   7.408
19430WAT     H258533   7.403   5.924   7.451
19431WAT      O58534   5.821   3.992   0.647
19431WAT     H158535   5.751   4.060   0.630
19431WAT     H258536   5.903   4.014   0.595
19432WAT      O58537   9.173   6.723   7.384
19432WAT     H158538   9.206   6.698   7.475
19432WAT     H258539   9.080   6.758   7.391
19433WAT      O58540   6.688   6.041   0.680
19433WAT     H158541   6.620   6.077   0.743
19433WAT     H258542   6.718   5.950   0.710
19434WAT      O58543   5.875   4.755   4.544
19434WAT     H158544   5.867   4.850   4.574
19434WAT     H258545   5.894   4.752   4.446
19435WAT      O58546   7.367   4.756   5.369
19435WAT     H158547   7.336   4.663   5.389
19435WAT     H258548   7.465   4.755   5.352
19436WAT      O58549   0.539   2.113   7.298
19436WAT     H158550   0.479   2.042   7.262
19436WAT     H258551   0.545   2.188   7.231
19437WAT      O58552   1.102   9.329   9.189
19437WAT     H158553   1.067   9.386   9.264
19437WAT     H258554   1.082   9.373   9.102
19438WAT      O58555   4.005   8.555   6.503
19438WAT     H158556   4.100   8.542   6.473
19438WAT     H258557   4.000   8.633   6.565
19439WAT      O58558   9.342   0.613   9.210
19439WAT     H158559   9.265   0.669   9.180
19439WAT     H258560   9.420   0.672   9.232
19440WAT      O58561   8.428   7.888   6.453
19440WAT     H158562   8.393   7.803   6.493
19440WAT     H258563   8.522   7.904   6.486
19441WAT      O58564   6.130   5.365   0.315
19441WAT     H158565   6.221   5.333   0.289
19441WAT     H258566   6.095   5.425   0.243
19442WAT      O58567   4.541   4.314   7.281
19442WAT     H158568   4.474   4.323   7.355
19442WAT     H258569   4.538   4.395   7.223
19443WAT      O58570   4.435   2.571   9.887
19443WAT     H158571   4.432   2.501   9.816
19443WAT     H258572   4.443   2.661   9.844
19444WAT      O58573   2.689   3.203   9.377
19444WAT     H158574   2.759   3.134   9.398
19444WAT     H258575   2.598   3.163   9.389
19445WAT      O58576   1.638   8.495   9.876
19445WAT     H158577   1.709   8.444   9.827
19445WAT     H258578   1.679   8.573   9.923
19446WAT      O58579   7.341   4.842   5.965
19446WAT     H158580   7.419   4.878   6.016
19446WAT     H258581   7.363   4.843   5.867
19447WAT      O58582   6.773   9.026   9.486
19447WAT     H158583   6.810   9.071   9.405
19447WAT     H258584   6.805   8.931   9.488
19448WAT      O58585   0.514   6.381   4.274
19448WAT     H158586   0.571   6.301   4.294
19448WAT     H258587   0.467   6.368   4.187
19449WAT      O58588   4.069   7.120   1.656
19449WAT     H158589   4.151   7.156   1.701
19449WAT     H258590   4.095   7.077   1.570
19450WAT      O58591   0.098   4.076   9.442
19450WAT     H158592   0.015   4.024   9.422
19450WAT     H258593   0.115   4.076   9.540
19451WAT      O58594   1.727   3.283   2.194
19451WAT     H158595   1.801   3.236   2.242
19451WAT     H258596   1.765   3.340   2.122
19452WAT      O58597   1.023   7.743   1.815
19452WAT     H158598   1.053   7.792   1.897
19452WAT     H258599   1.083   7.766   1.738
19453WAT      O58600   7.215   6.939   2.753
19453WAT     H158601   7.260   7.026   2.730
19453WAT     H258602   7.280   6.864   2.743
19454WAT      O58603   3.271   0.918   9.447
19454WAT     H158604   3.318   0.893   9.531
19454WAT     H258605   3.172   0.913   9.461
19455WAT      O58606   9.721   1.672   0.794
19455WAT     H158607   9.731   1.577   0.824
19455WAT     H258608   9.664   1.722   0.860
19456WAT      O58609   8.390   9.100   6.808
19456WAT     H158610   8.414   9.004   6.821
19456WAT     H258611   8.332   9.110   6.727
19457WAT      O58612   0.799   4.491   9.878
19457WAT     H158613   0.875   4.524   9.934
19457WAT     H258614   0.718   4.547   9.897
19458WAT      O58615   8.416   4.361   2.543
19458WAT     H158616   8.353   4.396   2.473
19458WAT     H258617   8.510   4.367   2.509
19459WAT      O58618   9.168   2.292   3.069
19459WAT     H158619   9.268   2.290   3.079
19459WAT     H258620   9.134   2.201   3.046
19460WAT      O58621   5.770   1.794   6.600
19460WAT     H158622   5.687   1.775   6.653
19460WAT     H258623   5.811   1.709   6.569
19461WAT      O58624   5.539   0.504   8.722
19461WAT     H158625   5.638   0.497   8.713
19461WAT     H258626   5.495   0.450   8.650
19462WAT      O58627   4.990   2.407   8.974
19462WAT     H158628   4.986   2.392   8.876
19462WAT     H258629   4.911   2.365   9.018
19463WAT      O58630   9.547   3.552   3.982
19463WAT     H158631   9.510   3.637   4.021
19463WAT     H258632   9.643   3.564   3.959
19464WAT      O58633   2.659   1.745   5.612
19464WAT     H158634   2.742   1.736   5.556
19464WAT     H258635   2.685   1.772   5.705
19465WAT      O58636   5.154   0.473   0.973
19465WAT     H158637   5.170   0.406   1.045
19465WAT     H258638   5.192   0.561   1.001
19466WAT      O58639   7.735   0.237   5.382
19466WAT     H158640   7.707   0.316   5.328
19466WAT     H258641   7.753   0.266   5.476
19467WAT      O58642   2.317   6.930   6.763
19467WAT     H158643   2.409   6.893   6.746
19467WAT     H258644   2.306   6.948   6.861
19468WAT      O58645   0.188   3.143   2.223
19468WAT     H158646   0.088   3.135   2.219
19468WAT     H258647   0.225   3.066   2.275
19469WAT      O58648   4.315   6.352   0.458
19469WAT     H158649   4.275   6.434   0.499
19469WAT     H258650   4.242   6.296   0.418
19470WAT      O58651   2.364   7.126   9.875
19470WAT     H158652   2.464   7.124   9.872
19470WAT     H258653   2.330   7.033   9.887
19471WAT      O58654   4.153   3.138   6.513
19471WAT     H158655   4.160   3.229   6.555
19471WAT     H258656   4.240   3.090   6.525
19472WAT      O58657   0.249   0.149   2.553
19472WAT     H158658   0.214   0.161   2.646
19472WAT     H258659   0.183   0.187   2.487
19473WAT      O58660   8.152   0.969   3.609
19473WAT     H158661   8.155   0.882   3.559
19473WAT     H258662   8.157   0.952   3.707
19474WAT      O58663   4.119   9.408   6.214
19474WAT     H158664   4.099   9.468   6.137
19474WAT     H258665   4.096   9.314   6.191
19475WAT      O58666   7.856   1.908   2.321
19475WAT     H158667   7.942   1.954   2.297
19475WAT     H258668   7.833   1.930   2.416
19476WAT      O58669   9.311   8.357   0.184
19476WAT     H158670   9.289   8.435   0.243
19476WAT     H258671   9.260   8.364   0.099
19477WAT      O58672   3.296   0.451   4.038
19477WAT     H158673   3.339   0.507   3.967
19477WAT     H258674   3.199   0.473   4.043
19478WAT      O58675   1.611   8.192   1.405
19478WAT     H158676   1.683   8.232   1.463
19478WAT     H258677   1.650   8.118   1.351
19479WAT      O58678   5.319   5.174   1.601
19479WAT     H158679   5.275   5.090   1.634
19479WAT     H258680   5.349   5.161   1.507
19480WAT      O58681   1.933   0.265   8.959
19480WAT     H158682   2.018   0.318   8.957
19480WAT     H258683   1.951   0.175   8.999
19481WAT      O58684   8.360   6.881   6.403
19481WAT     H158685   8.388   6.832   6.486
19481WAT     H258686   8.380   6.978   6.414
19482WAT      O58687   1.222   9.522   6.810
19482WAT     H158688   1.196   9.457   6.881
19482WAT     H258689   1.315   9.503   6.779
19483WAT      O58690   6.131   1.727   8.659
19483WAT     H158691   6.094   1.790   8.591
19483WAT     H258692   6.229   1.744   8.670
19484WAT      O58693   7.642   7.376   6.652
19484WAT     H158694   7.651   7.296   6.592
19484WAT     H258695   7.733   7.414   6.671
19485WAT      O58696   8.148   5.052   6.971
19485WAT     H158697   8.238   5.010   6.978
19485WAT     H258698   8.138   5.121   7.043
19486WAT      O58699   8.915   2.172   9.461
19486WAT     H158700   8.858   2.227   9.401
19486WAT     H258701   8.945   2.090   9.412
19487WAT      O58702   9.340   2.541   7.331
19487WAT     H158703   9.399   2.616   7.363
19487WAT     H258704   9.250   2.578   7.309
19488WAT      O58705   4.281   0.490   3.605
19488WAT     H158706   4.372   0.517   3.575
19488WAT     H258707   4.223   0.470   3.526
19489WAT      O58708   3.809   4.057   0.505
19489WAT     H158709   3.791   3.989   0.434
19489WAT     H258710   3.730   4.118   0.515
19490WAT      O58711   5.026   0.951   7.523
19490WAT     H158712   5.078   0.984   7.444
19490WAT     H258713   4.961   0.882   7.493
19491WAT      O58714   3.924   6.672   3.229
19491WAT     H158715   3.886   6.642   3.317
19491WAT     H258716   4.011   6.719   3.244
19492WAT      O58717   3.518   7.781   2.831
19492WAT     H158718   3.535   7.683   2.816
19492WAT     H258719   3.494   7.825   2.745
19493WAT      O58720   7.748   1.320   9.823
19493WAT     H158721   7.832   1.350   9.869
19493WAT     H258722   7.771   1.271   9.740
19494WAT      O58723   2.060   0.957   4.789
19494WAT     H158724   1.994   0.984   4.720
19494WAT     H258725   2.083   0.860   4.778
19495WAT      O58726   9.197   3.754   6.163
19495WAT     H158727   9.178   3.666   6.206
19495WAT     H258728   9.114   3.788   6.118
19496WAT      O58729   1.492   3.973   4.192
19496WAT     H158730   1.481   3.988   4.094
19496WAT     H258731   1.434   4.036   4.243
19497WAT      O58732   5.543   1.354   6.706
19497WAT     H158733   5.443   1.350   6.703
19497WAT     H258734   5.580   1.285   6.645
19498WAT      O58735   1.771   7.269   9.643
19498WAT     H158736   1.749   7.325   9.564
19498WAT     H258737   1.871   7.259   9.650
19499WAT      O58738   5.898   6.036   1.772
19499WAT     H158739   5.905   6.077   1.863
19499WAT     H258740   5.890   6.107   1.703
19500WAT      O58741   7.982   0.349   0.250
19500WAT     H158742   8.029   0.320   0.333
19500WAT     H258743   8.031   0.427   0.210
19501WAT      O58744   6.396   4.960   9.555
19501WAT     H158745   6.432   5.023   9.623
19501WAT     H258746   6.438   4.978   9.466
19502WAT      O58747   8.232   4.734   7.360
19502WAT     H158748   8.233   4.801   7.435
19502WAT     H258749   8.206   4.645   7.396
19503WAT      O58750   8.901   3.295   8.412
19503WAT     H158751   8.886   3.391   8.437
19503WAT     H258752   8.982   3.261   8.459
19504WAT      O58753   4.862   6.614   6.630
19504WAT     H158754   4.938   6.674   6.657
19504WAT     H258755   4.797   6.666   6.576
19505WAT      O58756   5.138   7.485   5.922
19505WAT     H158757   5.094   7.516   6.006
19505WAT     H258758   5.214   7.545   5.900
19506WAT      O58759   5.251   1.288   7.262
19506WAT     H158760   5.196   1.208   7.286
19506WAT     H258761   5.191   1.365   7.241
19507WAT      O58762   7.275   5.236   7.303
19507WAT     H158763   7.246   5.331   7.296
19507WAT     H258764   7.247   5.186   7.222
19508WAT      O58765   4.353   9.072   2.966
19508WAT     H158766   4.324   9.009   3.038
19508WAT     H258767   4.444   9.047   2.935
19509WAT      O58768   1.031   0.034   6.319
19509WAT     H158769   1.047   0.010   6.415
19509WAT     H258770   1.100  -0.009   6.261
19510WAT      O58771   1.491   3.733   8.052
19510WAT     H158772   1.428   3.801   8.014
19510WAT     H258773   1.586   3.761   8.033
19511WAT      O58774   8.136   2.652   3.740
19511WAT     H158775   8.133   2.724   3.809
19511WAT     H258776   8.221   2.600   3.750
19512WAT      O58777   6.645   8.327   3.405
19512WAT     H158778   6.737   8.293   3.388
19512WAT     H258779   6.617   8.387   3.329
19513WAT      O58780   9.707   0.346   7.837
19513WAT     H158781   9.764   0.337   7.755
19513WAT     H258782   9.689   0.443   7.855
19514WAT      O58783   6.740   8.962   5.281
19514WAT     H158784   6.720   8.881   5.337
19514WAT     H258785   6.772   8.933   5.191
19515WAT      O58786   9.304   3.775   9.287
19515WAT     H158787   9.331   3.692   9.240
19515WAT     H258788   9.324   3.854   9.230
19516WAT      O58789   6.512   8.902   1.255
19516WAT     H158790   6.420   8.866   1.272
19516WAT     H258791   6.577   8.855   1.315
19517WAT      O58792   1.104   7.766   3.750
19517WAT     H158793   1.201   7.752   3.772
19517WAT     H258794   1.090   7.754   3.652
19518WAT      O58795   5.857   2.940   3.575
19518WAT     H158796   5.848   3.033   3.611
19518WAT     H258797   5.941   2.934   3.520
19519WAT      O58798   2.739   5.412   8.466
19519WAT     H158799   2.807   5.414   8.393
19519WAT     H258800   2.704   5.318   8.476
19520WAT      O58801   6.873   8.713   1.968
19520WAT     H158802   6.928   8.779   2.019
19520WAT     H258803   6.932   8.659   1.909
19521WAT      O58804   0.813   5.194   2.533
19521WAT     H158805   0.808   5.230   2.626
19521WAT     H258806   0.905   5.160   2.516
19522WAT      O58807   2.511   8.444   0.284
19522WAT     H158808   2.594   8.403   0.323
19522WAT     H258809   2.443   8.457   0.356
19523WAT      O58810   0.557   7.512   9.698
19523WAT     H158811   0.608   7.528   9.614
19523WAT     H258812   0.462   7.538   9.685
19524WAT      O58813   8.886   4.442   2.932
19524WAT     H158814   8.854   4.533   2.959
19524WAT     H258815   8.844   4.416   2.845
19525WAT      O58816   1.775   2.705   3.855
19525WAT     H158817   1.762   2.609   3.829
19525WAT     H258818   1.753   2.763   3.777
19526WAT      O58819   3.123   5.143   6.480
19526WAT     H158820   3.116   5.140   6.380
19526WAT     H258821   3.219   5.133   6.507
19527WAT      O58822   2.899   9.103   6.045
19527WAT     H158823   2.902   9.180   6.109
19527WAT     H258824   2.849   9.131   5.962
19528WAT      O58825   1.587   2.575   3.245
19528WAT     H158826   1.655   2.561   3.173
19528WAT     H258827   1.495   2.570   3.205
19529WAT      O58828   2.444   0.389   0.960
19529WAT     H158829   2.519   0.356   1.017
19529WAT     H258830   2.458   0.485   0.937
19530WAT      O58831   0.049   5.655   4.847
19530WAT     H158832   0.009   5.600   4.775
19530WAT     H258833   0.128   5.607   4.886
19531WAT      O58834   7.510   6.772   3.340
19531WAT     H158835   7.562   6.696   3.380
19531WAT     H258836   7.555   6.858   3.363
19532WAT      O58837   3.124   3.124   3.432
19532WAT     H158838   3.088   3.031   3.435
19532WAT     H258839   3.129   3.154   3.337
19533WAT      O58840   5.904   0.963   2.597
19533WAT     H158841   5.902   1.062   2.606
19533WAT     H258842   5.826   0.923   2.646
19534WAT      O58843   1.892   2.503   4.126
19534WAT     H158844   1.982   2.547   4.125
19534WAT     H258845   1.861   2.489   4.032
19535WAT      O58846   5.205   6.722   3.982
19535WAT     H158847   5.151   6.677   4.054
19535WAT     H258848   5.186   6.820   3.982
19536WAT      O58849   0.327   6.155   2.242
19536WAT     H158850   0.308   6.117   2.332
19536WAT     H258851   0.258   6.224   2.219
19537WAT      O58852   5.129   9.195   2.213
19537WAT     H158853   5.181   9.145   2.143
19537WAT     H258854   5.033   9.168   2.209
19538WAT      O58855   7.928   1.297   9.015
19538WAT     H158856   7.974   1.242   9.085
19538WAT     H258857   7.965   1.275   8.925
19539WAT      O58858   8.995   4.258   9.594
19539WAT     H158859   8.990   4.273   9.692
19539WAT     H258860   9.029   4.341   9.549
19540WAT      O58861   0.400   9.345   3.492
19540WAT     H158862   0.495   9.321   3.470
19540WAT     H258863   0.370   9.418   3.431
19541WAT      O58864   4.984   3.788   8.995
19541WAT     H158865   5.060   3.723   9.000
19541WAT     H258866   4.928   3.780   9.077
19542WAT      O58867   9.748   0.161   5.315
19542WAT     H158868   9.810   0.161   5.236
19542WAT     H258869   9.770   0.240   5.372
19543WAT      O58870   5.985   8.460   4.041
19543WAT     H158871   6.049   8.486   4.113
19543WAT     H258872   5.896   8.502   4.058
19544WAT      O58873   1.483   1.223   6.336
19544WAT     H158874   1.465   1.150   6.402
19544WAT     H258875   1.426   1.209   6.255
19545WAT      O58876   1.655   5.038   9.663
19545WAT     H158877   1.648   5.115   9.726
19545WAT     H258878   1.609   4.958   9.703
19546WAT      O58879   3.167   1.765   7.686
19546WAT     H158880   3.162   1.859   7.721
19546WAT     H258881   3.251   1.754   7.633
19547WAT      O58882   1.380   2.883   0.528
19547WAT     H158883   1.379   2.941   0.447
19547WAT     H258884   1.466   2.897   0.578
19548WAT      O58885   8.459   0.811   8.578
19548WAT     H158886   8.385   0.870   8.612
19548WAT     H258887   8.430   0.715   8.584
19549WAT      O58888   0.138   1.794   4.777
19549WAT     H158889   0.208   1.760   4.716
19549WAT     H258890   0.165   1.779   4.872
19550WAT      O58891   9.531   5.338   8.543
19550WAT     H158892   9.591   5.407   8.504
19550WAT     H258893   9.461   5.312   8.477
19551WAT      O58894   9.674   3.540   9.234
19551WAT     H158895   9.762   3.494   9.236
19551WAT     H258896   9.679   3.621   9.175
19552WAT      O58897   4.531   2.921   1.486
19552WAT     H158898   4.550   2.966   1.574
19552WAT     H258899   4.613   2.924   1.429
19553WAT      O58900   7.644   8.271   3.059
19553WAT     H158901   7.722   8.282   2.998
19553WAT     H258902   7.591   8.190   3.032
19554WAT      O58903   4.131   2.042   2.479
19554WAT     H158904   4.113   1.986   2.560
19554WAT     H258905   4.046   2.085   2.450
19555WAT      O58906   3.290   2.884   7.016
19555WAT     H158907   3.356   2.955   7.039
19555WAT     H258908   3.338   2.797   7.004
19556WAT      O58909   1.491   6.329   7.107
19556WAT     H158910   1.452   6.411   7.149
19556WAT     H258911   1.465   6.325   7.011
19557WAT      O58912   2.579   0.071   5.770
19557WAT     H158913   2.490   0.099   5.735
19557WAT     H258914   2.598   0.120   5.855
19558WAT      O58915   7.731   5.779   3.553
19558WAT     H158916   7.660   5.781   3.624
19558WAT     H258917   7.726   5.862   3.498
19559WAT      O58918   9.480   8.571   1.937
19559WAT     H158919   9.563   8.615   1.972
19559WAT     H258920   9.421   8.546   2.014
19560WAT      O58921   7.353   0.905   1.631
19560WAT     H158922   7.401   0.934   1.715
19560WAT     H258923   7.273   0.964   1.617
19561WAT      O58924   7.173   2.287   5.629
19561WAT     H158925   7.195   2.382   5.607
19561WAT     H258926   7.162   2.278   5.728
19562WAT      O58927   9.785   7.091   8.930
19562WAT     H158928   9.849   7.020   8.901
19562WAT     H258929   9.697   7.077   8.884
19563WAT      O58930   3.194   7.696   3.747
19563WAT     H158931   3.107   7.730   3.783
19563WAT     H258932   3.269   7.735   3.799
19564WAT      O58933   2.925   4.250   7.262
19564WAT     H158934   2.885   4.176   7.209
19564WAT     H258935   3.025   4.247   7.255
19565WAT      O58936   4.493   7.256   3.912
19565WAT     H158937   4.413   7.267   3.971
19565WAT     H258938   4.468   7.280   3.818
19566WAT      O58939   8.004   8.921   8.828
19566WAT     H158940   8.071   8.850   8.848
19566WAT     H258941   8.029   9.005   8.877
19567WAT      O58942   7.095   3.503   3.431
19567WAT     H158943   7.150   3.582   3.402
19567WAT     H258944   6.998   3.526   3.428
19568WAT      O58945   9.054   4.985   9.007
19568WAT     H158946   9.146   5.019   9.026
19568WAT     H258947   9.032   4.910   9.070
19569WAT      O58948   9.601   9.006   0.434
19569WAT     H158949   9.583   9.095   0.392
19569WAT     H258950   9.557   9.001   0.523
19570WAT      O58951   7.049   9.033   9.662
19570WAT     H158952   7.126   9.064   9.606
19570WAT     H258953   7.024   9.105   9.727
19571WAT      O58954   5.588   8.599   0.015
19571WAT     H158955   5.646   8.638  -0.057
19571WAT     H258956   5.616   8.634   0.104
19572WAT      O58957   1.726   0.007   5.240
19572WAT     H158958   1.819   0.044   5.232
19572WAT     H258959   1.730  -0.085   5.280
19573WAT      O58960   3.931   1.492   8.058
19573WAT     H158961   3.982   1.578   8.063
19573WAT     H258962   3.884   1.487   7.970
19574WAT      O58963   5.536   9.041   8.403
19574WAT     H158964   5.611   9.077   8.458
19574WAT     H258965   5.566   8.959   8.355
19575WAT      O58966   3.381   0.137   7.544
19575WAT     H158967   3.387   0.202   7.619
19575WAT     H258968   3.472   0.101   7.523
19576WAT      O58969   5.869   7.186   6.956
19576WAT     H158970   5.852   7.266   6.899
19576WAT     H258971   5.785   7.133   6.964
19577WAT      O58972   5.279   8.493   5.066
19577WAT     H158973   5.331   8.410   5.045
19577WAT     H258974   5.278   8.506   5.166
19578WAT      O58975   2.813   0.630   0.216
19578WAT     H158976   2.850   0.703   0.158
19578WAT     H258977   2.735   0.665   0.267
19579WAT      O58978   5.758   5.348   7.145
19579WAT     H158979   5.833   5.377   7.087
19579WAT     H258980   5.673   5.393   7.115
19580WAT      O58981   8.197   2.117   2.854
19580WAT     H158982   8.144   2.032   2.855
19580WAT     H258983   8.276   2.105   2.793
19581WAT      O58984   9.158   3.692   5.101
19581WAT     H158985   9.067   3.653   5.083
19581WAT     H258986   9.225   3.648   5.040
19582WAT      O58987   6.830   8.999   7.169
19582WAT     H158988   6.740   9.016   7.209
19582WAT     H258989   6.867   9.084   7.132
19583WAT      O58990   0.731   3.763   8.399
19583WAT     H158991   0.649   3.797   8.352
19583WAT     H258992   0.708   3.678   8.447
19584WAT      O58993   9.627   9.774   5.797
19584WAT     H158994   9.595   9.815   5.712
19584WAT     H258995   9.594   9.829   5.874
19585WAT      O58996   3.290   0.395   7.372
19585WAT     H158997   3.206   0.370   7.325
19585WAT     H258998   3.292   0.352   7.462
19586WAT      O58999   4.303   5.058   2.599
19586WAT     H159000   4.246   5.140   2.608
19586WAT     H259001   4.245   4.978   2.581
19587WAT      O59002   5.145   3.790   1.610
19587WAT     H159003   5.125   3.741   1.695
19587WAT     H259004   5.242   3.813   1.607
19588WAT      O59005   1.912   1.338   2.939
19588WAT     H159006   1.995   1.394   2.948
19588WAT     H259007   1.833   1.388   2.974
19589WAT      O59008   8.821   8.800   7.456
19589WAT     H159009   8.815   8.883   7.400
19589WAT     H259010   8.916   8.768   7.458
19590WAT      O59011   1.110   6.183   8.259
19590WAT     H159012   1.185   6.248   8.245
19590WAT     H259013   1.139   6.092   8.227
19591WAT      O59014   8.345   0.966   0.278
19591WAT     H159015   8.250   0.945   0.302
19591WAT     H259016   8.363   0.932   0.186
19592WAT      O59017   9.350   2.440   1.642
19592WAT     H159018   9.429   2.501   1.645
19592WAT     H259019   9.312   2.438   1.550
19593WAT      O59020   2.920   9.416   8.970
19593WAT     H159021   2.996   9.466   8.928
19593WAT     H259022   2.952   9.327   9.002
19594WAT      O59023   8.119   0.392   3.081
19594WAT     H159024   8.033   0.441   3.098
19594WAT     H259025   8.102   0.317   3.018
19595WAT      O59026   9.015   8.259   3.225
19595WAT     H159027   9.023   8.278   3.323
19595WAT     H259028   8.995   8.343   3.176
19596WAT      O59029   7.460   1.861   1.482
19596WAT     H159030   7.552   1.893   1.458
19596WAT     H259031   7.455   1.762   1.470
19597WAT      O59032   0.095   6.049   1.475
19597WAT     H159033   0.017   6.100   1.439
19597WAT     H259034   0.070   6.005   1.561
19598WAT      O59035   3.703   3.857   4.637
19598WAT     H159036   3.799   3.830   4.649
19598WAT     H259037   3.690   3.890   4.544
19599WAT      O59038   7.378   2.344   8.843
19599WAT     H159039   7.302   2.407   8.860
19599WAT     H259040   7.462   2.384   8.880
19600WAT      O59041   0.091   7.485   6.997
19600WAT     H159042   0.162   7.452   7.060
19600WAT     H259043   0.134   7.533   6.921
19601WAT      O59044   4.776   3.184   1.256
19601WAT     H159045   4.691   3.155   1.212
19601WAT     H259046   4.757   3.255   1.323
19602WAT      O59047   8.918   1.967   0.701
19602WAT     H159048   8.960   2.008   0.781
19602WAT     H259049   8.978   1.979   0.622
19603WAT      O59050   8.452   3.854   7.574
19603WAT     H159051   8.386   3.787   7.540
19603WAT     H259052   8.447   3.937   7.518
19604WAT      O59053   8.560   8.390   3.223
19604WAT     H159054   8.637   8.403   3.162
19604WAT     H259055   8.475   8.394   3.170
19605WAT      O59056   9.225   3.564   7.365
19605WAT     H159057   9.171   3.590   7.445
19605WAT     H259058   9.224   3.638   7.298
19606WAT      O59059   6.734   7.006   4.554
19606WAT     H159060   6.795   7.039   4.481
19606WAT     H259061   6.787   6.954   4.621
19607WAT      O59062   8.416   9.646   3.370
19607WAT     H159063   8.439   9.675   3.278
19607WAT     H259064   8.436   9.548   3.380
19608WAT      O59065   7.963   6.643   4.672
19608WAT     H159066   8.019   6.712   4.718
19608WAT     H259067   7.873   6.681   4.651
19609WAT      O59068   1.851   5.328   3.996
19609WAT     H159069   1.859   5.305   4.093
19609WAT     H259070   1.939   5.361   3.962
19610WAT      O59071   4.731   5.598   3.208
19610WAT     H159072   4.643   5.636   3.182
19610WAT     H259073   4.717   5.517   3.265
19611WAT      O59074   4.844   0.569   7.719
19611WAT     H159075   4.767   0.526   7.671
19611WAT     H259076   4.815   0.657   7.756
19612WAT      O59077   3.886   0.206   7.963
19612WAT     H159078   3.913   0.114   7.989
19612WAT     H259079   3.792   0.222   7.993
19613WAT      O59080   8.458   3.089   5.052
19613WAT     H159081   8.393   3.160   5.079
19613WAT     H259082   8.550   3.127   5.051
19614WAT      O59083   4.587   0.858   6.146
19614WAT     H159084   4.552   0.785   6.205
19614WAT     H259085   4.583   0.945   6.195
19615WAT      O59086   5.211   3.674   3.944
19615WAT     H159087   5.260   3.620   3.876
19615WAT     H259088   5.122   3.700   3.908
19616WAT      O59089   3.048   5.692   9.166
19616WAT     H159090   3.112   5.618   9.188
19616WAT     H259091   2.954   5.662   9.183
19617WAT      O59092   1.250   9.356   9.752
19617WAT     H159093   1.293   9.446   9.742
19617WAT     H259094   1.310   9.296   9.805
19618WAT      O59095   3.057   6.257   3.927
19618WAT     H159096   3.121   6.330   3.952
19618WAT     H259097   3.108   6.173   3.908
19619WAT      O59098   9.279   9.745   0.793
19619WAT     H159099   9.373   9.738   0.758
19619WAT     H259100   9.272   9.823   0.856
19620WAT      O59101   6.774   4.546   8.115
19620WAT     H159102   6.798   4.571   8.022
19620WAT     H259103   6.749   4.628   8.167
19621WAT      O59104   2.594   1.735   2.539
19621WAT     H159105   2.513   1.745   2.596
19621WAT     H259106   2.589   1.799   2.462
19622WAT      O59107   9.569   0.331   3.286
19622WAT     H159108   9.544   0.255   3.347
19622WAT     H259109   9.660   0.363   3.309
19623WAT      O59110   7.040   2.680   4.901
19623WAT     H159111   7.117   2.641   4.851
19623WAT     H259112   7.028   2.776   4.876
19624WAT      O59113   0.261   3.097   8.949
19624WAT     H159114   0.319   3.064   8.874
19624WAT     H259115   0.205   3.022   8.983
19625WAT      O59116   7.497   6.229   5.929
19625WAT     H159117   7.404   6.238   5.965
19625WAT     H259118   7.560   6.281   5.986
19626WAT      O59119   3.895   5.593   8.124
19626WAT     H159120   3.983   5.565   8.086
19626WAT     H259121   3.823   5.532   8.090
19627WAT      O59122   8.490   8.072   5.006
19627WAT     H159123   8.467   8.105   5.097
19627WAT     H259124   8.445   7.984   4.989
19628WAT      O59125   5.842   5.041   4.334
19628WAT     H159126   5.936   5.012   4.352
19628WAT     H259127   5.796   4.973   4.278
19629WAT      O59128   2.441   5.278   2.173
19629WAT     H159129   2.403   5.343   2.238
19629WAT     H259130   2.532   5.249   2.203
19630WAT      O59131   8.702   3.191   3.290
19630WAT     H159132   8.695   3.179   3.389
19630WAT     H259133   8.610   3.205   3.252
19631WAT      O59134   7.361   0.073   7.212
19631WAT     H159135   7.277   0.060   7.160
19631WAT     H259136   7.412   0.151   7.175
19632WAT      O59137   5.372   1.807   1.462
19632WAT     H159138   5.454   1.863   1.446
19632WAT     H259139   5.384   1.756   1.547
19633WAT      O59140   2.850   9.041   8.549
19633WAT     H159141   2.773   9.058   8.487
19633WAT     H259142   2.832   8.959   8.603
19634WAT      O59143   0.714   6.972   5.201
19634WAT     H159144   0.762   7.058   5.185
19634WAT     H259145   0.635   6.966   5.140
19635WAT      O59146   4.190   4.407   0.672
19635WAT     H159147   4.131   4.485   0.693
19635WAT     H259148   4.138   4.338   0.623
19636WAT      O59149   9.419   4.604   0.145
19636WAT     H159150   9.513   4.635   0.163
19636WAT     H259151   9.388   4.546   0.221
19637WAT      O59152   9.005   0.940   1.876
19637WAT     H159153   9.002   1.027   1.827
19637WAT     H259154   8.914   0.919   1.912
19638WAT      O59155   3.492   8.504   9.290
19638WAT     H159156   3.456   8.593   9.319
19638WAT     H259157   3.578   8.517   9.241
19639WAT      O59158   1.117   5.519   3.946
19639WAT     H159159   1.114   5.529   3.846
19639WAT     H259160   1.210   5.495   3.974
19640WAT      O59161   4.772   2.220   8.355
19640WAT     H159162   4.726   2.191   8.271
19640WAT     H259163   4.871   2.223   8.341
19641WAT      O59164   9.348   1.298   5.906
19641WAT     H159165   9.413   1.305   5.830
19641WAT     H259166   9.309   1.206   5.908
19642WAT      O59167   5.334   7.447   5.616
19642WAT     H159168   5.279   7.391   5.678
19642WAT     H259169   5.424   7.463   5.656
19643WAT      O59170   5.321   9.620   1.809
19643WAT     H159171   5.373   9.623   1.723
19643WAT     H259172   5.365   9.556   1.872
19644WAT      O59173   3.409   1.867   3.552
19644WAT     H159174   3.379   1.823   3.636
19644WAT     H259175   3.381   1.963   3.552
19645WAT      O59176   1.947   1.547   6.214
19645WAT     H159177   2.010   1.574   6.141
19645WAT     H259178   1.853   1.568   6.186
19646WAT      O59179   3.346   9.763   5.590
19646WAT     H159180   3.385   9.851   5.617
19646WAT     H259181   3.326   9.764   5.492
19647WAT      O59182   1.840   9.128   4.946
19647WAT     H159183   1.819   9.099   4.852
19647WAT     H259184   1.870   9.049   5.000
19648WAT      O59185   7.798   3.777   3.837
19648WAT     H159186   7.727   3.846   3.821
19648WAT     H259187   7.765   3.688   3.807
19649WAT      O59188   5.209   3.869   7.720
19649WAT     H159189   5.303   3.885   7.751
19649WAT     H259190   5.148   3.865   7.800
19650WAT      O59191   2.971   3.036   4.226
19650WAT     H159192   2.935   3.127   4.247
19650WAT     H259193   2.993   2.988   4.312
19651WAT      O59194   7.377   0.077   8.384
19651WAT     H159195   7.373   0.152   8.318
19651WAT     H259196   7.291   0.026   8.381
19652WAT      O59197   9.211   8.605   4.918
19652WAT     H159198   9.274   8.528   4.908
19652WAT     H259199   9.135   8.579   4.978
19653WAT      O59200   3.872   2.259   8.918
19653WAT     H159201   3.899   2.238   8.824
19653WAT     H259202   3.954   2.281   8.972
19654WAT      O59203   3.781   2.860   0.252
19654WAT     H159204   3.727   2.854   0.168
19654WAT     H259205   3.830   2.774   0.267
19655WAT      O59206   0.963   1.327   4.347
19655WAT     H159207   0.956   1.399   4.416
19655WAT     H259208   0.872   1.293   4.324
19656WAT      O59209   2.394   5.227   2.991
19656WAT     H159210   2.347   5.221   3.080
19656WAT     H259211   2.327   5.220   2.917
19657WAT      O59212   6.380   1.019   4.644
19657WAT     H159213   6.306   1.082   4.668
19657WAT     H259214   6.406   1.032   4.549
19658WAT      O59215   8.917   6.720   4.878
19658WAT     H159216   8.978   6.762   4.946
19658WAT     H259217   8.829   6.768   4.878
19659WAT      O59218   4.705   9.004   6.718
19659WAT     H159219   4.750   8.947   6.649
19659WAT     H259220   4.710   9.100   6.692
19660WAT      O59221   9.313   5.938   2.657
19660WAT     H159222   9.410   5.913   2.652
19660WAT     H259223   9.280   5.962   2.566
19661WAT      O59224   3.550   5.930   3.395
19661WAT     H159225   3.510   6.014   3.358
19661WAT     H259226   3.623   5.953   3.459
19662WAT      O59227   0.206   8.655   9.376
19662WAT     H159228   0.128   8.592   9.382
19662WAT     H259229   0.190   8.733   9.435
19663WAT      O59230   9.723   9.603   6.195
19663WAT     H159231   9.781   9.526   6.169
19663WAT     H259232   9.630   9.570   6.214
19664WAT      O59233   5.186   7.479   0.936
19664WAT     H159234   5.090   7.461   0.955
19664WAT     H259235   5.195   7.531   0.852
19665WAT      O59236   7.109   7.172   6.335
19665WAT     H159237   7.111   7.270   6.355
19665WAT     H259238   7.202   7.137   6.327
19666WAT      O59239   0.840   0.415   8.518
19666WAT     H159240   0.819   0.398   8.614
19666WAT     H259241   0.812   0.508   8.494
19667WAT      O59242   3.319   5.627   3.149
19667WAT     H159243   3.305   5.726   3.149
19667WAT     H259244   3.372   5.601   3.067
19668WAT      O59245   1.489   3.755   8.420
19668WAT     H159246   1.571   3.739   8.475
19668WAT     H259247   1.493   3.699   8.337
19669WAT      O59248   6.864   4.674   0.559
19669WAT     H159249   6.857   4.760   0.609
19669WAT     H259250   6.798   4.673   0.484
19670WAT      O59251   9.323   0.166   7.458
19670WAT     H159252   9.237   0.211   7.480
19670WAT     H259253   9.332   0.157   7.359
19671WAT      O59254   3.311   2.565   2.126
19671WAT     H159255   3.334   2.540   2.220
19671WAT     H259256   3.212   2.562   2.114
19672WAT      O59257   8.797   4.485   8.099
19672WAT     H159258   8.823   4.494   8.195
19672WAT     H259259   8.763   4.392   8.082
19673WAT      O59260   1.744   2.148   8.673
19673WAT     H159261   1.751   2.119   8.769
19673WAT     H259262   1.656   2.192   8.658
19674WAT      O59263   4.098   0.618   2.956
19674WAT     H159264   4.068   0.581   2.867
19674WAT     H259265   4.100   0.718   2.951
19675WAT      O59266   4.134   1.999   0.091
19675WAT     H159267   4.129   1.900   0.077
19675WAT     H259268   4.177   2.041   0.011
19676WAT      O59269   6.561   8.559   3.289
19676WAT     H159270   6.502   8.634   3.260
19676WAT     H259271   6.655   8.577   3.261
19677WAT      O59272   0.642   7.599   5.852
19677WAT     H159273   0.679   7.691   5.869
19677WAT     H259274   0.594   7.567   5.933
19678WAT      O59275   4.030   7.005   2.098
19678WAT     H159276   4.106   6.952   2.135
19678WAT     H259277   4.011   7.083   2.157
19679WAT      O59278   8.630   5.843   7.826
19679WAT     H159279   8.587   5.754   7.812
19679WAT     H259280   8.713   5.832   7.881
19680WAT      O59281   5.957   2.267   9.122
19680WAT     H159282   5.938   2.223   9.210
19680WAT     H259283   5.898   2.346   9.111
19681WAT      O59284   3.969   7.221   2.236
19681WAT     H159285   4.034   7.218   2.312
19681WAT     H259286   3.919   7.308   2.239
19682WAT      O59287   7.865   8.405   3.887
19682WAT     H159288   7.959   8.379   3.909
19682WAT     H259289   7.809   8.322   3.879
19683WAT      O59290   4.137   0.255   0.845
19683WAT     H159291   4.090   0.294   0.924
19683WAT     H259292   4.089   0.282   0.761
19684WAT      O59293   7.765   7.675   2.497
19684WAT     H159294   7.684   7.627   2.531
19684WAT     H259295   7.847   7.630   2.531
19685WAT      O59296   0.719   2.737   2.033
19685WAT     H159297   0.742   2.825   1.992
19685WAT     H259298   0.803   2.692   2.064
19686WAT      O59299   5.143   9.568   6.691
19686WAT     H159300   5.065   9.622   6.661
19686WAT     H259301   5.171   9.597   6.782
19687WAT      O59302   3.295   5.265   3.184
19687WAT     H159303   3.295   5.276   3.084
19687WAT     H259304   3.316   5.169   3.206
19688WAT      O59305   1.756   2.874   9.422
19688WAT     H159306   1.776   2.878   9.520
19688WAT     H259307   1.834   2.908   9.371
19689WAT      O59308   0.009   7.379   0.604
19689WAT     H159309   0.098   7.397   0.561
19689WAT     H259310  -0.032   7.466   0.631
19690WAT      O59311   1.953   2.279   6.010
19690WAT     H159312   2.003   2.364   5.993
19690WAT     H259313   1.857   2.300   6.026
19691WAT      O59314   3.223   7.013   7.763
19691WAT     H159315   3.259   7.074   7.833
19691WAT     H259316   3.218   6.920   7.798
19692WAT      O59317   7.417   0.023   3.775
19692WAT     H159318   7.435   0.057   3.683
19692WAT     H259319   7.492   0.050   3.836
19693WAT      O59320   5.983   0.168   2.757
19693WAT     H159321   5.908   0.194   2.818
19693WAT     H259322   5.998   0.070   2.763
19694WAT      O59323   3.861   0.789   5.914
19694WAT     H159324   3.830   0.819   6.004
19694WAT     H259325   3.807   0.836   5.843
19695WAT      O59326   1.940   4.884   9.025
19695WAT     H159327   1.984   4.889   8.936
19695WAT     H259328   1.919   4.976   9.057
19696WAT      O59329   9.630   8.819   6.605
19696WAT     H159330   9.685   8.832   6.687
19696WAT     H259331   9.546   8.873   6.612
19697WAT      O59332   0.908   5.392   9.249
19697WAT     H159333   0.964   5.459   9.200
19697WAT     H259334   0.812   5.403   9.224
19698WAT      O59335   8.109   7.792   7.094
19698WAT     H159336   8.097   7.855   7.017
19698WAT     H259337   8.122   7.699   7.059
19699WAT      O59338   5.215   7.991   2.774
19699WAT     H159339   5.194   7.955   2.865
19699WAT     H259340   5.187   7.926   2.704
19700WAT      O59341   0.611   8.979   5.608
19700WAT     H159342   0.644   9.024   5.691
19700WAT     H259343   0.602   9.048   5.535
19701WAT      O59344   1.649   5.736   2.450
19701WAT     H159345   1.599   5.721   2.535
19701WAT     H259346   1.702   5.820   2.457
19702WAT      O59347   5.349   4.179   6.188
19702WAT     H159348   5.329   4.200   6.284
19702WAT     H259349   5.273   4.207   6.130
19703WAT      O59350   5.432   1.505   6.338
19703WAT     H159351   5.425   1.511   6.238
19703WAT     H259352   5.463   1.413   6.363
19704WAT      O59353   1.071   4.700   3.102
19704WAT     H159354   1.007   4.623   3.102
19704WAT     H259355   1.087   4.731   3.196
19705WAT      O59356   8.243   6.339   1.443
19705WAT     H159357   8.177   6.374   1.510
19705WAT     H259358   8.312   6.409   1.426
19706WAT      O59359   3.585   4.669   0.190
19706WAT     H159360   3.560   4.678   0.094
19706WAT     H259361   3.607   4.760   0.228
19707WAT      O59362   8.566   8.901   8.406
19707WAT     H159363   8.572   8.963   8.484
19707WAT     H259364   8.516   8.945   8.332
19708WAT      O59365   3.929   1.811   8.041
19708WAT     H159366   3.954   1.907   8.029
19708WAT     H259367   3.906   1.795   8.137
19709WAT      O59368   6.401   3.524   8.590
19709WAT     H159369   6.398   3.546   8.492
19709WAT     H259370   6.425   3.607   8.641
19710WAT      O59371   5.839   8.126   0.467
19710WAT     H159372   5.859   8.206   0.411
19710WAT     H259373   5.817   8.048   0.408
19711WAT      O59374   3.073   2.694   3.835
19711WAT     H159375   3.035   2.640   3.910
19711WAT     H259376   3.162   2.732   3.863
19712WAT      O59377   7.389   5.691   6.716
19712WAT     H159378   7.444   5.726   6.792
19712WAT     H259379   7.445   5.690   6.633
19713WAT      O59380   2.916   9.590   8.648
19713WAT     H159381   2.989   9.580   8.716
19713WAT     H259382   2.948   9.558   8.559
19714WAT      O59383   3.333   9.362   1.314
19714WAT     H159384   3.270   9.286   1.327
19714WAT     H259385   3.427   9.329   1.318
19715WAT      O59386   4.226   4.874   2.905
19715WAT     H159387   4.181   4.961   2.887
19715WAT     H259388   4.266   4.839   2.820
19716WAT      O59389   5.676   8.272   9.271
19716WAT     H159390   5.607   8.272   9.200
19716WAT     H259391   5.659   8.196   9.334
19717WAT      O59392   4.165   2.811   8.319
19717WAT     H159393   4.241   2.875   8.321
19717WAT     H259394   4.141   2.789   8.225
19718WAT      O59395   9.394   0.578   7.274
19718WAT     H159396   9.488   0.577   7.240
19718WAT     H259397   9.369   0.670   7.303
19719WAT      O59398   2.817   7.375   1.210
19719WAT     H159399   2.725   7.349   1.242
19719WAT     H259400   2.810   7.413   1.118
19720WAT      O59401   1.936   1.943   3.781
19720WAT     H159402   1.838   1.922   3.786
19720WAT     H259403   1.981   1.878   3.720
19721WAT      O59404   9.666   9.071   3.374
19721WAT     H159405   9.751   9.072   3.427
19721WAT     H259406   9.662   8.987   3.320
19722WAT      O59407   9.003   6.542   8.978
19722WAT     H159408   9.099   6.551   8.952
19722WAT     H259409   8.945   6.568   8.901
19723WAT      O59410   8.279   8.148   8.124
19723WAT     H159411   8.287   8.221   8.056
19723WAT     H259412   8.371   8.121   8.154
19724WAT      O59413   8.823   0.623   2.482
19724WAT     H159414   8.885   0.691   2.444
19724WAT     H259415   8.728   0.655   2.472
19725WAT      O59416   8.527   7.126   4.330
19725WAT     H159417   8.444   7.133   4.386
19725WAT     H259418   8.555   7.217   4.301
19726WAT      O59419   6.594   8.373   0.237
19726WAT     H159420   6.579   8.468   0.214
19726WAT     H259421   6.665   8.366   0.308
19727WAT      O59422   4.022   1.565   3.793
19727WAT     H159423   3.952   1.623   3.833
19727WAT     H259424   3.980   1.502   3.728
19728WAT      O59425   2.205   5.707   6.356
19728WAT     H159426   2.235   5.739   6.446
19728WAT     H259427   2.115   5.664   6.365
19729WAT      O59428   0.557   6.473   5.116
19729WAT     H159429   0.602   6.449   5.030
19729WAT     H259430   0.625   6.473   5.190
19730WAT      O59431   2.829   8.247   1.681
19730WAT     H159432   2.805   8.150   1.682
19730WAT     H259433   2.781   8.293   1.606
19731WAT      O59434   3.641   7.510   6.256
19731WAT     H159435   3.738   7.534   6.255
19731WAT     H259436   3.588   7.590   6.282
19732WAT      O59437   4.939   6.723   5.469
19732WAT     H159438   4.978   6.804   5.427
19732WAT     H259439   4.987   6.641   5.436
19733WAT      O59440   9.130   6.554   4.386
19733WAT     H159441   9.101   6.560   4.290
19733WAT     H259442   9.066   6.605   4.443
19734WAT      O59443   4.141   0.444   3.360
19734WAT     H159444   4.122   0.537   3.329
19734WAT     H259445   4.188   0.394   3.287
19735WAT      O59446   8.577   6.249   9.778
19735WAT     H159447   8.625   6.318   9.724
19735WAT     H259448   8.478   6.259   9.765
19736WAT      O59449   0.262   1.456   9.024
19736WAT     H159450   0.234   1.545   9.059
19736WAT     H259451   0.278   1.394   9.101
19737WAT      O59452   1.657   8.749   9.574
19737WAT     H159453   1.602   8.785   9.650
19737WAT     H259454   1.601   8.684   9.521
19738WAT      O59455   5.596   7.575   5.438
19738WAT     H159456   5.607   7.480   5.408
19738WAT     H259457   5.598   7.578   5.538
19739WAT      O59458   0.281   7.300   3.096
19739WAT     H159459   0.258   7.285   3.192
19739WAT     H259460   0.253   7.392   3.068
19740WAT      O59461   5.044   7.385   3.166
19740WAT     H159462   5.061   7.370   3.263
19740WAT     H259463   5.119   7.437   3.126
19741WAT      O59464   9.623   0.373   1.780
19741WAT     H159465   9.593   0.282   1.807
19741WAT     H259466   9.556   0.441   1.811
19742WAT      O59467   9.329   0.633   1.562
19742WAT     H159468   9.252   0.670   1.613
19742WAT     H259469   9.384   0.574   1.621
19743WAT      O59470   7.670   7.191   8.709
19743WAT     H159471   7.734   7.268   8.707
19743WAT     H259472   7.705   7.121   8.772
19744WAT      O59473   3.464   0.559   0.062
19744WAT     H159474   3.517   0.474   0.062
19744WAT     H259475   3.519   0.633   0.023
19745WAT      O59476   7.799   6.512   9.324
19745WAT     H159477   7.782   6.552   9.234
19745WAT     H259478   7.714   6.510   9.376
19746WAT      O59479   4.093   9.107   1.399
19746WAT     H159480   4.099   9.135   1.495
19746WAT     H259481   4.176   9.056   1.374
19747WAT      O59482   6.036   9.724   6.333
19747WAT     H159483   5.968   9.658   6.364
19747WAT     H259484   5.998   9.776   6.256
19748WAT      O59485   9.236   3.446   1.654
19748WAT     H159486   9.140   3.464   1.679
19748WAT     H259487   9.253   3.348   1.662
19749WAT      O59488   7.869   0.126   5.650
19749WAT     H159489   7.916   0.064   5.587
19749WAT     H259490   7.934   0.191   5.687
19750WAT      O59491   7.369   1.074   1.142
19750WAT     H159492   7.459   1.032   1.156
19750WAT     H259493   7.380   1.172   1.125
19751WAT      O59494   0.464   6.002   2.054
19751WAT     H159495   0.554   5.980   2.092
19751WAT     H259496   0.406   6.040   2.126
19752WAT      O59497   1.634   5.416   5.285
19752WAT     H159498   1.632   5.328   5.238
19752WAT     H259499   1.666   5.404   5.379
19753WAT      O59500   1.889   7.720   3.315
19753WAT     H159501   1.926   7.724   3.408
19753WAT     H259502   1.830   7.799   3.300
19754WAT      O59503   6.694   0.766   9.871
19754WAT     H159504   6.736   0.730   9.954
19754WAT     H259505   6.682   0.692   9.805
19755WAT      O59506   3.368   5.900   5.878
19755WAT     H159507   3.277   5.860   5.890
19755WAT     H259508   3.434   5.853   5.937
19756WAT      O59509   6.086   4.983   4.607
19756WAT     H159510   6.092   4.956   4.511
19756WAT     H259511   6.081   5.083   4.612
19757WAT      O59512   5.161   9.363   1.823
19757WAT     H159513   5.161   9.463   1.821
19757WAT     H259514   5.226   9.327   1.756
19758WAT      O59515   4.312   1.929   5.240
19758WAT     H159516   4.358   1.914   5.327
19758WAT     H259517   4.348   1.866   5.171
19759WAT      O59518   2.172   4.651   1.314
19759WAT     H159519   2.251   4.698   1.276
19759WAT     H259520   2.198   4.558   1.340
19760WAT      O59521   0.077   9.676   6.256
19760WAT     H159522  -0.019   9.660   6.233
19760WAT     H259523   0.099   9.630   6.342
19761WAT      O59524   8.910   0.822   4.913
19761WAT     H159525   8.914   0.831   5.012
19761WAT     H259526   8.835   0.761   4.887
19762WAT      O59527   2.633   9.241   7.184
19762WAT     H159528   2.714   9.223   7.128
19762WAT     H259529   2.650   9.320   7.243
19763WAT      O59530   4.793   4.276   6.831
19763WAT     H159531   4.736   4.348   6.870
19763WAT     H259532   4.887   4.309   6.824
19764WAT      O59533   2.338   6.706   2.740
19764WAT     H159534   2.298   6.796   2.722
19764WAT     H259535   2.408   6.687   2.672
19765WAT      O59536   7.615   8.803   2.792
19765WAT     H159537   7.700   8.854   2.807
19765WAT     H259538   7.537   8.862   2.811
19766WAT      O59539   5.931   5.910   5.956
19766WAT     H159540   5.943   5.835   5.890
19766WAT     H259541   5.918   5.871   6.047
19767WAT      O59542   6.955   7.371   0.557
19767WAT     H159543   6.871   7.415   0.590
19767WAT     H259544   6.954   7.274   0.579
19768WAT      O59545   3.619   1.582   6.216
19768WAT     H159546   3.654   1.675   6.229
19768WAT     H259547   3.696   1.517   6.212
19769WAT      O59548   7.388   0.172   5.630
19769WAT     H159549   7.413   0.233   5.555
19769WAT     H259550   7.342   0.224   5.702
19770WAT      O59551   1.203   9.816   7.721
19770WAT     H159552   1.118   9.864   7.742
19770WAT     H259553   1.249   9.862   7.646
19771WAT      O59554   0.407   0.047   7.632
19771WAT     H159555   0.394   0.118   7.702
19771WAT     H259556   0.356   0.072   7.550
19772WAT      O59557   9.683   7.534   8.535
19772WAT     H159558   9.740   7.525   8.617
19772WAT     H259559   9.668   7.632   8.516
19773WAT      O59560   3.084   9.388   7.214
19773WAT     H159561   3.065   9.321   7.286
19773WAT     H259562   3.029   9.367   7.133
19774WAT      O59563   1.717   9.486   7.338
19774WAT     H159564   1.642   9.549   7.360
19774WAT     H259565   1.791   9.537   7.294
19775WAT      O59566   4.016   8.699   8.883
19775WAT     H159567   4.115   8.712   8.878
19775WAT     H259568   3.995   8.601   8.875
19776WAT      O59569   9.761   0.339   9.282
19776WAT     H159570   9.662   0.325   9.286
19776WAT     H259571   9.787   0.411   9.347
19777WAT      O59572   4.908   3.510   5.450
19777WAT     H159573   4.915   3.553   5.360
19777WAT     H259574   4.851   3.428   5.444
19778WAT      O59575   9.876   1.604   1.471
19778WAT     H159576   9.938   1.675   1.436
19778WAT     H259577   9.844   1.630   1.562
19779WAT      O59578   0.870   3.493   2.291
19779WAT     H159579   0.927   3.438   2.230
19779WAT     H259580   0.775   3.462   2.287
19780WAT      O59581   2.996   7.179   2.507
19780WAT     H159582   2.969   7.268   2.545
19780WAT     H259583   2.927   7.147   2.442
19781WAT      O59584   5.065   2.016   2.656
19781WAT     H159585   5.111   1.971   2.733
19781WAT     H259586   5.128   2.026   2.580
19782WAT      O59587   7.135   8.760   9.085
19782WAT     H159588   7.040   8.751   9.055
19782WAT     H259589   7.195   8.772   9.006
19783WAT      O59590   1.786   0.239   7.847
19783WAT     H159591   1.782   0.263   7.944
19783WAT     H259592   1.747   0.314   7.793
19784WAT      O59593   0.267   5.397   9.176
19784WAT     H159594   0.271   5.300   9.150
19784WAT     H259595   0.342   5.417   9.240
19785WAT      O59596   5.955   3.712   3.284
19785WAT     H159597   5.953   3.761   3.371
19785WAT     H259598   5.997   3.771   3.215
19786WAT      O59599   3.905   6.157   8.469
19786WAT     H159600   3.994   6.122   8.498
19786WAT     H259601   3.848   6.174   8.550
19787WAT      O59602   9.410   0.593   7.878
19787WAT     H159603   9.382   0.559   7.968
19787WAT     H259604   9.328   0.604   7.821
19788WAT      O59605   6.275   4.813   5.781
19788WAT     H159606   6.324   4.776   5.701
19788WAT     H259607   6.290   4.753   5.859
19789WAT      O59608   6.698   0.090   3.867
19789WAT     H159609   6.712  -0.007   3.885
19789WAT     H259610   6.657   0.133   3.947
19790WAT      O59611   5.862   2.717   7.083
19790WAT     H159612   5.848   2.657   7.003
19790WAT     H259613   5.871   2.660   7.165
19791WAT      O59614   9.598   8.096   8.845
19791WAT     H159615   9.567   8.190   8.836
19791WAT     H259616   9.585   8.065   8.940
19792WAT      O59617   8.419   9.271   8.493
19792WAT     H159618   8.341   9.280   8.432
19792WAT     H259619   8.411   9.187   8.546
19793WAT      O59620   1.122   0.258   5.149
19793WAT     H159621   1.059   0.332   5.127
19793WAT     H259622   1.216   0.290   5.140
19794WAT      O59623   1.806   8.648   0.476
19794WAT     H159624   1.790   8.738   0.518
19794WAT     H259625   1.736   8.630   0.408
19795WAT      O59626   2.930   3.079   0.752
19795WAT     H159627   2.986   3.018   0.696
19795WAT     H259628   2.926   3.170   0.710
19796WAT      O59629   4.533   9.172   7.754
19796WAT     H159630   4.526   9.107   7.830
19796WAT     H259631   4.442   9.188   7.715
19797WAT      O59632   9.306   1.651   2.173
19797WAT     H159633   9.225   1.700   2.141
19797WAT     H259634   9.381   1.715   2.186
19798WAT      O59635   7.642   2.098   3.444
19798WAT     H159636   7.583   2.151   3.384
19798WAT     H259637   7.601   2.008   3.460
19799WAT      O59638   4.548   7.929   5.577
19799WAT     H159639   4.612   7.868   5.623
19799WAT     H259640   4.459   7.884   5.568
19800WAT      O59641   8.356   9.539   1.067
19800WAT     H159642   8.351   9.568   0.971
19800WAT     H259643   8.274   9.487   1.091
19801WAT      O59644   4.159   1.834   4.055
19801WAT     H159645   4.156   1.862   3.959
19801WAT     H259646   4.245   1.787   4.074
19802WAT      O59647   7.888   5.209   2.709
19802WAT     H159648   7.880   5.151   2.790
19802WAT     H259649   7.799   5.216   2.664
19803WAT      O59650   9.848   3.423   1.633
19803WAT     H159651   9.761   3.471   1.646
19803WAT     H259652   9.905   3.435   1.715
19804WAT      O59653   1.223   7.848   8.148
19804WAT     H159654   1.235   7.898   8.234
19804WAT     H259655   1.125   7.841   8.127
19805WAT      O59656   2.046   7.349   9.100
19805WAT     H159657   2.013   7.256   9.082
19805WAT     H259658   2.079   7.389   9.015
19806WAT      O59659   8.283   1.918   3.578
19806WAT     H159660   8.253   1.897   3.671
19806WAT     H259661   8.348   1.848   3.548
19807WAT      O59662   5.907   9.287   5.581
19807WAT     H159663   5.927   9.244   5.669
19807WAT     H259664   5.935   9.226   5.507
19808WAT      O59665   4.516   1.049   8.378
19808WAT     H159666   4.433   1.030   8.327
19808WAT     H259667   4.593   1.058   8.315
19809WAT      O59668   1.166   3.041   4.512
19809WAT     H159669   1.147   2.983   4.433
19809WAT     H259670   1.256   3.018   4.549
19810WAT      O59671   8.368   1.583   3.951
19810WAT     H159672   8.383   1.505   4.011
19810WAT     H259673   8.300   1.559   3.881
19811WAT      O59674   1.747   3.800   3.991
19811WAT     H159675   1.743   3.712   4.039
19811WAT     H259676   1.685   3.797   3.913
19812WAT      O59677   5.318   5.568   7.744
19812WAT     H159678   5.413   5.561   7.775
19812WAT     H259679   5.308   5.650   7.687
19813WAT      O59680   0.323   6.566   8.597
19813WAT     H159681   0.291   6.615   8.515
19813WAT     H259682   0.418   6.591   8.616
19814WAT      O59683   9.071   4.281   3.048
19814WAT     H159684   9.026   4.209   3.101
19814WAT     H259685   9.001   4.343   3.012
19815WAT      O59686   8.026   9.528   1.553
19815WAT     H159687   7.928   9.511   1.551
19815WAT     H259688   8.055   9.568   1.466
19816WAT      O59689   6.134   1.185   7.331
19816WAT     H159690   6.060   1.253   7.327
19816WAT     H259691   6.198   1.200   7.256
19817WAT      O59692   7.970   4.268   0.756
19817WAT     H159693   8.031   4.283   0.834
19817WAT     H259694   7.875   4.275   0.786
19818WAT      O59695   0.462   4.238   5.868
19818WAT     H159696   0.386   4.189   5.912
19818WAT     H259697   0.427   4.289   5.789
19819WAT      O59698   0.517   4.751   8.194
19819WAT     H159699   0.445   4.775   8.128
19819WAT     H259700   0.497   4.794   8.282
19820WAT      O59701   0.945   0.751   9.523
19820WAT     H159702   0.997   0.800   9.594
19820WAT     H259703   0.862   0.803   9.501
19821WAT      O59704   9.633   9.281   2.948
19821WAT     H159705   9.608   9.308   2.855
19821WAT     H259706   9.732   9.288   2.960
19822WAT      O59707   8.003   6.698   3.455
19822WAT     H159708   7.993   6.725   3.551
19822WAT     H259709   7.954   6.763   3.397
19823WAT      O59710   8.293   7.795   0.381
19823WAT     H159711   8.317   7.698   0.378
19823WAT     H259712   8.370   7.850   0.350
19824WAT      O59713   4.404   5.889   2.510
19824WAT     H159714   4.496   5.850   2.516
19824WAT     H259715   4.371   5.909   2.602
19825WAT      O59716   7.880   8.795   3.480
19825WAT     H159717   7.839   8.792   3.389
19825WAT     H259718   7.951   8.865   3.483
19826WAT      O59719   2.757   1.758   9.010
19826WAT     H159720   2.696   1.837   9.004
19826WAT     H259721   2.817   1.768   9.089
19827WAT      O59722   6.852   1.130   4.914
19827WAT     H159723   6.868   1.045   4.963
19827WAT     H259724   6.837   1.204   4.981
19828WAT      O59725   2.406   2.290   6.485
19828WAT     H159726   2.315   2.267   6.451
19828WAT     H259727   2.462   2.207   6.489
19829WAT      O59728   5.767   1.094   1.966
19829WAT     H159729   5.764   1.061   2.061
19829WAT     H259730   5.737   1.189   1.963
19830WAT      O59731   0.364   4.768   7.908
19830WAT     H159732   0.360   4.766   7.809
19830WAT     H259733   0.306   4.696   7.945
19831WAT      O59734   9.734   2.129   6.031
19831WAT     H159735   9.667   2.128   5.957
19831WAT     H259736   9.686   2.137   6.119
19832WAT      O59737   6.557   4.293   8.501
19832WAT     H159738   6.557   4.195   8.518
19832WAT     H259739   6.608   4.313   8.418
19833WAT      O59740   9.699   3.560   5.251
19833WAT     H159741   9.640   3.619   5.307
19833WAT     H259742   9.759   3.507   5.311
19834WAT      O59743   3.327   4.276   5.501
19834WAT     H159744   3.305   4.274   5.403
19834WAT     H259745   3.385   4.355   5.521
19835WAT      O59746   7.066   3.420   1.903
19835WAT     H159747   7.160   3.388   1.890
19835WAT     H259748   7.003   3.359   1.856
19836WAT      O59749   9.278   8.506   1.466
19836WAT     H159750   9.338   8.427   1.473
19836WAT     H259751   9.289   8.563   1.548
19837WAT      O59752   4.640   2.347   5.613
19837WAT     H159753   4.672   2.312   5.701
19837WAT     H259754   4.717   2.355   5.551
19838WAT      O59755   7.906   1.199   2.069
19838WAT     H159756   7.831   1.264   2.057
19838WAT     H259757   7.978   1.219   2.003
19839WAT      O59758   2.494   1.015   6.324
19839WAT     H159759   2.574   1.042   6.269
19839WAT     H259760   2.415   1.005   6.263
19840WAT      O59761   2.236   2.163   9.165
19840WAT     H159762   2.254   2.076   9.120
19840WAT     H259763   2.230   2.149   9.264
19841WAT      O59764   1.809   8.767   7.288
19841WAT     H159765   1.759   8.763   7.202
19841WAT     H259766   1.745   8.759   7.364
19842WAT      O59767   4.132   5.853   9.627
19842WAT     H159768   4.214   5.909   9.617
19842WAT     H259769   4.093   5.834   9.537
19843WAT      O59770   1.031   9.509   7.121
19843WAT     H159771   0.950   9.484   7.067
19843WAT     H259772   1.016   9.484   7.216
19844WAT      O59773   1.141   6.171   5.761
19844WAT     H159774   1.087   6.097   5.722
19844WAT     H259775   1.123   6.256   5.711
19845WAT      O59776   0.952   8.347   8.658
19845WAT     H159777   0.959   8.248   8.641
19845WAT     H259778   0.945   8.363   8.756
19846WAT      O59779   9.614   8.672   8.798
19846WAT     H159780   9.576   8.757   8.835
19846WAT     H259781   9.620   8.604   8.871
19847WAT      O59782   7.758   5.126   1.224
19847WAT     H159783   7.685   5.164   1.167
19847WAT     H259784   7.782   5.034   1.191
19848WAT      O59785   1.863   6.080   7.654
19848WAT     H159786   1.902   6.058   7.565
19848WAT     H259787   1.785   6.019   7.673
19849WAT      O59788   9.068   1.048   5.701
19849WAT     H159789   9.052   1.146   5.696
19849WAT     H259790   9.066   1.009   5.609
19850WAT      O59791   3.409   7.514   8.627
19850WAT     H159792   3.494   7.463   8.636
19850WAT     H259793   3.410   7.590   8.693
19851WAT      O59794   2.376   7.418   6.385
19851WAT     H159795   2.377   7.500   6.442
19851WAT     H259796   2.282   7.383   6.379
19852WAT      O59797   4.596   9.528   9.606
19852WAT     H159798   4.649   9.474   9.541
19852WAT     H259799   4.528   9.581   9.557
19853WAT      O59800   1.145   9.546   1.486
19853WAT     H159801   1.176   9.456   1.514
19853WAT     H259802   1.180   9.615   1.550
19854WAT      O59803   8.958   2.367   0.815
19854WAT     H159804   9.039   2.408   0.858
19854WAT     H259805   8.920   2.296   0.875
19855WAT      O59806   2.233   3.355   8.875
19855WAT     H159807   2.193   3.336   8.964
19855WAT     H259808   2.183   3.430   8.830
19856WAT      O59809   6.678   9.264   0.225
19856WAT     H159810   6.581   9.282   0.241
19856WAT     H259811   6.731   9.293   0.304
19857WAT      O59812   0.119   4.487   4.258
19857WAT     H159813   0.188   4.419   4.280
19857WAT     H259814   0.077   4.464   4.170
19858WAT      O59815   4.857   7.795   0.341
19858WAT     H159816   4.824   7.886   0.318
19858WAT     H259817   4.896   7.752   0.261
19859WAT      O59818   1.468   3.118   1.804
19859WAT     H159819   1.371   3.114   1.780
19859WAT     H259820   1.481   3.082   1.897
19860WAT      O59821   3.080   5.510   7.070
19860WAT     H159822   3.114   5.462   7.151
19860WAT     H259823   3.114   5.465   6.988
19861WAT      O59824   0.292   7.881   4.003
19861WAT     H159825   0.252   7.970   4.025
19861WAT     H259826   0.219   7.816   3.980
19862WAT      O59827   7.486   7.569   2.915
19862WAT     H159828   7.406   7.559   2.974
19862WAT     H259829   7.566   7.532   2.961
19863WAT      O59830   9.259   4.699   3.132
19863WAT     H159831   9.169   4.738   3.111
19863WAT     H259832   9.306   4.676   3.047
19864WAT      O59833   4.065   9.010   6.419
19864WAT     H159834   4.071   9.051   6.328
19864WAT     H259835   3.969   8.988   6.439
19865WAT      O59836   5.648   8.817   8.267
19865WAT     H159837   5.704   8.801   8.349
19865WAT     H259838   5.582   8.742   8.258
19866WAT      O59839   1.373   4.667   2.792
19866WAT     H159840   1.372   4.689   2.889
19866WAT     H259841   1.289   4.700   2.749
19867WAT      O59842   6.318   6.461   2.278
19867WAT     H159843   6.395   6.525   2.278
19867WAT     H259844   6.232   6.511   2.276
19868WAT      O59845   3.669   5.148   6.683
19868WAT     H159846   3.682   5.119   6.778
19868WAT     H259847   3.604   5.087   6.638
19869WAT      O59848   4.232   3.856   3.548
19869WAT     H159849   4.197   3.785   3.610
19869WAT     H259850   4.331   3.844   3.538
19870WAT      O59851   0.862   6.675   6.035
19870WAT     H159852   0.913   6.741   6.090
19870WAT     H259853   0.833   6.719   5.950
19871WAT      O59854   1.284   7.144   2.462
19871WAT     H159855   1.189   7.118   2.480
19871WAT     H259856   1.332   7.155   2.549
19872WAT      O59857   9.405   6.512   3.796
19872WAT     H159858   9.325   6.467   3.835
19872WAT     H259859   9.456   6.557   3.869
19873WAT      O59860   2.086   6.800   6.691
19873WAT     H159861   2.065   6.816   6.594
19873WAT     H259862   2.159   6.863   6.720
19874WAT      O59863   9.777   0.151   7.402
19874WAT     H159864   9.710   0.187   7.466
19874WAT     H259865   9.864   0.135   7.450
19875WAT      O59866   7.041   8.042   7.190
19875WAT     H159867   7.127   8.026   7.142
19875WAT     H259868   7.047   8.125   7.245
19876WAT      O59869   9.544   4.050   0.272
19876WAT     H159870   9.640   4.048   0.244
19876WAT     H259871   9.505   4.140   0.250
19877WAT      O59872   5.815   0.547   9.258
19877WAT     H159873   5.907   0.525   9.289
19877WAT     H259874   5.819   0.617   9.186
19878WAT      O59875   1.926   5.224   5.086
19878WAT     H159876   1.958   5.178   5.168
19878WAT     H259877   1.957   5.174   5.005
19879WAT      O59878   9.404   1.711   9.009
19879WAT     H159879   9.324   1.729   9.066
19879WAT     H259880   9.481   1.766   9.041
19880WAT      O59881   8.530   4.742   7.596
19880WAT     H159882   8.621   4.763   7.632
19880WAT     H259883   8.538   4.719   7.499
19881WAT      O59884   2.678   6.494   6.342
19881WAT     H159885   2.775   6.515   6.355
19881WAT     H259886   2.629   6.576   6.314
19882WAT      O59887   2.602   3.414   9.807
19882WAT     H159888   2.651   3.404   9.720
19882WAT     H259889   2.599   3.326   9.854
19883WAT      O59890   4.841   6.625   8.025
19883WAT     H159891   4.879   6.717   8.019
19883WAT     H259892   4.742   6.630   8.040
19884WAT      O59893   2.142   3.253   0.414
19884WAT     H159894   2.235   3.219   0.403
19884WAT     H259895   2.128   3.283   0.508
19885WAT      O59896   7.292   7.616   3.494
19885WAT     H159897   7.304   7.711   3.522
19885WAT     H259898   7.377   7.582   3.453
19886WAT      O59899   4.409   4.979   5.712
19886WAT     H159900   4.470   4.902   5.726
19886WAT     H259901   4.447   5.040   5.642
19887WAT      O59902   8.807   8.088   4.959
19887WAT     H159903   8.862   8.012   4.927
19887WAT     H259904   8.710   8.062   4.958
19888WAT      O59905   4.102   0.732   0.979
19888WAT     H159906   4.007   0.765   0.979
19888WAT     H259907   4.111   0.656   0.916
19889WAT      O59908   3.456   8.927   8.663
19889WAT     H159909   3.359   8.947   8.648
19889WAT     H259910   3.464   8.844   8.719
19890WAT      O59911   8.060   5.106   3.948
19890WAT     H159912   7.978   5.142   3.991
19890WAT     H259913   8.069   5.008   3.969
19891WAT      O59914   3.385   4.272   8.289
19891WAT     H159915   3.304   4.261   8.230
19891WAT     H259916   3.447   4.338   8.248
19892WAT      O59917   5.220   2.369   6.451
19892WAT     H159918   5.189   2.317   6.530
19892WAT     H259919   5.184   2.327   6.367
19893WAT      O59920   3.844   3.588   9.218
19893WAT     H159921   3.773   3.542   9.272
19893WAT     H259922   3.801   3.658   9.160
19894WAT      O59923   6.388   6.458   6.502
19894WAT     H159924   6.487   6.451   6.507
19894WAT     H259925   6.353   6.499   6.586
19895WAT      O59926   8.957   7.227   0.602
19895WAT     H159927   9.032   7.230   0.668
19895WAT     H259928   8.870   7.236   0.651
19896WAT      O59929   3.781   4.446   5.420
19896WAT     H159930   3.803   4.489   5.333
19896WAT     H259931   3.725   4.365   5.404
19897WAT      O59932   0.547   1.528   3.847
19897WAT     H159933   0.504   1.517   3.936
19897WAT     H259934   0.623   1.593   3.855
19898WAT      O59935   0.395   0.083   1.548
19898WAT     H159936   0.426   0.127   1.464
19898WAT     H259937   0.471   0.036   1.592
19899WAT      O59938   0.983   2.884   9.341
19899WAT     H159939   1.042   2.852   9.415
19899WAT     H259940   0.890   2.896   9.377
19900WAT      O59941   8.355   9.405   4.359
19900WAT     H159942   8.259   9.390   4.336
19900WAT     H259943   8.392   9.478   4.302
19901WAT      O59944   4.551   2.749   0.380
19901WAT     H159945   4.612   2.796   0.443
19901WAT     H259946   4.605   2.693   0.316
19902WAT      O59947   0.093   1.544   2.342
19902WAT     H159948   0.025   1.613   2.365
19902WAT     H259949   0.180   1.589   2.318
19903WAT      O59950   0.164   2.855   8.715
19903WAT     H159951   0.239   2.918   8.694
19903WAT     H259952   0.126   2.877   8.805
19904WAT      O59953   8.870   0.693   1.539
19904WAT     H159954   8.823   0.634   1.473
19904WAT     H259955   8.859   0.656   1.631
19905WAT      O59956   3.490   0.271   7.798
19905WAT     H159957   3.478   0.195   7.863
19905WAT     H259958   3.494   0.357   7.849
19906WAT      O59959   8.741   3.793   2.786
19906WAT     H159960   8.665   3.857   2.771
19906WAT     H259961   8.808   3.834   2.847
19907WAT      O59962   5.559   7.070   4.307
19907WAT     H159963   5.656   7.055   4.323
19907WAT     H259964   5.528   7.011   4.232
19908WAT      O59965   7.477   5.171   3.758
19908WAT     H159966   7.550   5.240   3.752
19908WAT     H259967   7.399   5.200   3.702
19909WAT      O59968   3.332   4.138   4.740
19909WAT     H159969   3.376   4.227   4.752
19909WAT     H259970   3.243   4.139   4.785
19910WAT      O59971   8.567   2.917   4.446
19910WAT     H159972   8.546   3.012   4.423
19910WAT     H259973   8.617   2.913   4.532
19911WAT      O59974   6.527   1.539   1.482
19911WAT     H159975   6.605   1.600   1.493
19911WAT     H259976   6.459   1.582   1.423
19912WAT      O59977   0.854   7.036   8.875
19912WAT     H159978   0.908   7.052   8.792
19912WAT     H259979   0.886   6.953   8.921
19913WAT      O59980   2.404   0.726   5.901
19913WAT     H159981   2.380   0.726   5.804
19913WAT     H259982   2.487   0.779   5.916
19914WAT      O59983   5.444   3.805   5.864
19914WAT     H159984   5.412   3.719   5.904
19914WAT     H259985   5.473   3.867   5.937
19915WAT      O59986   7.606   5.278   4.853
19915WAT     H159987   7.592   5.356   4.914
19915WAT     H259988   7.650   5.204   4.903
19916WAT      O59989   0.769   2.586   6.362
19916WAT     H159990   0.723   2.529   6.294
19916WAT     H259991   0.710   2.664   6.385
19917WAT      O59992   4.979   4.197   7.977
19917WAT     H159993   4.965   4.131   7.903
19917WAT     H259994   4.939   4.285   7.952
19918WAT      O59995   6.359   6.160   3.032
19918WAT     H159996   6.319   6.186   2.945
19918WAT     H259997   6.300   6.093   3.077
19919WAT      O59998   5.962   1.659   9.455
19919WAT     H159999   6.012   1.618   9.531
19919WAT     H260000   5.883   1.710   9.490
19920WAT      O60001   6.315   0.024   4.534
19920WAT     H160002   6.226  -0.014   4.558
19920WAT     H260003   6.306   0.082   4.453
19921WAT      O60004   2.000   6.790   5.345
19921WAT     H160005   2.047   6.809   5.259
19921WAT     H260006   2.020   6.696   5.375
19922WAT      O60007   0.406   8.179   5.743
19922WAT     H160008   0.453   8.097   5.711
19922WAT     H260009   0.466   8.231   5.804
19923WAT      O60010   8.571   8.482   0.200
19923WAT     H160011   8.558   8.496   0.298
19923WAT     H260012   8.519   8.401   0.172
19924WAT      O60013   6.684   8.492   2.258
19924WAT     H160014   6.679   8.473   2.355
19924WAT     H260015   6.659   8.588   2.241
19925WAT      O60016   3.815   7.990   1.653
19925WAT     H160017   3.772   7.977   1.564
19925WAT     H260018   3.877   8.069   1.649
19926WAT      O60019   3.821   7.182   6.131
19926WAT     H160020   3.907   7.214   6.171
19926WAT     H260021   3.773   7.124   6.197
19927WAT      O60022   9.239   8.837   5.099
19927WAT     H160023   9.162   8.894   5.071
19927WAT     H260024   9.243   8.755   5.042
19928WAT      O60025   1.049   7.793   7.051
19928WAT     H160026   1.092   7.837   6.972
19928WAT     H260027   1.120   7.769   7.118
19929WAT      O60028   3.359   4.684   4.090
19929WAT     H160029   3.455   4.711   4.094
19929WAT     H260030   3.301   4.765   4.091
19930WAT      O60031   7.168   0.356   1.428
19930WAT     H160032   7.153   0.294   1.505
19930WAT     H260033   7.146   0.309   1.342
19931WAT      O60034   6.816   3.906   7.101
19931WAT     H160035   6.740   3.848   7.129
19931WAT     H260036   6.811   3.993   7.149
19932WAT      O60037   3.509   0.363   3.170
19932WAT     H160038   3.444   0.438   3.166
19932WAT     H260039   3.574   0.371   3.094
19933WAT      O60040   4.747   2.896   1.320
19933WAT     H160041   4.750   2.907   1.221
19933WAT     H260042   4.827   2.844   1.351
19934WAT      O60043   3.599   8.636   7.002
19934WAT     H160044   3.681   8.667   7.049
19934WAT     H260045   3.625   8.589   6.918
19935WAT      O60046   5.055   0.881   5.118
19935WAT     H160047   5.153   0.879   5.100
19935WAT     H260048   5.036   0.838   5.207
19936WAT      O60049   8.508   0.384   2.491
19936WAT     H160050   8.558   0.469   2.506
19936WAT     H260051   8.468   0.353   2.577
19937WAT      O60052   2.681   5.511   2.101
19937WAT     H160053   2.692   5.462   2.187
19937WAT     H260054   2.639   5.451   2.033
19938WAT      O60055   9.334   7.802   2.351
19938WAT     H160056   9.340   7.895   2.388
19938WAT     H260057   9.307   7.807   2.255
19939WAT      O60058   4.133   2.127   0.320
19939WAT     H160059   4.155   2.063   0.246
19939WAT     H260060   4.059   2.089   0.375
19940WAT      O60061   3.858   5.177   2.861
19940WAT     H160062   3.800   5.256   2.884
19940WAT     H260063   3.885   5.184   2.765
19941WAT      O60064   9.195   6.257   5.088
19941WAT     H160065   9.190   6.159   5.069
19941WAT     H260066   9.113   6.302   5.051
19942WAT      O60067   3.796   4.928   7.638
19942WAT     H160068   3.829   5.015   7.674
19942WAT     H260069   3.861   4.895   7.568
19943WAT      O60070   4.933   1.096   3.893
19943WAT     H160071   4.975   1.174   3.939
19943WAT     H260072   4.857   1.128   3.837
19944WAT      O60073   8.480   1.683   0.071
19944WAT     H160074   8.471   1.769   0.120
19944WAT     H260075   8.525   1.698  -0.017
19945WAT      O60076   0.361   6.779   3.939
19945WAT     H160077   0.416   6.851   3.897
19945WAT     H260078   0.418   6.725   4.001
19946WAT      O60079   6.384   7.295   9.364
19946WAT     H160080   6.441   7.351   9.303
19946WAT     H260081   6.322   7.239   9.308
19947WAT      O60082   5.500   6.228   4.696
19947WAT     H160083   5.467   6.319   4.721
19947WAT     H260084   5.586   6.209   4.742
19948WAT      O60085   2.930   6.222   1.698
19948WAT     H160086   2.967   6.150   1.640
19948WAT     H260087   3.005   6.268   1.746
19949WAT      O60088   6.746   9.069   2.387
19949WAT     H160089   6.838   9.062   2.348
19949WAT     H260090   6.679   9.059   2.314
19950WAT      O60091   3.081   3.607   4.543
19950WAT     H160092   3.176   3.637   4.534
19950WAT     H260093   3.033   3.669   4.605
19951WAT      O60094   8.804   7.479   3.280
19951WAT     H160095   8.784   7.383   3.301
19951WAT     H260096   8.847   7.522   3.360
19952WAT      O60097   2.476   6.640   9.599
19952WAT     H160098   2.489   6.731   9.639
19952WAT     H260099   2.510   6.641   9.504
19953WAT      O60100   9.309   3.113   6.713
19953WAT     H160101   9.224   3.165   6.721
19953WAT     H260102   9.305   3.034   6.774
19954WAT      O60103   9.115   5.545   1.524
19954WAT     H160104   9.173   5.518   1.600
19954WAT     H260105   9.019   5.537   1.550
19955WAT      O60106   2.775   1.633   6.787
19955WAT     H160107   2.791   1.551   6.732
19955WAT     H260108   2.802   1.614   6.882
19956WAT      O60109   7.778   3.424   7.442
19956WAT     H160110   7.848   3.370   7.394
19956WAT     H260111   7.776   3.516   7.404
19957WAT      O60112   1.301   4.675   5.429
19957WAT     H160113   1.375   4.608   5.418
19957WAT     H260114   1.251   4.682   5.343
19958WAT      O60115   9.278   7.270   6.620
19958WAT     H160116   9.195   7.256   6.674
19958WAT     H260117   9.255   7.313   6.533
19959WAT      O60118   6.963   5.149   6.335
19959WAT     H160119   6.938   5.155   6.239
19959WAT     H260120   7.058   5.177   6.346
19960WAT      O60121   6.392   1.124   2.698
19960WAT     H160122   6.349   1.124   2.608
19960WAT     H260123   6.343   1.061   2.759
19961WAT      O60124   2.137   2.138   4.979
19961WAT     H160125   2.077   2.090   5.042
19961WAT     H260126   2.215   2.080   4.956
19962WAT      O60127   3.741   8.947   7.205
19962WAT     H160128   3.727   8.965   7.107
19962WAT     H260129   3.687   9.012   7.258
19963WAT      O60130   1.723   9.599   1.414
19963WAT     H160131   1.695   9.690   1.445
19963WAT     H260132   1.811   9.575   1.455
19964WAT      O60133   9.886   6.478   0.597
19964WAT     H160134   9.792   6.495   0.568
19964WAT     H260135   9.949   6.528   0.537
19965WAT      O60136   3.779   0.476   7.659
19965WAT     H160137   3.720   0.557   7.652
19965WAT     H260138   3.841   0.487   7.737
19966WAT      O60139   1.156   5.619   5.763
19966WAT     H160140   1.201   5.588   5.847
19966WAT     H260141   1.202   5.580   5.684
19967WAT      O60142   5.155   0.111   3.966
19967WAT     H160143   5.149   0.164   4.051
19967WAT     H260144   5.152   0.173   3.888
19968WAT      O60145   7.688   2.233   5.948
19968WAT     H160146   7.638   2.235   6.034
19968WAT     H260147   7.623   2.244   5.872
19969WAT      O60148   3.785   1.435   4.124
19969WAT     H160149   3.763   1.389   4.039
19969WAT     H260150   3.854   1.505   4.107
19970WAT      O60151   4.123   5.135   2.879
19970WAT     H160152   4.159   5.189   2.803
19970WAT     H260153   4.025   5.153   2.889
19971WAT      O60154   1.402   6.939   8.656
19971WAT     H160155   1.385   6.844   8.682
19971WAT     H260156   1.417   6.994   8.738
19972WAT      O60157   6.292   7.895   1.946
19972WAT     H160158   6.322   7.990   1.946
19972WAT     H260159   6.354   7.840   1.889
19973WAT      O60160   3.726   7.255   7.375
19973WAT     H160161   3.733   7.218   7.468
19973WAT     H260162   3.754   7.351   7.375
19974WAT      O60163   2.974   3.818   3.420
19974WAT     H160164   3.058   3.869   3.440
19974WAT     H260165   2.993   3.751   3.348
19975WAT      O60166   7.791   0.985   0.418
19975WAT     H160167   7.736   0.947   0.492
19975WAT     H260168   7.744   0.971   0.331
19976WAT      O60169   2.879   0.675   4.346
19976WAT     H160170   2.934   0.726   4.280
19976WAT     H260171   2.809   0.622   4.297
19977WAT      O60172   4.882   4.723   5.926
19977WAT     H160173   4.792   4.749   5.961
19977WAT     H260174   4.917   4.645   5.978
19978WAT      O60175   0.216   9.196   1.769
19978WAT     H160176   0.127   9.180   1.726
19978WAT     H260177   0.269   9.112   1.767
19979WAT      O60178   7.145   0.872   5.781
19979WAT     H160179   7.055   0.908   5.757
19979WAT     H260180   7.216   0.937   5.753
19980WAT      O60181   5.097   2.135   0.079
19980WAT     H160182   5.127   2.135   0.174
19980WAT     H260183   5.168   2.175   0.021
19981WAT      O60184   5.132   6.024   9.473
19981WAT     H160185   5.168   6.105   9.425
19981WAT     H260186   5.034   6.036   9.488
19982WAT      O60187   0.548   0.807   1.027
19982WAT     H160188   0.597   0.865   0.963
19982WAT     H260189   0.605   0.790   1.107
19983WAT      O60190   5.014   6.049   0.563
19983WAT     H160191   5.113   6.045   0.550
19983WAT     H260192   4.976   6.126   0.511
19984WAT      O60193   8.282   2.671   5.612
19984WAT     H160194   8.276   2.634   5.519
19984WAT     H260195   8.308   2.767   5.608
19985WAT      O60196   1.763   9.754   3.730
19985WAT     H160197   1.824   9.732   3.654
19985WAT     H260198   1.747   9.853   3.732
19986WAT      O60199   4.995   0.226   3.559
19986WAT     H160200   4.907   0.204   3.602
19986WAT     H260201   4.996   0.189   3.465
19987WAT      O60202   5.460   6.610   9.532
19987WAT     H160203   5.520   6.626   9.454
19987WAT     H260204   5.515   6.605   9.616
19988WAT      O60205   1.397   3.992   0.297
19988WAT     H160206   1.408   3.896   0.272
19988WAT     H260207   1.483   4.040   0.284
19989WAT      O60208   5.956   7.930   3.782
19989WAT     H160209   6.017   7.876   3.724
19989WAT     H260210   5.954   8.025   3.749
19990WAT      O60211   5.029   5.701   0.749
19990WAT     H160212   5.102   5.771   0.750
19990WAT     H260213   4.969   5.716   0.828
19991WAT      O60214   4.113   0.885   1.693
19991WAT     H160215   4.162   0.799   1.682
19991WAT     H260216   4.163   0.958   1.646
19992WAT      O60217   5.842   1.288   5.394
19992WAT     H160218   5.836   1.292   5.294
19992WAT     H260219   5.750   1.287   5.433
19993WAT      O60220   4.213   9.116   7.954
19993WAT     H160221   4.179   9.144   7.864
19993WAT     H260222   4.298   9.066   7.943
19994WAT      O60223   0.021   8.428   6.479
19994WAT     H160224  -0.023   8.345   6.447
19994WAT     H260225  -0.049   8.494   6.508
19995WAT      O60226   3.746   6.141   1.548
19995WAT     H160227   3.833   6.136   1.499
19995WAT     H260228   3.700   6.227   1.525
19996WAT      O60229   6.161   3.046   5.573
19996WAT     H160230   6.193   2.969   5.629
19996WAT     H260231   6.130   3.120   5.632
19997WAT      O60232   7.396   8.507   0.409
19997WAT     H160233   7.424   8.493   0.504
19997WAT     H260234   7.297   8.499   0.402
19998WAT      O60235   7.856   0.682   9.355
19998WAT     H160236   7.917   0.635   9.418
19998WAT     H260237   7.871   0.649   9.262
19999WAT      O60238   7.778   9.544   6.353
19999WAT     H160239   7.873   9.515   6.367
19999WAT     H260240   7.761   9.626   6.407
20000WAT      O60241   8.526   2.996   9.404
20000WAT     H160242   8.464   3.065   9.369
20000WAT     H260243   8.603   3.040   9.450
20001WAT      O60244   3.472   8.703   1.626
20001WAT     H160245   3.491   8.696   1.528
20001WAT     H260246   3.416   8.784   1.643
20002WAT      O60247   6.498   6.182   0.806
20002WAT     H160248   6.451   6.187   0.895
20002WAT     H260249   6.567   6.254   0.801
20003WAT      O60250   6.800   1.788   6.295
20003WAT     H160251   6.756   1.854   6.356
20003WAT     H260252   6.752   1.700   6.301
20004WAT      O60253   5.816   8.683   4.483
20004WAT     H160254   5.862   8.769   4.462
20004WAT     H260255   5.724   8.703   4.519
20005WAT      O60256   4.887   6.021   8.901
20005WAT     H160257   4.826   5.973   8.963
20005WAT     H260258   4.835   6.058   8.824
20006WAT      O60259   5.696   3.409   2.635
20006WAT     H160260   5.677   3.428   2.731
20006WAT     H260261   5.733   3.317   2.625
20007WAT      O60262   9.265   5.433   4.200
20007WAT     H160263   9.176   5.403   4.165
20007WAT     H260264   9.265   5.533   4.210
20008WAT      O60265   4.379   3.524   9.071
20008WAT     H160266   4.461   3.489   9.117
20008WAT     H260267   4.301   3.521   9.134
20009WAT      O60268   1.951   4.451   3.797
20009WAT     H160269   2.004   4.393   3.859
20009WAT     H260270   2.010   4.522   3.759
20010WAT      O60271   2.459   1.555   1.132
20010WAT     H160272   2.453   1.531   1.229
20010WAT     H260273   2.556   1.562   1.106
20011WAT      O60274   3.329   6.854   8.234
20011WAT     H160275   3.248   6.856   8.292
20011WAT     H260276   3.370   6.763   8.235
20012WAT      O60277   8.694   6.273   6.841
20012WAT     H160278   8.731   6.274   6.934
20012WAT     H260279   8.746   6.336   6.784
20013WAT      O60280   9.103   4.737   7.308
20013WAT     H160281   9.201   4.755   7.296
20013WAT     H260282   9.061   4.723   7.218
20014WAT      O60283   3.826   9.097   1.398
20014WAT     H160284   3.923   9.120   1.387
20014WAT     H260285   3.806   9.013   1.348
20015WAT      O60286   5.706   5.754   8.614
20015WAT     H160287   5.639   5.730   8.544
20015WAT     H260288   5.768   5.676   8.628
20016WAT      O60289   1.671   7.957   8.361
20016WAT     H160290   1.607   7.913   8.298
20016WAT     H260291   1.626   8.034   8.406
20017WAT      O60292   0.369   8.561   8.968
20017WAT     H160293   0.339   8.478   8.920
20017WAT     H260294   0.467   8.554   8.988
20018WAT      O60295   3.100   8.663   8.269
20018WAT     H160296   3.045   8.664   8.352
20018WAT     H260297   3.154   8.747   8.264
20019WAT      O60298   4.035   3.861   8.445
20019WAT     H160299   4.129   3.885   8.470
20019WAT     H260300   4.037   3.801   8.364
20020WAT      O60301   1.213   5.257   3.682
20020WAT     H160302   1.162   5.203   3.615
20020WAT     H260303   1.204   5.354   3.660
20021WAT      O60304   3.661   2.131   9.067
20021WAT     H160305   3.703   2.136   9.158
20021WAT     H260306   3.699   2.203   9.009
20022WAT      O60307   6.772   5.869   7.679
20022WAT     H160308   6.870   5.868   7.695
20022WAT     H260309   6.724   5.881   7.766
20023WAT      O60310   4.642   0.691   5.169
20023WAT     H160311   4.568   0.755   5.149
20023WAT     H260312   4.685   0.662   5.084
20024WAT      O60313   9.616   0.719   7.214
20024WAT     H160314   9.712   0.743   7.220
20024WAT     H260315   9.587   0.720   7.118
20025WAT      O60316   4.919   9.767   0.814
20025WAT     H160317   4.925   9.845   0.752
20025WAT     H260318   4.854   9.700   0.778
20026WAT      O60319   8.879   6.972   8.391
20026WAT     H160320   8.944   7.031   8.440
20026WAT     H260321   8.874   7.001   8.295
20027WAT      O60322   1.552   3.571   1.861
20027WAT     H160323   1.584   3.490   1.812
20027WAT     H260324   1.583   3.654   1.813
20028WAT      O60325   3.375   9.608   2.609
20028WAT     H160326   3.399   9.694   2.563
20028WAT     H260327   3.384   9.532   2.544
20029WAT      O60328   3.160   3.050   1.871
20029WAT     H160329   3.073   3.095   1.852
20029WAT     H260330   3.146   2.951   1.874
20030WAT      O60331   5.152   7.587   7.262
20030WAT     H160332   5.100   7.502   7.273
20030WAT     H260333   5.243   7.575   7.301
20031WAT      O60334   7.190   4.789   1.561
20031WAT     H160335   7.204   4.698   1.522
20031WAT     H260336   7.190   4.857   1.488
20032WAT      O60337   3.215   9.659   6.526
20032WAT     H160338   3.173   9.680   6.614
20032WAT     H260339   3.218   9.742   6.469
20033WAT      O60340   3.981   4.370   5.026
20033WAT     H160341   3.889   4.349   4.994
20033WAT     H260342   4.016   4.295   5.082
20034WAT      O60343   2.124   0.737   0.272
20034WAT     H160344   2.136   0.645   0.234
20034WAT     H260345   2.059   0.788   0.215
20035WAT      O60346   2.080   0.364   2.963
20035WAT     H160347   2.019   0.288   2.985
20035WAT     H260348   2.033   0.426   2.900
20036WAT      O60349   3.860   3.522   4.400
20036WAT     H160350   3.941   3.496   4.347
20036WAT     H260351   3.857   3.469   4.484
20037WAT      O60352   6.860   2.227   6.006
20037WAT     H160353   6.859   2.188   6.099
20037WAT     H260354   6.783   2.289   5.995
20038WAT      O60355   8.056   9.382   0.909
20038WAT     H160356   7.978   9.319   0.904
20038WAT     H260357   8.028   9.472   0.875
20039WAT      O60358   9.327   2.822   4.264
20039WAT     H160359   9.394   2.852   4.331
20039WAT     H260360   9.236   2.851   4.293
20040WAT      O60361   6.673   3.598   8.363
20040WAT     H160362   6.679   3.532   8.438
20040WAT     H260363   6.731   3.677   8.384
20041WAT      O60364   8.933   3.971   6.320
20041WAT     H160365   8.834   3.961   6.322
20041WAT     H260366   8.975   3.907   6.384
20042WAT      O60367   9.214   5.362   0.893
20042WAT     H160368   9.189   5.277   0.847
20042WAT     H260369   9.266   5.342   0.975
20043WAT      O60370   2.578   8.708   6.868
20043WAT     H160371   2.499   8.681   6.922
20043WAT     H260372   2.647   8.634   6.870
20044WAT      O60373   5.219   6.340   1.783
20044WAT     H160374   5.179   6.342   1.874
20044WAT     H260375   5.263   6.251   1.768
20045WAT      O60376   4.834   6.741   4.373
20045WAT     H160377   4.895   6.723   4.297
20045WAT     H260378   4.771   6.815   4.349
20046WAT      O60379   7.814   6.180   6.543
20046WAT     H160380   7.821   6.121   6.624
20046WAT     H260381   7.733   6.238   6.550
20047WAT      O60382   5.573   8.691   7.189
20047WAT     H160383   5.601   8.740   7.107
20047WAT     H260384   5.647   8.631   7.220
20048WAT      O60385   3.671   5.198   4.659
20048WAT     H160386   3.706   5.227   4.748
20048WAT     H260387   3.747   5.180   4.597
20049WAT      O60388   1.336   6.427   1.011
20049WAT     H160389   1.253   6.372   1.018
20049WAT     H260390   1.413   6.368   0.985
20050WAT      O60391   6.768   6.583   6.262
20050WAT     H160392   6.732   6.627   6.180
20050WAT     H260393   6.836   6.514   6.236
20051WAT      O60394   2.790   2.984   5.556
20051WAT     H160395   2.885   2.981   5.524
20051WAT     H260396   2.741   2.905   5.521
20052WAT      O60397   4.350   2.946   9.563
20052WAT     H160398   4.436   2.902   9.540
20052WAT     H260399   4.367   3.043   9.584
20053WAT      O60400   7.054   4.617   2.011
20053WAT     H160401   7.010   4.539   2.056
20053WAT     H260402   7.128   4.652   2.069
20054WAT      O60403   0.738   0.140   5.415
20054WAT     H160404   0.669   0.109   5.349
20054WAT     H260405   0.826   0.099   5.392
20055WAT      O60406   3.017   9.747   5.743
20055WAT     H160407   3.073   9.690   5.684
20055WAT     H260408   2.998   9.698   5.828
20056WAT      O60409   6.660   3.503   4.616
20056WAT     H160410   6.563   3.517   4.595
20056WAT     H260411   6.692   3.419   4.572
20057WAT      O60412   2.727   1.178   1.847
20057WAT     H160413   2.799   1.234   1.888
20057WAT     H260414   2.648   1.175   1.908
20058WAT      O60415   8.002   2.884   8.945
20058WAT     H160416   8.017   2.785   8.943
20058WAT     H260417   7.904   2.902   8.950
20059WAT      O60418   3.037   3.452   2.993
20059WAT     H160419   2.946   3.425   2.962
20059WAT     H260420   3.104   3.388   2.957
20060WAT      O60421   5.162   4.941   0.976
20060WAT     H160422   5.063   4.940   0.988
20060WAT     H260423   5.204   4.880   1.043
20061WAT      O60424   4.110   6.955   8.596
20061WAT     H160425   4.144   6.862   8.612
20061WAT     H260426   4.028   6.970   8.650
20062WAT      O60427   0.705   1.272   3.454
20062WAT     H160428   0.767   1.326   3.510
20062WAT     H260429   0.617   1.262   3.502
20063WAT      O60430   8.742   4.995   0.323
20063WAT     H160431   8.707   5.077   0.368
20063WAT     H260432   8.809   4.951   0.383
20064WAT      O60433   0.789   6.784   7.895
20064WAT     H160434   0.729   6.759   7.972
20064WAT     H260435   0.884   6.766   7.919
20065WAT      O60436   2.998   3.001   0.337
20065WAT     H160437   2.972   3.094   0.365
20065WAT     H260438   3.042   2.954   0.413
20066WAT      O60439   0.983   6.047   1.846
20066WAT     H160440   0.919   6.015   1.776
20066WAT     H260441   1.076   6.018   1.823
20067WAT      O60442   6.073   4.914   8.799
20067WAT     H160443   5.988   4.887   8.844
20067WAT     H260444   6.107   4.838   8.744
20068WAT      O60445   4.087   8.285   2.819
20068WAT     H160446   4.184   8.280   2.844
20068WAT     H260447   4.048   8.372   2.852
20069WAT      O60448   1.700   1.729   4.724
20069WAT     H160449   1.683   1.809   4.667
20069WAT     H260450   1.795   1.730   4.756
20070WAT      O60451   7.757   6.893   4.613
20070WAT     H160452   7.794   6.949   4.539
20070WAT     H260453   7.795   6.923   4.701
20071WAT      O60454   2.671   4.244   3.422
20071WAT     H160455   2.750   4.183   3.428
20071WAT     H260456   2.678   4.315   3.492
20072WAT      O60457   7.450   1.589   0.198
20072WAT     H160458   7.535   1.611   0.149
20072WAT     H260459   7.411   1.504   0.162
20073WAT      O60460   9.604   8.905   2.623
20073WAT     H160461   9.637   8.830   2.680
20073WAT     H260462   9.540   8.962   2.676
20074WAT      O60463   8.049   5.208   2.458
20074WAT     H160464   8.007   5.197   2.548
20074WAT     H260465   8.146   5.228   2.469
20075WAT      O60466   8.059   0.315   5.428
20075WAT     H160467   7.962   0.333   5.445
20075WAT     H260468   8.112   0.339   5.510
20076WAT      O60469   1.601   0.822   5.081
20076WAT     H160470   1.504   0.825   5.105
20076WAT     H260471   1.640   0.735   5.111
20077WAT      O60472   2.936   3.911   1.152
20077WAT     H160473   2.997   3.847   1.199
20077WAT     H260474   2.991   3.977   1.100
20078WAT      O60475   1.046   6.475   6.010
20078WAT     H160476   0.995   6.561   6.015
20078WAT     H260477   1.091   6.468   5.922
20079WAT      O60478   4.716   2.281   8.628
20079WAT     H160479   4.747   2.276   8.533
20079WAT     H260480   4.790   2.317   8.686
20080WAT      O60481   4.545   1.097   0.095
20080WAT     H160482   4.626   1.130   0.047
20080WAT     H260483   4.555   1.115   0.193
20081WAT      O60484   5.813   8.776   8.485
20081WAT     H160485   5.817   8.679   8.459
20081WAT     H260486   5.825   8.785   8.584
20082WAT      O60487   8.064   0.965   6.533
20082WAT     H160488   8.014   0.879   6.524
20082WAT     H260489   7.999   1.039   6.550
20083WAT      O60490   3.186   0.249   1.013
20083WAT     H160491   3.111   0.183   1.017
20083WAT     H260492   3.268   0.204   0.979
20084WAT      O60493   3.824   6.632   6.847
20084WAT     H160494   3.851   6.583   6.763
20084WAT     H260495   3.741   6.685   6.829
20085WAT      O60496   9.527   7.187   2.133
20085WAT     H160497   9.580   7.119   2.184
20085WAT     H260498   9.589   7.256   2.096
20086WAT      O60499   4.901   8.806   8.526
20086WAT     H160500   4.971   8.843   8.465
20086WAT     H260501   4.827   8.872   8.536
20087WAT      O60502   9.099   4.423   6.837
20087WAT     H160503   9.158   4.376   6.772
20087WAT     H260504   9.121   4.521   6.836
20088WAT      O60505   2.330   4.911   9.377
20088WAT     H160506   2.288   4.995   9.340
20088WAT     H260507   2.287   4.889   9.464
20089WAT      O60508   9.186   7.562   7.635
20089WAT     H160509   9.131   7.616   7.571
20089WAT     H260510   9.157   7.583   7.729
20090WAT      O60511   0.729   7.929   7.362
20090WAT     H160512   0.761   7.921   7.268
20090WAT     H260513   0.799   7.893   7.424
20091WAT      O60514   4.757   9.640   2.377
20091WAT     H160515   4.692   9.589   2.433
20091WAT     H260516   4.745   9.615   2.281
20092WAT      O60517   5.362   9.153   7.737
20092WAT     H160518   5.346   9.218   7.663
20092WAT     H260519   5.418   9.077   7.704
20093WAT      O60520   3.778   8.077   6.447
20093WAT     H160521   3.718   8.047   6.521
20093WAT     H260522   3.733   8.151   6.396
20094WAT      O60523   7.104   9.242   6.348
20094WAT     H160524   7.127   9.281   6.437
20094WAT     H260525   7.055   9.156   6.361
20095WAT      O60526   4.810   4.218   2.150
20095WAT     H160527   4.773   4.244   2.238
20095WAT     H260528   4.781   4.283   2.080
20096WAT      O60529   4.983   2.800   8.742
20096WAT     H160530   4.984   2.865   8.818
20096WAT     H260531   5.077   2.782   8.712
20097WAT      O60532   2.840   4.792   8.037
20097WAT     H160533   2.795   4.864   8.090
20097WAT     H260534   2.797   4.704   8.055
20098WAT      O60535   6.624   2.909   7.869
20098WAT     H160536   6.586   2.861   7.949
20098WAT     H260537   6.554   2.913   7.797
20099WAT      O60538   4.345   7.751   2.030
20099WAT     H160539   4.283   7.772   1.954
20099WAT     H260540   4.436   7.732   1.994
20100WAT      O60541   9.645   6.305   3.886
20100WAT     H160542   9.641   6.273   3.981
20100WAT     H260543   9.579   6.253   3.831
20101WAT      O60544   7.327   0.187   7.449
20101WAT     H160545   7.368   0.136   7.525
20101WAT     H260546   7.323   0.128   7.368
20102WAT      O60547   2.401   2.531   4.970
20102WAT     H160548   2.485   2.537   5.025
20102WAT     H260549   2.413   2.585   4.887
20103WAT      O60550   1.838   9.621   7.079
20103WAT     H160551   1.746   9.612   7.041
20103WAT     H260552   1.840   9.693   7.147
20104WAT      O60553   1.020   2.142   4.144
20104WAT     H160554   1.079   2.062   4.151
20104WAT     H260555   0.963   2.133   4.062
20105WAT      O60556   0.172   8.319   8.169
20105WAT     H160557   0.087   8.299   8.217
20105WAT     H260558   0.243   8.344   8.235
20106WAT      O60559   9.584   7.660   4.151
20106WAT     H160560   9.607   7.757   4.144
20106WAT     H260561   9.655   7.613   4.204
20107WAT      O60562   0.841   5.058   5.869
20107WAT     H160563   0.828   5.016   5.959
20107WAT     H260564   0.908   5.132   5.876
20108WAT      O60565   6.859   0.979   6.199
20108WAT     H160566   6.845   1.056   6.136
20108WAT     H260567   6.824   0.895   6.157
20109WAT      O60568   5.966   7.860   0.889
20109WAT     H160569   5.895   7.925   0.861
20109WAT     H260570   5.923   7.783   0.936
20110WAT      O60571   6.294   3.365   7.145
20110WAT     H160572   6.354   3.373   7.065
20110WAT     H260573   6.230   3.441   7.146
20111WAT      O60574   8.933   7.603   3.486
20111WAT     H160575   8.943   7.627   3.582
20111WAT     H260576   8.955   7.682   3.429
20112WAT      O60577   8.940   3.458   3.938
20112WAT     H160578   8.862   3.516   3.913
20112WAT     H260579   8.995   3.440   3.856
20113WAT      O60580   7.581   2.017   0.130
20113WAT     H160581   7.532   2.090   0.082
20113WAT     H260582   7.618   2.053   0.216
20114WAT      O60583   7.123   8.179   6.587
20114WAT     H160584   7.135   8.121   6.506
20114WAT     H260585   7.171   8.137   6.665
20115WAT      O60586   4.043   1.593   2.888
20115WAT     H160587   4.016   1.657   2.960
20115WAT     H260588   4.107   1.639   2.826
20116WAT      O60589   9.265   9.298   9.883
20116WAT     H160590   9.358   9.315   9.852
20116WAT     H260591   9.256   9.203   9.912
20117WAT      O60592   3.979   1.707   8.299
20117WAT     H160593   4.009   1.616   8.328
20117WAT     H260594   3.881   1.717   8.318
20118WAT      O60595   0.571   8.441   4.490
20118WAT     H160596   0.475   8.448   4.463
20118WAT     H260597   0.599   8.345   4.490
20119WAT      O60598   3.520   1.272   4.860
20119WAT     H160599   3.475   1.301   4.776
20119WAT     H260600   3.582   1.197   4.841
20120WAT      O60601   8.692   3.240   2.203
20120WAT     H160602   8.614   3.255   2.142
20120WAT     H260603   8.734   3.151   2.182
20121WAT      O60604   3.506   1.456   2.502
20121WAT     H160605   3.410   1.473   2.523
20121WAT     H260606   3.534   1.510   2.423
20122WAT      O60607   1.351   3.238   8.291
20122WAT     H160608   1.403   3.306   8.239
20122WAT     H260609   1.256   3.268   8.298
20123WAT      O60610   7.541   4.967   0.034
20123WAT     H160611   7.591   5.053   0.045
20123WAT     H260612   7.544   4.939  -0.062
20124WAT      O60613   7.086   4.247   8.479
20124WAT     H160614   7.079   4.340   8.443
20124WAT     H260615   7.013   4.230   8.544
20125WAT      O60616   8.895   0.085   0.704
20125WAT     H160617   8.935   0.028   0.776
20125WAT     H260618   8.818   0.137   0.742
20126WAT      O60619   2.673   9.187   8.980
20126WAT     H160620   2.621   9.257   8.932
20126WAT     H260621   2.732   9.139   8.915
20127WAT      O60622   6.608   5.368   0.805
20127WAT     H160623   6.540   5.345   0.735
20127WAT     H260624   6.561   5.400   0.887
20128WAT      O60625   2.108   9.228   2.135
20128WAT     H160626   2.043   9.275   2.195
20128WAT     H260627   2.116   9.278   2.049
20129WAT      O60628   0.174   1.760   1.369
20129WAT     H160629   0.160   1.796   1.461
20129WAT     H260630   0.268   1.779   1.339
20130WAT      O60631   2.926   2.751   9.694
20130WAT     H160632   2.944   2.844   9.725
20130WAT     H260633   2.919   2.750   9.594
20131WAT      O60634   3.947   1.089   5.763
20131WAT     H160635   3.960   1.114   5.859
20131WAT     H260636   3.871   1.024   5.755
20132WAT      O60637   4.800   8.439   2.087
20132WAT     H160638   4.801   8.383   2.170
20132WAT     H260639   4.726   8.506   2.091
20133WAT      O60640   0.285   0.689   0.499
20133WAT     H160641   0.228   0.761   0.540
20133WAT     H260642   0.382   0.713   0.511
20134WAT      O60643   1.224   2.053   8.299
20134WAT     H160644   1.280   1.976   8.329
20134WAT     H260645   1.280   2.135   8.294
20135WAT      O60646   6.566   7.180   5.174
20135WAT     H160647   6.624   7.178   5.093
20135WAT     H260648   6.498   7.107   5.168
20136WAT      O60649   3.694   4.726   8.068
20136WAT     H160650   3.740   4.757   8.152
20136WAT     H260651   3.759   4.729   7.992
20137WAT      O60652   2.230   1.128   8.635
20137WAT     H160653   2.166   1.056   8.610
20137WAT     H260654   2.298   1.093   8.699
20138WAT      O60655   0.522   3.536   8.003
20138WAT     H160656   0.471   3.481   8.070
20138WAT     H260657   0.588   3.594   8.051
20139WAT      O60658   3.708   7.622   9.143
20139WAT     H160659   3.695   7.605   9.241
20139WAT     H260660   3.727   7.536   9.097
20140WAT      O60661   0.185   9.015   5.351
20140WAT     H160662   0.213   9.109   5.333
20140WAT     H260663   0.180   8.965   5.265
20141WAT      O60664   3.586   5.929   8.940
20141WAT     H160665   3.497   5.972   8.951
20141WAT     H260666   3.617   5.892   9.028
20142WAT      O60667   2.188   0.705   7.718
20142WAT     H160668   2.248   0.784   7.731
20142WAT     H260669   2.235   0.622   7.748
20143WAT      O60670   0.472   4.778   1.096
20143WAT     H160671   0.441   4.857   1.148
20143WAT     H260672   0.424   4.774   1.008
20144WAT      O60673   3.644   1.148   9.153
20144WAT     H160674   3.596   1.114   9.234
20144WAT     H260675   3.734   1.183   9.180
20145WAT      O60676   7.279   3.692   7.560
20145WAT     H160677   7.283   3.598   7.593
20145WAT     H260678   7.369   3.719   7.524
20146WAT      O60679   6.455   6.858   6.464
20146WAT     H160680   6.466   6.913   6.547
20146WAT     H260681   6.523   6.785   6.462
20147WAT      O60682   4.652   2.035   4.975
20147WAT     H160683   4.716   2.112   4.976
20147WAT     H260684   4.560   2.069   4.996
20148WAT      O60685   9.682   8.583   6.504
20148WAT     H160686   9.644   8.667   6.543
20148WAT     H260687   9.611   8.537   6.450
20149WAT      O60688   5.852   4.760   5.303
20149WAT     H160689   5.763   4.715   5.315
20149WAT     H260690   5.903   4.714   5.231
20150WAT      O60691   6.330   9.173   6.181
20150WAT     H160692   6.355   9.199   6.274
20150WAT     H260693   6.231   9.175   6.171
20151WAT      O60694   6.709   0.010   0.623
20151WAT     H160695   6.749   0.026   0.532
20151WAT     H260696   6.610   0.008   0.616
20152WAT      O60697   5.855   6.226   3.379
20152WAT     H160698   5.870   6.152   3.443
20152WAT     H260699   5.936   6.238   3.321
20153WAT      O60700   7.485   0.519   6.400
20153WAT     H160701   7.574   0.519   6.445
20153WAT     H260702   7.461   0.426   6.372
20154WAT      O60703   4.436   8.905   7.548
20154WAT     H160704   4.343   8.940   7.544
20154WAT     H260705   4.446   8.829   7.483
20155WAT      O60706   1.085   6.072   1.086
20155WAT     H160707   0.987   6.055   1.083
20155WAT     H260708   1.102   6.171   1.088
20156WAT      O60709   4.063   7.701   7.648
20156WAT     H160710   4.057   7.611   7.604
20156WAT     H260711   4.136   7.754   7.605
20157WAT      O60712   6.204   4.734   2.646
20157WAT     H160713   6.127   4.744   2.709
20157WAT     H260714   6.248   4.646   2.660
20158WAT      O60715   7.910   8.982   5.476
20158WAT     H160716   7.831   8.994   5.416
20158WAT     H260717   7.886   9.007   5.569
20159WAT      O60718   7.955   5.913   2.384
20159WAT     H160719   7.954   5.889   2.481
20159WAT     H260720   7.931   5.832   2.330
20160WAT      O60721   9.347   2.398   0.814
20160WAT     H160722   9.250   2.420   0.803
20160WAT     H260723   9.394   2.412   0.726
20161WAT      O60724   6.813   4.688   2.209
20161WAT     H160725   6.852   4.760   2.151
20161WAT     H260726   6.768   4.620   2.151
20162WAT      O60727   2.706   3.782   3.851
20162WAT     H160728   2.610   3.760   3.871
20162WAT     H260729   2.765   3.724   3.906
20163WAT      O60730   5.984   6.744   9.119
20163WAT     H160731   5.985   6.683   9.040
20163WAT     H260732   5.894   6.787   9.128
20164WAT      O60733   2.764   8.154   3.271
20164WAT     H160734   2.742   8.060   3.247
20164WAT     H260735   2.700   8.188   3.340
20165WAT      O60736   0.348   0.192   9.622
20165WAT     H160737   0.342   0.153   9.714
20165WAT     H260738   0.323   0.123   9.554
20166WAT      O60739   9.047   1.813   1.815
20166WAT     H160740   9.140   1.842   1.839
20166WAT     H260741   9.052   1.740   1.747
20167WAT      O60742   7.765   5.816   3.107
20167WAT     H160743   7.828   5.750   3.068
20167WAT     H260744   7.816   5.896   3.140
20168WAT      O60745   3.062   7.509   6.037
20168WAT     H160746   3.130   7.581   6.025
20168WAT     H260747   3.056   7.483   6.133
20169WAT      O60748   4.851   9.389   5.033
20169WAT     H160749   4.761   9.370   4.993
20169WAT     H260750   4.851   9.480   5.074
20170WAT      O60751   6.025   5.242   6.340
20170WAT     H160752   5.984   5.175   6.278
20170WAT     H260753   6.111   5.275   6.301
20171WAT      O60754   6.785   2.123   2.229
20171WAT     H160755   6.733   2.145   2.147
20171WAT     H260756   6.737   2.158   2.310
20172WAT      O60757   6.198   6.338   4.065
20172WAT     H160758   6.205   6.438   4.065
20172WAT     H260759   6.102   6.312   4.050
20173WAT      O60760   1.127   8.369   8.441
20173WAT     H160761   1.127   8.455   8.390
20173WAT     H260762   1.046   8.366   8.500
20174WAT      O60763   6.468   2.622   1.199
20174WAT     H160764   6.547   2.680   1.177
20174WAT     H260765   6.467   2.543   1.138
20175WAT      O60766   2.063   8.828   8.047
20175WAT     H160767   1.972   8.856   8.017
20175WAT     H260768   2.061   8.731   8.071
20176WAT      O60769   2.398   1.497   0.193
20176WAT     H160770   2.446   1.565   0.136
20176WAT     H260771   2.465   1.448   0.249
20177WAT      O60772   8.233   8.486   2.788
20177WAT     H160773   8.239   8.391   2.757
20177WAT     H260774   8.174   8.538   2.727
20178WAT      O60775   7.257   6.481   6.336
20178WAT     H160776   7.314   6.473   6.418
20178WAT     H260777   7.162   6.497   6.363
20179WAT      O60778   1.304   3.820   9.853
20179WAT     H160779   1.248   3.891   9.896
20179WAT     H260780   1.379   3.864   9.803
20180WAT      O60781   8.614   6.746   8.447
20180WAT     H160782   8.516   6.767   8.447
20180WAT     H260783   8.649   6.748   8.540
20181WAT      O60784   0.156   9.553   9.589
20181WAT     H160785   0.156   9.456   9.565
20181WAT     H260786   0.109   9.565   9.677
20182WAT      O60787   1.572   3.582   1.058
20182WAT     H160788   1.572   3.513   1.132
20182WAT     H260789   1.619   3.664   1.090
20183WAT      O60790   9.610   8.596   2.409
20183WAT     H160791   9.552   8.523   2.372
20183WAT     H260792   9.553   8.663   2.456
20184WAT      O60793   4.454   9.813   7.433
20184WAT     H160794   4.545   9.802   7.391
20184WAT     H260795   4.389   9.753   7.387
20185WAT      O60796   3.326   3.163   2.337
20185WAT     H160797   3.317   3.064   2.347
20185WAT     H260798   3.402   3.184   2.276
20186WAT      O60799   3.480   5.893   3.836
20186WAT     H160800   3.435   5.813   3.795
20186WAT     H260801   3.530   5.943   3.766
20187WAT      O60802   3.121   7.029   6.614
20187WAT     H160803   3.032   7.076   6.611
20187WAT     H260804   3.120   6.952   6.550
20188WAT      O60805   3.946   8.754   0.184
20188WAT     H160806   3.918   8.850   0.180
20188WAT     H260807   3.903   8.710   0.263
20189WAT      O60808   3.168   9.104   1.991
20189WAT     H160809   3.154   9.016   2.037
20189WAT     H260810   3.167   9.178   2.058
20190WAT      O60811   1.872   1.113   1.850
20190WAT     H160812   1.930   1.102   1.931
20190WAT     H260813   1.923   1.087   1.768
20191WAT      O60814   6.644   8.875   4.063
20191WAT     H160815   6.623   8.813   3.987
20191WAT     H260816   6.653   8.821   4.148
20192WAT      O60817   8.467   0.818   3.001
20192WAT     H160818   8.535   0.786   3.067
20192WAT     H260819   8.378   0.781   3.025
20193WAT      O60820   7.142   4.912   3.045
20193WAT     H160821   7.182   4.989   3.095
20193WAT     H260822   7.180   4.909   2.953
20194WAT      O60823   0.172   2.574   8.238
20194WAT     H160824   0.203   2.479   8.245
20194WAT     H260825   0.231   2.633   8.294
20195WAT      O60826   3.307   4.731   1.509
20195WAT     H160827   3.395   4.733   1.462
20195WAT     H260828   3.233   4.744   1.443
20196WAT      O60829   5.357   9.725   6.067
20196WAT     H160830   5.267   9.694   6.039
20196WAT     H260831   5.357   9.744   6.165
20197WAT      O60832   3.033   2.805   5.809
20197WAT     H160833   3.069   2.779   5.720
20197WAT     H260834   2.963   2.875   5.798
20198WAT      O60835   3.630   5.205   9.064
20198WAT     H160836   3.646   5.116   9.020
20198WAT     H260837   3.654   5.278   9.000
20199WAT      O60838   8.897   0.067   4.809
20199WAT     H160839   8.919   0.154   4.765
20199WAT     H260840   8.814   0.029   4.769
20200WAT      O60841   4.048   5.091   4.814
20200WAT     H160842   4.029   5.040   4.730
20200WAT     H260843   3.994   5.053   4.889
20201WAT      O60844   6.333   1.599   9.584
20201WAT     H160845   6.279   1.532   9.635
20201WAT     H260846   6.392   1.552   9.518
20202WAT      O60847   8.878   3.939   8.409
20202WAT     H160848   8.793   3.990   8.399
20202WAT     H260849   8.881   3.896   8.499
20203WAT      O60850   7.146   4.718   9.597
20203WAT     H160851   7.118   4.776   9.674
20203WAT     H260852   7.230   4.670   9.621
20204WAT      O60853   0.663   3.126   1.182
20204WAT     H160854   0.756   3.158   1.200
20204WAT     H260855   0.640   3.143   1.086
20205WAT      O60856   0.824   7.880   4.152
20205WAT     H160857   0.866   7.857   4.064
20205WAT     H260858   0.760   7.956   4.139
20206WAT      O60859   8.951   3.063   0.375
20206WAT     H160860   8.860   3.104   0.379
20206WAT     H260861   8.948   2.981   0.318
20207WAT      O60862   1.037   2.085   4.970
20207WAT     H160863   1.054   2.019   5.043
20207WAT     H260864   1.092   2.167   4.986
20208WAT      O60865   2.157   7.828   1.151
20208WAT     H160866   2.248   7.866   1.164
20208WAT     H260867   2.156   7.769   1.070
20209WAT      O60868   2.075   2.469   5.305
20209WAT     H160869   2.056   2.491   5.209
20209WAT     H260870   2.013   2.519   5.364
20210WAT      O60871   9.120   3.668   7.579
20210WAT     H160872   9.144   3.678   7.676
20210WAT     H260873   9.043   3.729   7.558
20211WAT      O60874   3.762   0.742   1.153
20211WAT     H160875   3.793   0.779   1.066
20211WAT     H260876   3.823   0.668   1.181
20212WAT      O60877   3.907   5.720   5.174
20212WAT     H160878   4.006   5.728   5.168
20212WAT     H260879   3.881   5.687   5.264
20213WAT      O60880   7.443   6.628   4.828
20213WAT     H160881   7.391   6.663   4.751
20213WAT     H260882   7.442   6.694   4.903
20214WAT      O60883   6.415   0.397   1.967
20214WAT     H160884   6.323   0.391   1.927
20214WAT     H260885   6.483   0.379   1.896
20215WAT      O60886   1.627   8.315   9.157
20215WAT     H160887   1.627   8.262   9.072
20215WAT     H260888   1.595   8.408   9.138
20216WAT      O60889   8.388   3.360   8.891
20216WAT     H160890   8.350   3.268   8.888
20216WAT     H260891   8.421   3.385   8.799
20217WAT      O60892   5.276   1.122   0.184
20217WAT     H160893   5.313   1.161   0.099
20217WAT     H260894   5.218   1.189   0.229
20218WAT      O60895   5.620   3.704   7.647
20218WAT     H160896   5.593   3.706   7.743
20218WAT     H260897   5.598   3.615   7.608
20219WAT      O60898   6.121   5.616   7.592
20219WAT     H160899   6.099   5.537   7.535
20219WAT     H260900   6.044   5.681   7.590
20220WAT      O60901   2.857   7.118   3.346
20220WAT     H160902   2.775   7.062   3.336
20220WAT     H260903   2.868   7.176   3.265
20221WAT      O60904   0.482   5.977   3.623
20221WAT     H160905   0.438   5.957   3.711
20221WAT     H260906   0.571   5.931   3.619
20222WAT      O60907   8.301   0.853   6.482
20222WAT     H160908   8.211   0.893   6.498
20222WAT     H260909   8.292   0.773   6.422
20223WAT      O60910   2.916   4.438   7.662
20223WAT     H160911   2.901   4.458   7.565
20223WAT     H260912   2.925   4.523   7.713
20224WAT      O60913   7.161   2.709   9.487
20224WAT     H160914   7.199   2.756   9.408
20224WAT     H260915   7.229   2.647   9.525
20225WAT      O60916   0.276   7.825   7.222
20225WAT     H160917   0.300   7.907   7.170
20225WAT     H260918   0.289   7.841   7.319
20226WAT      O60919   5.297   4.817   4.864
20226WAT     H160920   5.257   4.907   4.846
20226WAT     H260921   5.395   4.820   4.848
20227WAT      O60922   3.373   1.573   8.208
20227WAT     H160923   3.377   1.516   8.126
20227WAT     H260924   3.446   1.641   8.206
20228WAT      O60925   7.378   0.296   8.221
20228WAT     H160926   7.465   0.331   8.188
20228WAT     H260927   7.316   0.372   8.239
20229WAT      O60928   0.202   5.075   8.725
20229WAT     H160929   0.207   5.076   8.625
20229WAT     H260930   0.195   5.169   8.758
20230WAT      O60931   8.081   4.051   1.573
20230WAT     H160932   8.036   3.978   1.625
20230WAT     H260933   8.121   4.117   1.637
20231WAT      O60934   9.454   7.922   9.896
20231WAT     H160935   9.358   7.949   9.910
20231WAT     H260936   9.464   7.884   9.804
20232WAT      O60937   1.317   8.414   3.967
20232WAT     H160938   1.357   8.500   3.936
20232WAT     H260939   1.330   8.405   4.066
20233WAT      O60940   9.666   7.829   9.309
20233WAT     H160941   9.714   7.818   9.396
20233WAT     H260942   9.570   7.805   9.320
20234WAT      O60943   9.680   1.644   4.869
20234WAT     H160944   9.737   1.697   4.806
20234WAT     H260945   9.739   1.594   4.932
20235WAT      O60946   6.741   9.795   4.295
20235WAT     H160947   6.652   9.792   4.341
20235WAT     H260948   6.804   9.851   4.349
20236WAT      O60949   6.014   0.581   0.465
20236WAT     H160950   5.956   0.613   0.390
20236WAT     H260951   5.961   0.581   0.550
20237WAT      O60952   6.629   0.538   5.696
20237WAT     H160953   6.584   0.628   5.695
20237WAT     H260954   6.681   0.528   5.781
20238WAT      O60955   8.799   1.292   9.006
20238WAT     H160956   8.878   1.237   8.981
20238WAT     H260957   8.829   1.373   9.057
20239WAT      O60958   0.866   3.062   4.213
20239WAT     H160959   0.799   3.133   4.235
20239WAT     H260960   0.819   2.977   4.189
20240WAT      O60961   0.910   4.910   6.841
20240WAT     H160962   0.889   4.824   6.795
20240WAT     H260963   1.003   4.906   6.879
20241WAT      O60964   6.687   0.799   8.384
20241WAT     H160965   6.603   0.755   8.354
20241WAT     H260966   6.684   0.897   8.364
20242WAT      O60967   3.550   3.899   2.525
20242WAT     H160968   3.596   3.924   2.439
20242WAT     H260969   3.574   3.806   2.550
20243WAT      O60970   7.710   8.709   4.284
20243WAT     H160971   7.757   8.695   4.197
20243WAT     H260972   7.749   8.789   4.331
20244WAT      O60973   4.050   4.164   8.393
20244WAT     H160974   4.084   4.176   8.486
20244WAT     H260975   4.078   4.241   8.337
20245WAT      O60976   4.087   0.650   1.915
20245WAT     H160977   4.037   0.573   1.956
20245WAT     H260978   4.026   0.728   1.908
20246WAT      O60979   4.841   6.484   4.760
20246WAT     H160980   4.845   6.542   4.841
20246WAT     H260981   4.807   6.393   4.786
20247WAT      O60982   3.165   1.135   2.340
20247WAT     H160983   3.245   1.155   2.397
20247WAT     H260984   3.090   1.196   2.366
20248WAT      O60985   4.123   4.339   9.457
20248WAT     H160986   4.076   4.252   9.465
20248WAT     H260987   4.185   4.351   9.535
20249WAT      O60988   3.768   1.720   5.383
20249WAT     H160989   3.792   1.791   5.317
20249WAT     H260990   3.818   1.736   5.468
20250WAT      O60991   1.415   1.101   9.577
20250WAT     H160992   1.394   1.195   9.553
20250WAT     H260993   1.441   1.050   9.495
20251WAT      O60994   2.362   1.674   5.278
20251WAT     H160995   2.376   1.636   5.369
20251WAT     H260996   2.280   1.634   5.237
20252WAT      O60997   5.813   0.405   4.687
20252WAT     H160998   5.876   0.469   4.644
20252WAT     H260999   5.726   0.405   4.636
20253WAT      O61000   8.927   9.258   0.942
20253WAT     H161001   8.885   9.344   0.913
20253WAT     H261002   8.980   9.220   0.866
20254WAT      O61003   8.893   7.698   0.353
20254WAT     H161004   8.854   7.639   0.282
20254WAT     H261005   8.823   7.717   0.422
20255WAT      O61006   6.348   7.895   8.239
20255WAT     H161007   6.397   7.889   8.326
20255WAT     H261008   6.326   7.803   8.207
20256WAT      O61009   6.290   0.294   8.174
20256WAT     H161010   6.359   0.247   8.119
20256WAT     H261011   6.334   0.366   8.228
20257WAT      O61012   1.683   2.386   7.672
20257WAT     H161013   1.755   2.397   7.740
20257WAT     H261014   1.720   2.338   7.592
20258WAT      O61015   3.435   3.194   5.178
20258WAT     H161016   3.469   3.101   5.190
20258WAT     H261017   3.365   3.195   5.107
20259WAT      O61018   6.564   1.210   3.146
20259WAT     H161019   6.653   1.222   3.190
20259WAT     H261020   6.503   1.160   3.208
20260WAT      O61021   7.826   8.254   5.396
20260WAT     H161022   7.839   8.174   5.455
20260WAT     H261023   7.812   8.224   5.302
20261WAT      O61024   8.994   3.535   6.307
20261WAT     H161025   8.974   3.619   6.357
20261WAT     H261026   8.939   3.460   6.344
20262WAT      O61027   3.220   2.932   4.110
20262WAT     H161028   3.128   2.957   4.142
20262WAT     H261029   3.278   2.912   4.189
20263WAT      O61030   4.864   6.733   2.869
20263WAT     H161031   4.883   6.813   2.812
20263WAT     H261032   4.774   6.697   2.846
20264WAT      O61033   7.083   7.018   9.727
20264WAT     H161034   7.135   7.024   9.812
20264WAT     H261035   7.056   7.110   9.697
20265WAT      O61036   5.424   2.244   4.542
20265WAT     H161037   5.447   2.341   4.540
20265WAT     H261038   5.384   2.222   4.631
20266WAT      O61039   9.864   6.358   7.251
20266WAT     H161040   9.802   6.394   7.321
20266WAT     H261041   9.823   6.369   7.161
20267WAT      O61042   9.883   4.587   1.643
20267WAT     H161043   9.979   4.612   1.653
20267WAT     H261044   9.839   4.587   1.732
20268WAT      O61045   8.229   8.527   0.166
20268WAT     H161046   8.247   8.515   0.264
20268WAT     H261047   8.174   8.450   0.133
20269WAT      O61048   7.891   1.870   9.706
20269WAT     H161049   7.872   1.963   9.674
20269WAT     H261050   7.887   1.807   9.629
20270WAT      O61051   4.368   2.476   7.079
20270WAT     H161052   4.272   2.491   7.057
20270WAT     H261053   4.376   2.409   7.152
20271WAT      O61054   5.682   8.345   2.582
20271WAT     H161055   5.674   8.385   2.673
20271WAT     H261056   5.640   8.406   2.515
20272WAT      O61057   9.253   8.338   2.568
20272WAT     H161058   9.304   8.400   2.628
20272WAT     H261059   9.156   8.339   2.593
20273WAT      O61060   1.602   2.208   7.253
20273WAT     H161061   1.535   2.174   7.319
20273WAT     H261062   1.689   2.224   7.298
20274WAT      O61063   5.645   2.490   9.607
20274WAT     H161064   5.617   2.437   9.528
20274WAT     H261065   5.607   2.583   9.600
20275WAT      O61066   3.731   6.800   5.978
20275WAT     H161067   3.831   6.793   5.979
20275WAT     H261068   3.701   6.822   5.885
20276WAT      O61069   7.502   2.119   7.933
20276WAT     H161070   7.486   2.123   8.031
20276WAT     H261071   7.439   2.053   7.891
20277WAT      O61072   8.208   7.218   0.152
20277WAT     H161073   8.172   7.283   0.218
20277WAT     H261074   8.156   7.224   0.067
20278WAT      O61075   7.747   7.851   7.744
20278WAT     H161076   7.825   7.823   7.688
20278WAT     H261077   7.698   7.925   7.697
20279WAT      O61078   7.538   8.451   8.990
20279WAT     H161079   7.470   8.462   9.062
20279WAT     H261080   7.558   8.354   8.978
20280WAT      O61081   7.281   8.155   5.569
20280WAT     H161082   7.302   8.242   5.614
20280WAT     H261083   7.236   8.173   5.482
20281WAT      O61084   0.609   3.979   0.808
20281WAT     H161085   0.577   3.977   0.903
20281WAT     H261086   0.701   4.020   0.805
20282WAT      O61087   0.601   4.282   4.111
20282WAT     H161088   0.656   4.292   4.194
20282WAT     H261089   0.626   4.354   4.046
20283WAT      O61090   7.514   7.646   0.892
20283WAT     H161091   7.446   7.669   0.961
20283WAT     H261092   7.579   7.721   0.883
20284WAT      O61093   2.956   7.704   2.239
20284WAT     H161094   2.883   7.636   2.250
20284WAT     H261095   3.009   7.684   2.157
20285WAT      O61096   7.941   0.325   6.446
20285WAT     H161097   7.864   0.357   6.502
20285WAT     H261098   7.942   0.374   6.359
20286WAT      O61099   4.106   3.244   8.657
20286WAT     H161100   4.187   3.301   8.671
20286WAT     H261101   4.029   3.302   8.632
20287WAT      O61102   4.362   8.149   5.756
20287WAT     H161103   4.396   8.243   5.753
20287WAT     H261104   4.325   8.124   5.666
20288WAT      O61105   4.110   8.726   3.495
20288WAT     H161106   4.206   8.733   3.470
20288WAT     H261107   4.098   8.753   3.590
20289WAT      O61108   8.898   9.683   3.906
20289WAT     H161109   8.994   9.684   3.879
20289WAT     H261110   8.868   9.588   3.919
20290WAT      O61111   0.498   1.852   7.452
20290WAT     H161112   0.572   1.892   7.399
20290WAT     H261113   0.504   1.883   7.547
20291WAT      O61114   7.780   3.011   5.559
20291WAT     H161115   7.702   3.027   5.498
20291WAT     H261116   7.747   2.988   5.650
20292WAT      O61117   3.119   7.676   5.172
20292WAT     H161118   3.139   7.722   5.258
20292WAT     H261119   3.157   7.583   5.174
20293WAT      O61120   5.382   8.560   3.743
20293WAT     H161121   5.317   8.487   3.764
20293WAT     H261122   5.467   8.519   3.710
20294WAT      O61123   0.125   3.523   0.442
20294WAT     H161124   0.192   3.593   0.469
20294WAT     H261125   0.171   3.436   0.429
20295WAT      O61126   5.945   5.900   7.288
20295WAT     H161127   5.991   5.838   7.225
20295WAT     H261128   5.879   5.956   7.238
20296WAT      O61129   6.619   3.730   9.507
20296WAT     H161130   6.601   3.726   9.606
20296WAT     H261131   6.535   3.709   9.458
20297WAT      O61132   7.035   9.709   0.250
20297WAT     H161133   7.087   9.624   0.263
20297WAT     H261134   7.068   9.778   0.315
20298WAT      O61135   6.103   0.846   0.783
20298WAT     H161136   6.177   0.908   0.808
20298WAT     H261137   6.139   0.771   0.728
20299WAT      O61138   2.109   4.247   4.474
20299WAT     H161139   2.091   4.200   4.388
20299WAT     H261140   2.111   4.180   4.549
20300WAT      O61141   8.395   9.045   6.240
20300WAT     H161142   8.374   8.969   6.301
20300WAT     H261143   8.413   9.011   6.148
20301WAT      O61144   8.726   9.360   1.756
20301WAT     H161145   8.755   9.455   1.769
20301WAT     H261146   8.806   9.301   1.753
20302WAT      O61147   1.326   0.250   2.077
20302WAT     H161148   1.304   0.213   1.987
20302WAT     H261149   1.371   0.339   2.066
20303WAT      O61150   2.451   8.370   5.604
20303WAT     H161151   2.360   8.398   5.573
20303WAT     H261152   2.472   8.280   5.567
20304WAT      O61153   6.741   4.784   5.967
20304WAT     H161154   6.681   4.852   5.923
20304WAT     H261155   6.827   4.827   5.993
20305WAT      O61156   1.966   2.377   2.105
20305WAT     H161157   1.908   2.368   2.024
20305WAT     H261158   1.981   2.287   2.145
20306WAT      O61159   6.229   3.693   1.098
20306WAT     H161160   6.281   3.665   1.017
20306WAT     H261161   6.216   3.792   1.097
20307WAT      O61162   6.874   5.483   2.786
20307WAT     H161163   6.870   5.407   2.721
20307WAT     H261164   6.793   5.482   2.845
20308WAT      O61165   3.746   8.117   3.548
20308WAT     H161166   3.730   8.084   3.641
20308WAT     H261167   3.680   8.189   3.527
20309WAT      O61168   5.722   5.932   2.288
20309WAT     H161169   5.714   6.018   2.338
20309WAT     H261170   5.817   5.899   2.293
20310WAT      O61171   4.269   3.520   5.644
20310WAT     H161172   4.281   3.616   5.670
20310WAT     H261173   4.178   3.507   5.606
20311WAT      O61174   9.803   4.366   0.637
20311WAT     H161175   9.903   4.369   0.639
20311WAT     H261176   9.773   4.282   0.593
20312WAT      O61177   9.823   2.385   2.276
20312WAT     H161178   9.813   2.447   2.199
20312WAT     H261179   9.919   2.381   2.304
20313WAT      O61180   3.904   9.632   5.885
20313WAT     H161181   3.832   9.651   5.951
20313WAT     H261182   3.954   9.716   5.864
20314WAT      O61183   4.462   7.827   0.869
20314WAT     H161184   4.432   7.783   0.954
20314WAT     H261185   4.431   7.773   0.791
20315WAT      O61186   0.573   1.033   0.400
20315WAT     H161187   0.672   1.024   0.412
20315WAT     H261188   0.549   1.130   0.396
20316WAT      O61189   0.769   5.565   7.135
20316WAT     H161190   0.695   5.516   7.179
20316WAT     H261191   0.854   5.512   7.142
20317WAT      O61192   7.471   5.044   1.409
20317WAT     H161193   7.427   5.132   1.427
20317WAT     H261194   7.561   5.058   1.368
20318WAT      O61195   3.429   6.747   4.220
20318WAT     H161196   3.449   6.771   4.315
20318WAT     H261197   3.338   6.705   4.216
20319WAT      O61198   1.967   8.115   8.030
20319WAT     H161199   1.944   8.118   7.933
20319WAT     H261200   1.993   8.207   8.061
20320WAT      O61201   9.479   3.249   3.612
20320WAT     H161202   9.519   3.158   3.603
20320WAT     H261203   9.441   3.261   3.704
20321WAT      O61204   9.883   5.799   4.478
20321WAT     H161205   9.847   5.887   4.508
20321WAT     H261206   9.807   5.735   4.462
20322WAT      O61207   5.644   8.194   5.625
20322WAT     H161208   5.599   8.145   5.699
20322WAT     H261209   5.628   8.146   5.538
20323WAT      O61210   1.664   6.096   1.966
20323WAT     H161211   1.570   6.129   1.961
20323WAT     H261212   1.721   6.164   2.013
20324WAT      O61213   1.850   9.579   9.653
20324WAT     H161214   1.780   9.637   9.612
20324WAT     H261215   1.879   9.510   9.587
20325WAT      O61216   8.921   3.123   5.192
20325WAT     H161217   8.974   3.054   5.143
20325WAT     H261218   8.901   3.091   5.285
20326WAT      O61219   6.035   9.145   2.094
20326WAT     H161220   5.983   9.073   2.047
20326WAT     H261221   5.999   9.234   2.068
20327WAT      O61222   8.694   8.641   4.646
20327WAT     H161223   8.785   8.609   4.673
20327WAT     H261224   8.701   8.732   4.606
20328WAT      O61225   2.424   7.268   2.043
20328WAT     H161226   2.431   7.230   1.950
20328WAT     H261227   2.452   7.364   2.042
20329WAT      O61228   1.871   7.973   0.867
20329WAT     H161229   1.906   7.881   0.882
20329WAT     H261230   1.785   7.968   0.817
20330WAT      O61231   8.791   3.954   4.010
20330WAT     H161232   8.799   3.896   4.091
20330WAT     H261233   8.694   3.970   3.991
20331WAT      O61234   2.097   1.438   4.716
20331WAT     H161235   2.083   1.374   4.793
20331WAT     H261236   2.121   1.528   4.752
20332WAT      O61237   7.259   3.605   4.521
20332WAT     H161238   7.327   3.643   4.459
20332WAT     H261239   7.193   3.675   4.546
20333WAT      O61240   1.615   1.110   3.824
20333WAT     H161241   1.564   1.183   3.870
20333WAT     H261242   1.703   1.145   3.794
20334WAT      O61243   2.477   7.543   3.276
20334WAT     H161244   2.426   7.462   3.246
20334WAT     H261245   2.534   7.577   3.201
20335WAT      O61246   4.224   2.745   2.797
20335WAT     H161247   4.138   2.796   2.787
20335WAT     H261248   4.204   2.651   2.826
20336WAT      O61249   7.178   8.709   6.666
20336WAT     H161250   7.276   8.729   6.674
20336WAT     H261251   7.163   8.612   6.683
20337WAT      O61252   3.827   2.228   0.794
20337WAT     H161253   3.910   2.182   0.764
20337WAT     H261254   3.816   2.314   0.745
20338WAT      O61255   1.204   1.946   9.540
20338WAT     H161256   1.189   1.860   9.493
20338WAT     H261257   1.133   2.011   9.515
20339WAT      O61258   9.588   4.878   6.824
20339WAT     H161259   9.618   4.845   6.913
20339WAT     H261260   9.628   4.968   6.806
20340WAT      O61261   1.513   7.298   1.879
20340WAT     H161262   1.481   7.260   1.793
20340WAT     H261263   1.437   7.343   1.926
20341WAT      O61264   1.328   7.639   5.572
20341WAT     H161265   1.420   7.673   5.553
20341WAT     H261266   1.334   7.555   5.626
20342WAT      O61267   3.857   0.918   2.130
20342WAT     H161268   3.864   0.891   2.034
20342WAT     H261269   3.843   0.837   2.187
20343WAT      O61270   3.726   5.178   8.072
20343WAT     H161271   3.816   5.135   8.059
20343WAT     H261272   3.658   5.126   8.020
20344WAT      O61273   2.934   1.110   5.903
20344WAT     H161274   2.901   1.022   5.868
20344WAT     H261275   2.879   1.184   5.863
20345WAT      O61276   6.473   3.769   2.495
20345WAT     H161277   6.520   3.686   2.465
20345WAT     H261278   6.379   3.768   2.460
20346WAT      O61279   1.221   1.937   4.517
20346WAT     H161280   1.180   1.850   4.543
20346WAT     H261281   1.265   1.978   4.597
20347WAT      O61282   3.757   1.917   5.742
20347WAT     H161283   3.792   2.011   5.748
20347WAT     H261284   3.724   1.888   5.832
20348WAT      O61285   0.267   3.222   5.530
20348WAT     H161286   0.177   3.179   5.521
20348WAT     H261287   0.339   3.153   5.520
20349WAT      O61288   0.073   6.355   9.652
20349WAT     H161289   0.031   6.367   9.742
20349WAT     H261290   0.004   6.371   9.581
20350WAT      O61291   5.620   7.893   5.960
20350WAT     H161292   5.589   7.950   5.884
20350WAT     H261293   5.541   7.850   6.004
20351WAT      O61294   8.522   6.195   5.244
20351WAT     H161295   8.545   6.181   5.148
20351WAT     H261296   8.605   6.192   5.299
20352WAT      O61297   2.840   0.834   3.904
20352WAT     H161298   2.822   0.932   3.916
20352WAT     H261299   2.860   0.793   3.993
20353WAT      O61300   7.672   7.784   1.658
20353WAT     H161301   7.581   7.823   1.642
20353WAT     H261302   7.721   7.778   1.571
20354WAT      O61303   9.479   0.273   3.960
20354WAT     H161304   9.473   0.339   3.885
20354WAT     H261305   9.539   0.198   3.934
20355WAT      O61306   0.440   0.272   3.898
20355WAT     H161307   0.531   0.255   3.861
20355WAT     H261308   0.381   0.194   3.879
20356WAT      O61309   7.648   9.272   3.741
20356WAT     H161310   7.628   9.347   3.677
20356WAT     H261311   7.746   9.270   3.760
20357WAT      O61312   3.498   7.504   3.456
20357WAT     H161313   3.497   7.494   3.357
20357WAT     H261314   3.406   7.528   3.488
20358WAT      O61315   6.664   8.722   5.427
20358WAT     H161316   6.582   8.666   5.432
20358WAT     H261317   6.664   8.788   5.502
20359WAT      O61318   4.820   2.661   9.856
20359WAT     H161319   4.803   2.578   9.803
20359WAT     H261320   4.769   2.656   9.942
20360WAT      O61321   0.376   6.940   2.243
20360WAT     H161322   0.324   6.868   2.288
20360WAT     H261323   0.326   7.027   2.250
20361WAT      O61324   9.780   5.631   9.084
20361WAT     H161325   9.865   5.652   9.133
20361WAT     H261326   9.774   5.532   9.069
20362WAT      O61327   3.110   9.242   7.719
20362WAT     H161328   3.172   9.166   7.701
20362WAT     H261329   3.027   9.231   7.664
20363WAT      O61330   7.666   7.260   7.358
20363WAT     H161331   7.583   7.273   7.411
20363WAT     H261332   7.697   7.165   7.367
20364WAT      O61333   3.491   7.008   9.537
20364WAT     H161334   3.588   7.032   9.535
20364WAT     H261335   3.456   7.022   9.630
20365WAT      O61336   2.803   7.191   7.416
20365WAT     H161337   2.796   7.108   7.473
20365WAT     H261338   2.889   7.237   7.436
20366WAT      O61339   7.874   2.990   6.565
20366WAT     H161340   7.884   2.998   6.664
20366WAT     H261341   7.963   3.006   6.521
20367WAT      O61342   1.194   3.212   0.637
20367WAT     H161343   1.215   3.155   0.717
20367WAT     H261344   1.105   3.185   0.601
20368WAT      O61345   5.559   9.221   0.934
20368WAT     H161346   5.544   9.283   0.857
20368WAT     H261347   5.502   9.140   0.923
20369WAT      O61348   0.164   7.250   3.347
20369WAT     H161349   0.077   7.267   3.393
20369WAT     H261350   0.202   7.163   3.378
20370WAT      O61351   7.298   5.337   0.614
20370WAT     H161352   7.358   5.308   0.689
20370WAT     H261353   7.329   5.296   0.528
20371WAT      O61354   2.999   7.423   8.664
20371WAT     H161355   3.074   7.358   8.671
20371WAT     H261356   2.912   7.374   8.668
20372WAT      O61357   2.070   5.610   8.042
20372WAT     H161358   2.087   5.637   8.137
20372WAT     H261359   2.063   5.691   7.985
20373WAT      O61360   3.164   3.197   7.278
20373WAT     H161361   3.121   3.249   7.203
20373WAT     H261362   3.261   3.222   7.283
20374WAT      O61363   8.805   5.639   5.588
20374WAT     H161364   8.808   5.549   5.631
20374WAT     H261365   8.893   5.684   5.598
20375WAT      O61366   5.553   9.245   8.965
20375WAT     H161367   5.480   9.271   8.901
20375WAT     H261368   5.521   9.260   9.059
20376WAT      O61369   9.265   7.579   0.206
20376WAT     H161370   9.283   7.481   0.197
20376WAT     H261371   9.196   7.593   0.277
20377WAT      O61372   0.417   7.883   9.665
20377WAT     H161373   0.381   7.852   9.577
20377WAT     H261374   0.361   7.845   9.739
20378WAT      O61375   8.724   4.602   9.636
20378WAT     H161376   8.725   4.525   9.700
20378WAT     H261377   8.717   4.688   9.687
20379WAT      O61378   0.962   3.238   1.203
20379WAT     H161379   0.888   3.301   1.227
20379WAT     H261380   1.049   3.287   1.206
20380WAT      O61381   2.982   5.447   8.994
20380WAT     H161382   3.080   5.425   8.989
20380WAT     H261383   2.934   5.401   8.920
20381WAT      O61384   3.171   7.573   4.901
20381WAT     H161385   3.143   7.648   4.961
20381WAT     H261386   3.236   7.608   4.833
20382WAT      O61387   2.366   1.539   9.503
20382WAT     H161388   2.443   1.475   9.501
20382WAT     H261389   2.304   1.514   9.577
20383WAT      O61390   5.055   7.116   3.725
20383WAT     H161391   5.109   7.067   3.793
20383WAT     H261392   4.966   7.072   3.715
20384WAT      O61393   2.631   4.424   6.781
20384WAT     H161394   2.613   4.326   6.783
20384WAT     H261395   2.711   4.444   6.838
20385WAT      O61396   1.402   5.405   8.356
20385WAT     H161397   1.403   5.446   8.266
20385WAT     H261398   1.425   5.308   8.349
20386WAT      O61399   6.657   3.197   6.327
20386WAT     H161400   6.693   3.234   6.413
20386WAT     H261401   6.706   3.239   6.250
20387WAT      O61402   6.411   2.841   9.450
20387WAT     H161403   6.366   2.757   9.482
20387WAT     H261404   6.438   2.896   9.529
20388WAT      O61405   5.026   8.485   7.312
20388WAT     H161406   4.968   8.509   7.235
20388WAT     H261407   5.107   8.543   7.312
20389WAT      O61408   4.729   1.900   5.909
20389WAT     H161409   4.654   1.843   5.944
20389WAT     H261410   4.744   1.977   5.971
20390WAT      O61411   6.266   0.903   4.169
20390WAT     H161412   6.315   0.853   4.241
20390WAT     H261413   6.330   0.962   4.120
20391WAT      O61414   4.221   7.890   0.089
20391WAT     H161415   4.236   7.913  -0.007
20391WAT     H261416   4.179   7.969   0.135
20392WAT      O61417   4.499   9.587   0.351
20392WAT     H161418   4.452   9.525   0.288
20392WAT     H261419   4.434   9.622   0.418
20393WAT      O61420   9.784   9.209   3.820
20393WAT     H161421   9.704   9.151   3.839
20393WAT     H261422   9.766   9.302   3.852
20394WAT      O61423   6.508   3.496   2.443
20394WAT     H161424   6.416   3.484   2.406
20394WAT     H261425   6.571   3.434   2.396
20395WAT      O61426   4.606   0.176   8.784
20395WAT     H161427   4.689   0.121   8.796
20395WAT     H261428   4.577   0.172   8.688
20396WAT      O61429   0.213   6.723   1.396
20396WAT     H161430   0.181   6.755   1.306
20396WAT     H261431   0.264   6.796   1.441
20397WAT      O61432   9.543   1.855   0.280
20397WAT     H161433   9.590   1.768   0.296
20397WAT     H261434   9.445   1.838   0.270
20398WAT      O61435   9.866   9.389   0.869
20398WAT     H161436   9.799   9.363   0.938
20398WAT     H261437   9.860   9.328   0.791
20399WAT      O61438   9.435   4.523   3.618
20399WAT     H161439   9.386   4.467   3.685
20399WAT     H261440   9.471   4.464   3.546
20400WAT      O61441   0.190   4.404   7.839
20400WAT     H161442   0.247   4.339   7.788
20400WAT     H261443   0.125   4.447   7.776
20401WAT      O61444   3.565   0.928   8.993
20401WAT     H161445   3.594   0.987   9.068
20401WAT     H261446   3.644   0.905   8.936
20402WAT      O61447   8.723   3.591   7.752
20402WAT     H161448   8.723   3.653   7.831
20402WAT     H261449   8.703   3.498   7.782
20403WAT      O61450   5.570   7.524   6.756
20403WAT     H161451   5.509   7.448   6.776
20403WAT     H261452   5.530   7.609   6.792
20404WAT      O61453   1.184   3.372   3.575
20404WAT     H161454   1.210   3.285   3.617
20404WAT     H261455   1.219   3.376   3.482
20405WAT      O61456   5.990   9.787   8.821
20405WAT     H161457   5.980   9.767   8.918
20405WAT     H261458   5.911   9.839   8.789
20406WAT      O61459   1.149   9.080   8.596
20406WAT     H161460   1.085   9.013   8.559
20406WAT     H261461   1.184   9.138   8.523
20407WAT      O61462   1.904   3.534   8.807
20407WAT     H161463   1.984   3.572   8.761
20407WAT     H261464   1.889   3.439   8.777
20408WAT      O61465   0.032   5.287   3.907
20408WAT     H161466  -0.032   5.238   3.849
20408WAT     H261467   0.083   5.353   3.852
20409WAT      O61468   7.590   6.884   8.693
20409WAT     H161469   7.503   6.933   8.694
20409WAT     H261470   7.649   6.918   8.766
20410WAT      O61471   2.829   7.798   4.069
20410WAT     H161472   2.876   7.787   3.981
20410WAT     H261473   2.894   7.830   4.138
20411WAT      O61474   6.895   7.210   7.445
20411WAT     H161475   6.877   7.175   7.353
20411WAT     H261476   6.937   7.300   7.439
20412WAT      O61477   7.025   0.832   9.055
20412WAT     H161478   6.935   0.866   9.027
20412WAT     H261479   7.068   0.785   8.979
20413WAT      O61480   8.744   4.580   9.357
20413WAT     H161481   8.826   4.619   9.315
20413WAT     H261482   8.765   4.553   9.451
20414WAT      O61483   1.731   6.287   8.942
20414WAT     H161484   1.771   6.338   9.018
20414WAT     H261485   1.770   6.321   8.856
20415WAT      O61486   7.209   2.413   1.292
20415WAT     H161487   7.263   2.438   1.372
20415WAT     H261488   7.253   2.449   1.210
20416WAT      O61489   6.585   6.210   1.568
20416WAT     H161490   6.603   6.294   1.618
20416WAT     H261491   6.516   6.226   1.499
20417WAT      O61492   4.957   0.369   1.997
20417WAT     H161493   4.989   0.462   2.010
20417WAT     H261494   4.862   0.361   2.029
20418WAT      O61495   2.810   0.243   1.611
20418WAT     H161496   2.772   0.327   1.573
20418WAT     H261497   2.906   0.257   1.636
20419WAT      O61498   2.163   7.354   8.067
20419WAT     H161499   2.188   7.410   8.146
20419WAT     H261500   2.229   7.368   7.994
20420WAT      O61501   9.340   6.194   3.549
20420WAT     H161502   9.267   6.256   3.579
20420WAT     H261503   9.309   6.144   3.468
20421WAT      O61504   8.738   2.092   7.991
20421WAT     H161505   8.735   2.191   8.007
20421WAT     H261506   8.781   2.074   7.903
20422WAT      O61507   5.931   1.118   3.729
20422WAT     H161508   5.904   1.183   3.799
20422WAT     H261509   6.028   1.131   3.707
20423WAT      O61510   5.057   9.080   1.182
20423WAT     H161511   5.142   9.132   1.175
20423WAT     H261512   4.987   9.136   1.226
20424WAT      O61513   3.050   6.296   4.517
20424WAT     H161514   3.130   6.311   4.459
20424WAT     H261515   3.075   6.305   4.613
20425WAT      O61516   4.235   0.936   7.656
20425WAT     H161517   4.248   0.971   7.749
20425WAT     H261518   4.167   0.863   7.657
20426WAT      O61519   0.526   5.505   2.128
20426WAT     H161520   0.605   5.550   2.170
20426WAT     H261521   0.556   5.453   2.048
20427WAT      O61522   4.023   8.346   6.092
20427WAT     H161523   4.004   8.432   6.139
20427WAT     H261524   3.936   8.306   6.061
20428WAT      O61525   3.111   2.471   1.107
20428WAT     H161526   3.174   2.459   1.030
20428WAT     H261527   3.155   2.438   1.191
20429WAT      O61528   8.762   3.128   2.711
20429WAT     H161529   8.854   3.124   2.750
20429WAT     H261530   8.763   3.190   2.632
20430WAT      O61531   4.019   3.583   2.202
20430WAT     H161532   4.119   3.588   2.194
20430WAT     H261533   3.995   3.557   2.296
20431WAT      O61534   2.720   6.571   2.707
20431WAT     H161535   2.681   6.623   2.783
20431WAT     H261536   2.800   6.521   2.738
20432WAT      O61537   1.472   0.954   4.002
20432WAT     H161538   1.512   1.006   3.928
20432WAT     H261539   1.396   0.898   3.967
20433WAT      O61540   9.840   1.548   8.508
20433WAT     H161541   9.887   1.625   8.466
20433WAT     H261542   9.886   1.463   8.483
20434WAT      O61543   9.273   7.875   5.883
20434WAT     H161544   9.354   7.836   5.840
20434WAT     H261545   9.286   7.881   5.982
20435WAT      O61546   2.200   2.747   7.293
20435WAT     H161547   2.161   2.815   7.355
20435WAT     H261548   2.249   2.793   7.219
20436WAT      O61549   2.759   6.390   4.190
20436WAT     H161550   2.662   6.414   4.187
20436WAT     H261551   2.806   6.427   4.110
20437WAT      O61552   3.077   7.573   9.342
20437WAT     H161553   3.060   7.665   9.378
20437WAT     H261554   3.145   7.578   9.268
20438WAT      O61555   6.886   2.340   9.512
20438WAT     H161556   6.963   2.328   9.575
20438WAT     H261557   6.834   2.420   9.539
20439WAT      O61558   0.370   8.406   3.802
20439WAT     H161559   0.421   8.431   3.885
20439WAT     H261560   0.274   8.392   3.825
20440WAT      O61561   9.777   7.623   3.082
20440WAT     H161562   9.725   7.678   3.147
20440WAT     H261563   9.844   7.681   3.036
20441WAT      O61564   4.728   3.177   8.128
20441WAT     H161565   4.659   3.117   8.089
20441WAT     H261566   4.741   3.257   8.068
20442WAT      O61567   0.842   2.280   6.172
20442WAT     H161568   0.826   2.182   6.160
20442WAT     H261569   0.899   2.295   6.252
20443WAT      O61570   5.539   4.291   1.567
20443WAT     H161571   5.475   4.268   1.494
20443WAT     H261572   5.630   4.256   1.544
20444WAT      O61573   6.534   1.382   5.299
20444WAT     H161574   6.563   1.420   5.211
20444WAT     H261575   6.473   1.305   5.284
20445WAT      O61576   1.655   3.795   1.245
20445WAT     H161577   1.728   3.771   1.308
20445WAT     H261578   1.584   3.846   1.294
20446WAT      O61579   3.068   2.676   9.054
20446WAT     H161580   3.122   2.723   8.985
20446WAT     H261581   3.120   2.672   9.140
20447WAT      O61582   3.097   0.411   5.388
20447WAT     H161583   3.103   0.497   5.438
20447WAT     H261584   3.155   0.342   5.432
20448WAT      O61585   4.281   9.610   7.078
20448WAT     H161586   4.347   9.552   7.031
20448WAT     H261587   4.264   9.574   7.170
20449WAT      O61588   7.194   1.813   3.356
20449WAT     H161589   7.273   1.808   3.295
20449WAT     H261590   7.215   1.870   3.435
20450WAT      O61591   7.894   4.303   7.108
20450WAT     H161592   7.908   4.400   7.089
20450WAT     H261593   7.804   4.275   7.076
20451WAT      O61594   6.946   4.423   6.760
20451WAT     H161595   6.874   4.354   6.774
20451WAT     H261596   6.908   4.514   6.777
20452WAT      O61597   2.865   1.219   8.957
20452WAT     H161598   2.829   1.128   8.978
20452WAT     H261599   2.951   1.232   9.006
20453WAT      O61600   3.149   5.756   9.833
20453WAT     H161601   3.239   5.770   9.874
20453WAT     H261602   3.104   5.845   9.820
20454WAT      O61603   1.920   6.069   7.389
20454WAT     H161604   1.915   6.132   7.311
20454WAT     H261605   1.951   5.980   7.357
20455WAT      O61606   1.636   2.615   2.956
20455WAT     H161607   1.621   2.595   2.860
20455WAT     H261608   1.646   2.714   2.969
20456WAT      O61609   5.969   7.441   4.788
20456WAT     H161610   5.921   7.358   4.813
20456WAT     H261611   6.004   7.486   4.871
20457WAT      O61612   2.168   0.408   7.254
20457WAT     H161613   2.245   0.448   7.305
20457WAT     H261614   2.159   0.454   7.166
20458WAT      O61615   9.476   2.294   0.201
20458WAT     H161616   9.430   2.279   0.289
20458WAT     H261617   9.543   2.222   0.186
20459WAT      O61618   6.478   9.391   1.382
20459WAT     H161619   6.481   9.344   1.470
20459WAT     H261620   6.539   9.470   1.384
20460WAT      O61621   8.825   5.871   4.685
20460WAT     H161622   8.737   5.826   4.699
20460WAT     H261623   8.814   5.970   4.694
20461WAT      O61624   1.200   6.925   5.004
20461WAT     H161625   1.241   6.847   5.051
20461WAT     H261626   1.245   6.939   4.916
20462WAT      O61627   1.904   1.132   2.775
20462WAT     H161628   1.923   1.207   2.838
20462WAT     H261629   1.976   1.127   2.706
20463WAT      O61630   1.317   1.195   0.955
20463WAT     H161631   1.342   1.291   0.967
20463WAT     H261632   1.246   1.188   0.885
20464WAT      O61633   4.729   1.598   7.385
20464WAT     H161634   4.782   1.637   7.460
20464WAT     H261635   4.664   1.531   7.421
20465WAT      O61636   3.394   5.528   4.000
20465WAT     H161637   3.473   5.574   3.959
20465WAT     H261638   3.313   5.543   3.944
20466WAT      O61639   1.338   3.754   0.993
20466WAT     H161640   1.413   3.689   1.003
20466WAT     H261641   1.369   3.832   0.938
20467WAT      O61642   5.835   1.446   7.820
20467WAT     H161643   5.901   1.505   7.774
20467WAT     H261644   5.794   1.495   7.897
20468WAT      O61645   1.821   5.458   3.608
20468WAT     H161646   1.840   5.365   3.640
20468WAT     H261647   1.827   5.521   3.685
20469WAT      O61648   8.143   1.466   5.302
20469WAT     H161649   8.064   1.512   5.260
20469WAT     H261650   8.202   1.430   5.230
20470WAT      O61651   8.190   8.744   8.600
20470WAT     H161652   8.287   8.742   8.625
20470WAT     H261653   8.146   8.662   8.634
20471WAT      O61654   2.513   6.927   2.451
20471WAT     H161655   2.586   6.894   2.512
20471WAT     H261656   2.554   6.974   2.373
20472WAT      O61657   5.381   7.932   0.298
20472WAT     H161658   5.390   7.915   0.396
20472WAT     H261659   5.424   7.857   0.247
20473WAT      O61660   0.858   1.357   9.233
20473WAT     H161661   0.863   1.274   9.177
20473WAT     H261662   0.915   1.428   9.192
20474WAT      O61663   3.251   5.256   1.554
20474WAT     H161664   3.270   5.169   1.598
20474WAT     H261665   3.280   5.253   1.459
20475WAT      O61666   4.012   8.571   5.296
20475WAT     H161667   4.073   8.616   5.361
20475WAT     H261668   4.032   8.473   5.292
20476WAT      O61669   3.656   6.087   1.190
20476WAT     H161670   3.747   6.065   1.225
20476WAT     H261671   3.610   6.003   1.162
20477WAT      O61672   3.653   4.221   2.980
20477WAT     H161673   3.674   4.311   3.019
20477WAT     H261674   3.647   4.228   2.880
20478WAT      O61675   0.234   4.182   6.328
20478WAT     H161676   0.290   4.140   6.256
20478WAT     H261677   0.137   4.175   6.303
20479WAT      O61678   0.729   6.353   8.315
20479WAT     H161679   0.651   6.337   8.376
20479WAT     H261680   0.714   6.305   8.229
20480WAT      O61681   2.914   1.645   3.196
20480WAT     H161682   2.914   1.685   3.105
20480WAT     H261683   2.865   1.558   3.194
20481WAT      O61684   7.617   9.402   4.879
20481WAT     H161685   7.666   9.316   4.868
20481WAT     H261686   7.594   9.440   4.789
20482WAT      O61687   2.089   1.125   1.638
20482WAT     H161688   2.087   1.220   1.609
20482WAT     H261689   2.040   1.068   1.572
20483WAT      O61690   0.022   3.907   8.903
20483WAT     H161691   0.093   3.936   8.967
20483WAT     H261692  -0.051   3.861   8.953
20484WAT      O61693   7.370   1.093   6.418
20484WAT     H161694   7.354   0.996   6.402
20484WAT     H261695   7.320   1.147   6.350
20485WAT      O61696   7.667   8.528   8.409
20485WAT     H161697   7.601   8.470   8.361
20485WAT     H261698   7.646   8.624   8.391
20486WAT      O61699   5.296   9.199   1.304
20486WAT     H161700   5.380   9.248   1.329
20486WAT     H261701   5.277   9.129   1.372
20487WAT      O61702   8.737   9.516   1.033
20487WAT     H161703   8.671   9.453   1.076
20487WAT     H261704   8.710   9.532   0.938
20488WAT      O61705   9.411   1.992   8.410
20488WAT     H161706   9.353   1.959   8.485
20488WAT     H261707   9.505   2.003   8.442
20489WAT      O61708   1.247   5.701   8.705
20489WAT     H161709   1.251   5.666   8.611
20489WAT     H261710   1.264   5.626   8.769
20490WAT      O61711   1.044   5.047   4.685
20490WAT     H161712   0.992   5.016   4.605
20490WAT     H261713   1.050   4.973   4.751
20491WAT      O61714   6.379   2.100   1.390
20491WAT     H161715   6.401   2.057   1.478
20491WAT     H261716   6.295   2.153   1.399
20492WAT      O61717   6.318   4.355   0.174
20492WAT     H161718   6.416   4.358   0.153
20492WAT     H261719   6.282   4.264   0.149
20493WAT      O61720   3.678   5.421   7.335
20493WAT     H161721   3.636   5.458   7.252
20493WAT     H261722   3.607   5.402   7.403
20494WAT      O61723   8.743   5.104   2.320
20494WAT     H161724   8.834   5.106   2.360
20494WAT     H261725   8.738   5.032   2.251
20495WAT      O61726   8.779   2.267   3.432
20495WAT     H161727   8.804   2.251   3.336
20495WAT     H261728   8.773   2.366   3.449
20496WAT      O61729   2.198   7.784   2.194
20496WAT     H161730   2.201   7.698   2.144
20496WAT     H261731   2.245   7.773   2.282
20497WAT      O61732   5.724   2.934   7.768
20497WAT     H161733   5.743   2.836   7.774
20497WAT     H261734   5.629   2.952   7.794
20498WAT      O61735   6.761   1.145   0.319
20498WAT     H161736   6.819   1.204   0.375
20498WAT     H261737   6.702   1.202   0.261
20499WAT      O61738   0.191   2.562   2.891
20499WAT     H161739   0.196   2.585   2.988
20499WAT     H261740   0.280   2.526   2.861
20500WAT      O61741   3.368   5.824   4.783
20500WAT     H161742   3.449   5.782   4.742
20500WAT     H261743   3.385   5.921   4.796
20501WAT      O61744   0.860   1.420   7.125
20501WAT     H161745   0.959   1.433   7.115
20501WAT     H261746   0.813   1.490   7.072
20502WAT      O61747   3.120   4.911   4.881
20502WAT     H161748   3.083   4.935   4.971
20502WAT     H261749   3.056   4.852   4.833
20503WAT      O61750   1.175   1.083   7.950
20503WAT     H161751   1.075   1.081   7.938
20503WAT     H261752   1.216   1.132   7.872
20504WAT      O61753   0.448   7.013   9.285
20504WAT     H161754   0.367   6.964   9.317
20504WAT     H261755   0.479   7.075   9.357
20505WAT      O61756   5.267   8.899   5.551
20505WAT     H161757   5.302   8.808   5.525
20505WAT     H261758   5.298   8.921   5.643
20506WAT      O61759   5.199   3.688   0.673
20506WAT     H161760   5.147   3.619   0.624
20506WAT     H261761   5.296   3.661   0.676
20507WAT      O61762   1.250   5.166   3.964
20507WAT     H161763   1.270   5.165   4.062
20507WAT     H261764   1.306   5.098   3.918
20508WAT      O61765   4.547   2.056   2.162
20508WAT     H161766   4.553   2.027   2.067
20508WAT     H261767   4.452   2.051   2.193
20509WAT      O61768   2.837   8.198   6.964
20509WAT     H161769   2.857   8.100   6.952
20509WAT     H261770   2.832   8.242   6.875
20510WAT      O61771   7.906   6.321   1.926
20510WAT     H161772   8.005   6.324   1.931
20510WAT     H261773   7.871   6.261   1.998
20511WAT      O61774   1.268   9.795   6.820
20511WAT     H161775   1.245   9.698   6.819
20511WAT     H261776   1.260   9.831   6.913
20512WAT      O61777   9.361   6.635   7.196
20512WAT     H161778   9.449   6.644   7.243
20512WAT     H261779   9.287   6.654   7.259
20513WAT      O61780   0.723   7.289   2.508
20513WAT     H161781   0.753   7.284   2.413
20513WAT     H261782   0.677   7.205   2.534
20514WAT      O61783   9.554   9.507   7.713
20514WAT     H161784   9.543   9.597   7.757
20514WAT     H261785   9.583   9.440   7.782
20515WAT      O61786   2.838   5.146   4.416
20515WAT     H161787   2.819   5.059   4.370
20515WAT     H261788   2.923   5.138   4.468
20516WAT      O61789   0.187   3.221   8.278
20516WAT     H161790   0.118   3.240   8.348
20516WAT     H261791   0.217   3.126   8.285
20517WAT      O61792   3.151   8.090   2.025
20517WAT     H161793   3.244   8.113   1.995
20517WAT     H261794   3.103   8.174   2.052
20518WAT      O61795   6.403   7.726   0.396
20518WAT     H161796   6.397   7.701   0.300
20518WAT     H261797   6.495   7.706   0.430
20519WAT      O61798   0.704   4.263   9.563
20519WAT     H161799   0.691   4.173   9.605
20519WAT     H261800   0.623   4.286   9.508
20520WAT      O61801   7.883   8.250   2.116
20520WAT     H161802   7.977   8.284   2.118
20520WAT     H261803   7.843   8.255   2.208
20521WAT      O61804   9.799   1.950   7.354
20521WAT     H161805   9.726   1.941   7.287
20521WAT     H261806   9.863   2.021   7.326
20522WAT      O61807   7.561   1.457   9.634
20522WAT     H161808   7.642   1.432   9.688
20522WAT     H261809   7.509   1.374   9.613
20523WAT      O61810   6.847   3.516   2.831
20523WAT     H161811   6.763   3.509   2.777
20523WAT     H261812   6.827   3.492   2.926
20524WAT      O61813   9.351   8.142   9.228
20524WAT     H161814   9.435   8.185   9.193
20524WAT     H261815   9.327   8.183   9.316
20525WAT      O61816   5.303   9.347   2.358
20525WAT     H161817   5.281   9.443   2.340
20525WAT     H261818   5.233   9.288   2.317
20526WAT      O61819   4.636   3.416   5.700
20526WAT     H161820   4.674   3.375   5.617
20526WAT     H261821   4.540   3.388   5.710
20527WAT      O61822   3.631   7.515   4.877
20527WAT     H161823   3.661   7.420   4.885
20527WAT     H261824   3.625   7.555   4.969
20528WAT      O61825   6.949   6.892   9.519
20528WAT     H161826   6.971   6.937   9.605
20528WAT     H261827   6.857   6.853   9.524
20529WAT      O61828   6.967   4.082   3.398
20529WAT     H161829   6.953   4.060   3.301
20529WAT     H261830   7.000   4.176   3.406
20530WAT      O61831   8.293   1.354   3.198
20530WAT     H161832   8.372   1.322   3.249
20530WAT     H261833   8.267   1.286   3.130
20531WAT      O61834   2.185   3.858   8.762
20531WAT     H161835   2.086   3.858   8.754
20531WAT     H261836   2.212   3.891   8.853
20532WAT      O61837   3.458   8.163   2.656
20532WAT     H161838   3.543   8.116   2.680
20532WAT     H261839   3.396   8.099   2.610
20533WAT      O61840   8.418   5.387   7.679
20533WAT     H161841   8.457   5.391   7.772
20533WAT     H261842   8.472   5.324   7.623
20534WAT      O61843   9.551   1.985   6.945
20534WAT     H161844   9.554   2.084   6.957
20534WAT     H261845   9.505   1.944   7.023
20535WAT      O61846   1.982   6.393   7.906
20535WAT     H161847   2.064   6.412   7.960
20535WAT     H261848   1.976   6.295   7.888
20536WAT      O61849   9.793   1.045   3.245
20536WAT     H161850   9.776   1.122   3.307
20536WAT     H261851   9.822   0.965   3.297
20537WAT      O61852   5.277   2.015   7.859
20537WAT     H161853   5.311   2.011   7.953
20537WAT     H261854   5.307   2.100   7.816
20538WAT      O61855   1.382   4.382   6.652
20538WAT     H161856   1.391   4.298   6.598
20538WAT     H261857   1.436   4.374   6.736
20539WAT      O61858   3.242   4.722   6.242
20539WAT     H161859   3.152   4.764   6.224
20539WAT     H261860   3.254   4.643   6.183
20540WAT      O61861   1.682   8.763   4.745
20540WAT     H161862   1.723   8.680   4.706
20540WAT     H261863   1.599   8.738   4.795
20541WAT      O61864   4.991   6.701   6.075
20541WAT     H161865   4.980   6.645   6.157
20541WAT     H261866   4.998   6.642   5.995
20542WAT      O61867   6.191   1.833   9.500
20542WAT     H161868   6.245   1.750   9.518
20542WAT     H261869   6.124   1.814   9.429
20543WAT      O61870   6.814   1.674   9.367
20543WAT     H161871   6.747   1.625   9.423
20543WAT     H261872   6.776   1.692   9.277
20544WAT      O61873   6.922   0.831   4.640
20544WAT     H161874   6.895   0.926   4.623
20544WAT     H261875   7.020   0.826   4.655
20545WAT      O61876   2.702   2.213   3.815
20545WAT     H161877   2.640   2.249   3.884
20545WAT     H261878   2.796   2.220   3.847
20546WAT      O61879   6.274   7.575   3.737
20546WAT     H161880   6.235   7.575   3.829
20546WAT     H261881   6.249   7.491   3.690
20547WAT      O61882   8.098   4.018   1.277
20547WAT     H161883   8.048   4.023   1.364
20547WAT     H261884   8.097   3.924   1.243
20548WAT      O61885   3.401   4.194   3.600
20548WAT     H161886   3.446   4.192   3.689
20548WAT     H261887   3.470   4.204   3.528
20549WAT      O61888   9.436   7.119   7.320
20549WAT     H161889   9.357   7.062   7.297
20549WAT     H261890   9.445   7.123   7.419
20550WAT      O61891   5.248   2.270   8.933
20550WAT     H161892   5.163   2.320   8.916
20550WAT     H261893   5.260   2.200   8.862
20551WAT      O61894   0.105   1.428   1.300
20551WAT     H161895   0.106   1.463   1.206
20551WAT     H261896   0.074   1.500   1.362
20552WAT      O61897   7.060   8.171   7.928
20552WAT     H161898   7.055   8.201   8.022
20552WAT     H261899   7.079   8.249   7.868
20553WAT      O61900   7.915   5.654   2.256
20553WAT     H161901   7.843   5.656   2.325
20553WAT     H261902   7.971   5.572   2.268
20554WAT      O61903   9.334   3.598   5.750
20554WAT     H161904   9.297   3.531   5.815
20554WAT     H261905   9.413   3.558   5.704
20555WAT      O61906   7.574   6.093   6.886
20555WAT     H161907   7.496   6.096   6.948
20555WAT     H261908   7.648   6.149   6.923
20556WAT      O61909   4.337   0.772   8.952
20556WAT     H161910   4.306   0.809   9.039
20556WAT     H261911   4.328   0.672   8.952
20557WAT      O61912   7.372   7.951   9.623
20557WAT     H161913   7.437   8.026   9.625
20557WAT     H261914   7.284   7.982   9.660
20558WAT      O61915   7.956   7.703   3.076
20558WAT     H161916   8.034   7.662   3.029
20558WAT     H261917   7.886   7.728   3.009
20559WAT      O61918   5.409   0.502   8.284
20559WAT     H161919   5.424   0.597   8.255
20559WAT     H261920   5.486   0.446   8.255
20560WAT      O61921   7.773   9.789   4.376
20560WAT     H161922   7.815   9.879   4.390
20560WAT     H261923   7.829   9.719   4.420
20561WAT      O61924   0.635   6.113   6.872
20561WAT     H161925   0.538   6.135   6.858
20561WAT     H261926   0.647   6.068   6.960
20562WAT      O61927   8.845   0.017   0.043
20562WAT     H161928   8.818   0.102  -0.002
20562WAT     H261929   8.863  -0.053  -0.026
20563WAT      O61930   6.723   4.437   9.092
20563WAT     H161931   6.625   4.437   9.116
20563WAT     H261932   6.764   4.350   9.118
20564WAT      O61933   3.871   0.939   4.856
20564WAT     H161934   3.966   0.950   4.827
20564WAT     H261935   3.867   0.913   4.952
20565WAT      O61936   8.507   9.303   1.566
20565WAT     H161937   8.578   9.314   1.636
20565WAT     H261938   8.428   9.360   1.590
20566WAT      O61939   5.141   1.123   8.034
20566WAT     H161940   5.228   1.074   8.027
20566WAT     H261941   5.095   1.121   7.946
20567WAT      O61942   4.216   4.530   0.135
20567WAT     H161943   4.248   4.442   0.171
20567WAT     H261944   4.201   4.593   0.212
20568WAT      O61945   8.816   1.228   0.844
20568WAT     H161946   8.851   1.177   0.766
20568WAT     H261947   8.832   1.176   0.928
20569WAT      O61948   0.734   4.258   5.934
20569WAT     H161949   0.636   4.250   5.919
20569WAT     H261950   0.751   4.295   6.026
20570WAT      O61951   2.472   0.960   7.039
20570WAT     H161952   2.551   0.925   6.989
20570WAT     H261953   2.411   0.884   7.063
20571WAT      O61954   6.602   0.631   8.152
20571WAT     H161955   6.702   0.638   8.147
20571WAT     H261956   6.562   0.668   8.068
20572WAT      O61957   7.862   6.552   4.998
20572WAT     H161958   7.902   6.535   4.908
20572WAT     H261959   7.906   6.632   5.039
20573WAT      O61960   8.018   0.151   3.311
20573WAT     H161961   8.081   0.074   3.313
20573WAT     H261962   8.000   0.182   3.405
20574WAT      O61963   8.816   1.487   2.300
20574WAT     H161964   8.878   1.476   2.378
20574WAT     H261965   8.803   1.399   2.255
20575WAT      O61966   3.831   6.291   8.984
20575WAT     H161967   3.930   6.300   8.999
20575WAT     H261968   3.811   6.197   8.957
20576WAT      O61969   8.497   5.668   6.731
20576WAT     H161970   8.542   5.745   6.684
20576WAT     H261971   8.546   5.648   6.816
20577WAT      O61972   6.618   1.496   5.072
20577WAT     H161973   6.626   1.508   4.973
20577WAT     H261974   6.569   1.574   5.111
20578WAT      O61975   4.660   6.868   3.860
20578WAT     H161976   4.623   6.860   3.953
20578WAT     H261977   4.691   6.962   3.845
20579WAT      O61978   8.269   6.073   6.808
20579WAT     H161979   8.181   6.038   6.837
20579WAT     H261980   8.256   6.134   6.729
20580WAT      O61981   0.090   3.114   0.808
20580WAT     H161982   0.111   3.029   0.857
20580WAT     H261983   0.063   3.184   0.874
20581WAT      O61984   2.896   3.207   8.105
20581WAT     H161985   2.907   3.110   8.130
20581WAT     H261986   2.945   3.264   8.171
20582WAT      O61987   0.553   7.942   5.346
20582WAT     H161988   0.628   7.934   5.280
20582WAT     H261989   0.478   7.994   5.304
20583WAT      O61990   7.145   6.671   2.450
20583WAT     H161991   7.169   6.763   2.418
20583WAT     H261992   7.227   6.615   2.454
20584WAT      O61993   8.081   7.423   1.827
20584WAT     H161994   7.984   7.442   1.841
20584WAT     H261995   8.092   7.338   1.775
20585WAT      O61996   7.109   8.603   3.166
20585WAT     H161997   7.166   8.528   3.132
20585WAT     H261998   7.014   8.588   3.138
20586WAT      O61999   8.113   1.358   6.156
20586WAT     H162000   8.183   1.386   6.090
20586WAT     H262001   8.085   1.437   6.210
20587WAT      O62002   7.744   3.093   0.577
20587WAT     H162003   7.655   3.137   0.582
20587WAT     H262004   7.808   3.137   0.640
20588WAT      O62005   4.748   3.199   0.822
20588WAT     H162006   4.736   3.236   0.730
20588WAT     H262007   4.659   3.170   0.858
20589WAT      O62008   8.879   4.965   1.839
20589WAT     H162009   8.924   5.054   1.830
20589WAT     H262010   8.948   4.893   1.842
20590WAT      O62011   6.098   2.506   0.871
20590WAT     H162012   6.140   2.502   0.781
20590WAT     H262013   6.012   2.454   0.869
20591WAT      O62014   8.227   6.758   8.217
20591WAT     H162015   8.270   6.670   8.197
20591WAT     H262016   8.291   6.815   8.270
20592WAT      O62017   6.919   2.695   4.630
20592WAT     H162018   6.901   2.782   4.675
20592WAT     H262019   6.881   2.620   4.685
20593WAT      O62020   7.456   8.650   3.485
20593WAT     H162021   7.530   8.707   3.520
20593WAT     H262022   7.475   8.627   3.390
20594WAT      O62023   8.801   1.793   0.210
20594WAT     H162024   8.815   1.891   0.219
20594WAT     H262025   8.703   1.773   0.208
20595WAT      O62026   3.478   7.864   7.254
20595WAT     H162027   3.437   7.870   7.163
20595WAT     H262028   3.553   7.929   7.262
20596WAT      O62029   8.873   4.346   5.851
20596WAT     H162030   8.852   4.439   5.821
20596WAT     H262031   8.805   4.317   5.919
20597WAT      O62032   0.901   0.212   1.117
20597WAT     H162033   0.918   0.117   1.145
20597WAT     H262034   0.806   0.236   1.136
20598WAT      O62035   2.459   1.565   2.373
20598WAT     H162036   2.384   1.621   2.338
20598WAT     H262037   2.498   1.608   2.455
20599WAT      O62038   2.482   3.930   7.676
20599WAT     H162039   2.460   3.997   7.606
20599WAT     H262040   2.455   3.839   7.644
20600WAT      O62041   0.780   9.824   0.509
20600WAT     H162042   0.878   9.818   0.489
20600WAT     H262043   0.761   9.910   0.556
20601WAT      O62044   3.054   8.036   8.437
20601WAT     H162045   3.053   7.972   8.514
20601WAT     H262046   3.144   8.079   8.432
20602WAT      O62047   4.922   0.356   9.141
20602WAT     H162048   5.007   0.408   9.129
20602WAT     H262049   4.943   0.259   9.142
20603WAT      O62050   2.668   6.658   3.881
20603WAT     H162051   2.638   6.688   3.972
20603WAT     H262052   2.654   6.731   3.815
20604WAT      O62053   6.907   3.771   0.085
20604WAT     H162054   6.901   3.799  -0.010
20604WAT     H262055   6.887   3.673   0.093
20605WAT      O62056   9.782   2.410   4.975
20605WAT     H162057   9.698   2.417   5.028
20605WAT     H262058   9.795   2.316   4.944
20606WAT      O62059   4.718   9.563   3.365
20606WAT     H162060   4.622   9.570   3.338
20606WAT     H262061   4.726   9.580   3.463
20607WAT      O62062   4.508   4.626   0.905
20607WAT     H162063   4.510   4.528   0.926
20607WAT     H262064   4.575   4.646   0.834
20608WAT      O62065   7.112   2.008   1.537
20608WAT     H162066   7.103   2.067   1.617
20608WAT     H262067   7.194   2.034   1.486
20609WAT      O62068   7.196   6.288   2.111
20609WAT     H162069   7.171   6.332   2.025
20609WAT     H262070   7.274   6.334   2.152
20610WAT      O62071   8.229   4.104   3.172
20610WAT     H162072   8.306   4.073   3.228
20610WAT     H262073   8.162   4.030   3.163
20611WAT      O62074   6.159   5.947   8.048
20611WAT     H162075   6.163   5.871   8.113
20611WAT     H262076   6.151   6.033   8.097
20612WAT      O62077   7.064   9.048   1.933
20612WAT     H162078   6.980   9.103   1.926
20612WAT     H262079   7.143   9.109   1.936
20613WAT      O62080   8.432   3.327   9.774
20613WAT     H162081   8.377   3.267   9.716
20613WAT     H262082   8.528   3.297   9.771
20614WAT      O62083   9.855   4.733   8.487
20614WAT     H162084   9.930   4.708   8.427
20614WAT     H262085   9.892   4.775   8.570
20615WAT      O62086   9.551   9.295   8.685
20615WAT     H162087   9.635   9.305   8.738
20615WAT     H262088   9.472   9.308   8.745
20616WAT      O62089   6.005   5.348   4.139
20616WAT     H162090   6.032   5.443   4.127
20616WAT     H262091   5.958   5.316   4.057
20617WAT      O62092   3.156   5.816   8.925
20617WAT     H162093   3.123   5.758   9.000
20617WAT     H262094   3.093   5.807   8.847
20618WAT      O62095   8.595   8.086   6.106
20618WAT     H162096   8.605   8.089   6.206
20618WAT     H262097   8.505   8.120   6.080
20619WAT      O62098   0.844   5.316   9.710
20619WAT     H162099   0.801   5.230   9.737
20619WAT     H262100   0.778   5.372   9.660
20620WAT      O62101   9.854   2.503   1.850
20620WAT     H162102   9.857   2.530   1.946
20620WAT     H262103   9.889   2.578   1.793
20621WAT      O62104   7.072   1.051   1.810
20621WAT     H162105   7.064   1.114   1.887
20621WAT     H262106   7.134   1.091   1.742
20622WAT      O62107   8.385   2.252   0.066
20622WAT     H162108   8.465   2.203   0.031
20622WAT     H262109   8.413   2.314   0.139
20623WAT      O62110   4.627   7.397   6.283
20623WAT     H162111   4.647   7.362   6.192
20623WAT     H262112   4.549   7.459   6.279
20624WAT      O62113   7.531   0.495   2.184
20624WAT     H162114   7.604   0.448   2.135
20624WAT     H262115   7.443   0.472   2.142
20625WAT      O62116   5.218   5.986   5.388
20625WAT     H162117   5.170   5.926   5.451
20625WAT     H262118   5.151   6.032   5.328
20626WAT      O62119   6.142   1.393   0.915
20626WAT     H162120   6.076   1.358   0.849
20626WAT     H262121   6.198   1.318   0.950
20627WAT      O62122   3.598   7.705   7.013
20627WAT     H162123   3.600   7.675   7.108
20627WAT     H262124   3.685   7.685   6.969
20628WAT      O62125   4.254   5.614   6.688
20628WAT     H162126   4.185   5.683   6.665
20628WAT     H262127   4.282   5.566   6.604
20629WAT      O62128   6.896   4.115   0.027
20629WAT     H162129   6.887   4.020  -0.003
20629WAT     H262130   6.933   4.117   0.120
20630WAT      O62131   4.550   7.739   8.743
20630WAT     H162132   4.547   7.641   8.758
20630WAT     H262133   4.636   7.776   8.779
20631WAT      O62134   0.199   7.877   4.443
20631WAT     H162135   0.173   7.843   4.534
20631WAT     H262136   0.132   7.844   4.376
20632WAT      O62137   1.151   1.092   3.743
20632WAT     H162138   1.112   1.155   3.811
20632WAT     H262139   1.241   1.124   3.715
20633WAT      O62140   1.612   1.581   3.092
20633WAT     H162141   1.555   1.649   3.047
20633WAT     H262142   1.565   1.548   3.174
20634WAT      O62143   7.027   7.462   7.455
20634WAT     H162144   7.095   7.451   7.528
20634WAT     H262145   6.968   7.540   7.477
20635WAT      O62146   8.162   6.310   1.987
20635WAT     H162147   8.187   6.213   1.986
20635WAT     H262148   8.187   6.349   2.076
20636WAT      O62149   1.384   5.854   1.474
20636WAT     H162150   1.424   5.927   1.418
20636WAT     H262151   1.295   5.828   1.436
20637WAT      O62152   5.352   3.265   7.897
20637WAT     H162153   5.416   3.231   7.966
20637WAT     H262154   5.264   3.286   7.941
20638WAT      O62155   8.376   4.446   0.166
20638WAT     H162156   8.303   4.393   0.124
20638WAT     H262157   8.451   4.457   0.101
20639WAT      O62158   5.673   5.187   9.257
20639WAT     H162159   5.621   5.268   9.229
20639WAT     H262160   5.768   5.213   9.274
20640WAT      O62161   6.942   0.596   4.767
20640WAT     H162162   6.880   0.569   4.840
20640WAT     H262163   6.924   0.690   4.740
20641WAT      O62164   1.527   4.485   5.469
20641WAT     H162165   1.609   4.462   5.416
20641WAT     H262166   1.536   4.578   5.505
20642WAT      O62167   3.279   0.575   0.613
20642WAT     H162168   3.293   0.673   0.598
20642WAT     H262169   3.290   0.553   0.710
20643WAT      O62170   7.017   5.318   0.251
20643WAT     H162171   7.041   5.370   0.333
20643WAT     H262172   6.917   5.309   0.246
20644WAT      O62173   4.972   6.851   7.986
20644WAT     H162174   5.069   6.828   7.988
20644WAT     H262175   4.958   6.937   7.938
20645WAT      O62176   7.537   3.691   9.842
20645WAT     H162177   7.560   3.598   9.811
20645WAT     H262178   7.451   3.689   9.892
20646WAT      O62179   3.490   7.046   5.480
20646WAT     H162180   3.497   7.134   5.431
20646WAT     H262181   3.449   7.061   5.569
20647WAT      O62182   4.695   0.939   0.750
20647WAT     H162183   4.645   0.923   0.666
20647WAT     H262184   4.746   0.857   0.775
20648WAT      O62185   7.788   5.897   2.641
20648WAT     H162186   7.700   5.919   2.683
20648WAT     H262187   7.862   5.934   2.697
20649WAT      O62188   8.918   5.729   1.361
20649WAT     H162189   8.971   5.736   1.277
20649WAT     H262190   8.836   5.787   1.354
20650WAT      O62191   0.500   2.581   0.742
20650WAT     H162192   0.473   2.675   0.761
20650WAT     H262193   0.599   2.573   0.744
20651WAT      O62194   9.756   8.972   4.548
20651WAT     H162195   9.717   8.880   4.550
20651WAT     H262196   9.687   9.037   4.517
20652WAT      O62197   2.783   6.141   4.354
20652WAT     H162198   2.750   6.200   4.280
20652WAT     H262199   2.856   6.082   4.318
20653WAT      O62200   4.458   7.487   7.646
20653WAT     H162201   4.406   7.543   7.581
20653WAT     H262202   4.432   7.510   7.739
20654WAT      O62203   0.474   0.088   6.229
20654WAT     H162204   0.549   0.025   6.209
20654WAT     H262205   0.480   0.167   6.168
20655WAT      O62206   6.868   5.618   7.239
20655WAT     H162207   6.780   5.652   7.272
20655WAT     H262208   6.938   5.634   7.309
20656WAT      O62209   5.453   3.345   3.909
20656WAT     H162210   5.449   3.367   4.007
20656WAT     H262211   5.389   3.402   3.859
20657WAT      O62212   5.287   1.071   2.529
20657WAT     H162213   5.363   1.019   2.568
20657WAT     H262214   5.272   1.042   2.435
20658WAT      O62215   3.927   0.431   5.620
20658WAT     H162216   3.931   0.435   5.720
20658WAT     H262217   4.019   0.436   5.582
20659WAT      O62218   3.864   7.854   9.716
20659WAT     H162219   3.816   7.916   9.654
20659WAT     H262220   3.935   7.804   9.665
20660WAT      O62221   6.463   6.276   4.797
20660WAT     H162222   6.371   6.306   4.819
20660WAT     H262223   6.494   6.320   4.713
20661WAT      O62224   4.317   2.866   0.416
20661WAT     H162225   4.272   2.883   0.328
20661WAT     H262226   4.413   2.844   0.400
20662WAT      O62227   6.537   8.210   4.035
20662WAT     H162228   6.541   8.289   3.974
20662WAT     H262229   6.556   8.127   3.982
20663WAT      O62230   5.543   8.235   2.278
20663WAT     H162231   5.612   8.300   2.310
20663WAT     H262232   5.503   8.188   2.356
20664WAT      O62233   2.177   2.443   1.398
20664WAT     H162234   2.096   2.451   1.339
20664WAT     H262235   2.259   2.437   1.342
20665WAT      O62236   1.334   5.495   5.989
20665WAT     H162237   1.310   5.402   5.964
20665WAT     H262238   1.295   5.517   6.078
20666WAT      O62239   0.437   9.478   7.545
20666WAT     H162240   0.508   9.536   7.506
20666WAT     H262241   0.386   9.529   7.614
20667WAT      O62242   8.507   9.374   3.471
20667WAT     H162243   8.570   9.364   3.393
20667WAT     H262244   8.477   9.284   3.501
20668WAT      O62245   8.220   3.110   7.663
20668WAT     H162246   8.312   3.072   7.654
20668WAT     H262247   8.165   3.048   7.720
20669WAT      O62248   0.386   0.860   9.716
20669WAT     H162249   0.415   0.811   9.798
20669WAT     H262250   0.455   0.849   9.644
20670WAT      O62251   9.546   5.520   7.293
20670WAT     H162252   9.586   5.533   7.383
20670WAT     H262253   9.524   5.423   7.280
20671WAT      O62254   4.280   6.064   8.214
20671WAT     H162255   4.377   6.044   8.196
20671WAT     H262256   4.238   6.100   8.131
20672WAT      O62257   4.034   8.086   1.428
20672WAT     H162258   4.019   8.147   1.506
20672WAT     H262259   4.035   8.139   1.343
20673WAT      O62260   4.158   2.400   8.526
20673WAT     H162261   4.085   2.427   8.589
20673WAT     H262262   4.247   2.421   8.567
20674WAT      O62263   7.631   4.631   7.355
20674WAT     H162264   7.722   4.629   7.312
20674WAT     H262265   7.621   4.551   7.415
20675WAT      O62266   7.550   3.067   3.504
20675WAT     H162267   7.573   3.158   3.539
20675WAT     H262268   7.481   3.075   3.432
20676WAT      O62269   9.805   3.988   0.218
20676WAT     H162270   9.817   3.932   0.300
20676WAT     H262271   9.894   4.025   0.190
20677WAT      O62272   5.682   5.974   9.323
20677WAT     H162273   5.769   5.988   9.369
20677WAT     H262274   5.698   5.932   9.233
20678WAT      O62275   2.371   5.317   4.426
20678WAT     H162276   2.306   5.341   4.354
20678WAT     H262277   2.462   5.349   4.402
20679WAT      O62278   3.213   5.511   0.854
20679WAT     H162279   3.191   5.607   0.836
20679WAT     H262280   3.294   5.506   0.913
20680WAT      O62281   7.790   3.035   9.355
20680WAT     H162282   7.799   3.037   9.455
20680WAT     H262283   7.723   3.104   9.327
20681WAT      O62284   9.820   3.021   8.499
20681WAT     H162285   9.895   2.979   8.448
20681WAT     H262286   9.760   3.070   8.435
20682WAT      O62287   1.265   9.103   4.682
20682WAT     H162288   1.317   9.145   4.756
20682WAT     H262289   1.314   9.022   4.649
20683WAT      O62290   8.564   0.700   1.097
20683WAT     H162291   8.603   0.763   1.164
20683WAT     H262292   8.635   0.640   1.062
20684WAT      O62293   4.071   2.693   1.357
20684WAT     H162294   4.032   2.781   1.382
20684WAT     H262295   4.171   2.697   1.364
20685WAT      O62296   1.848   0.601   9.168
20685WAT     H162297   1.827   0.578   9.073
20685WAT     H262298   1.815   0.693   9.188
20686WAT      O62299   0.842   0.013   9.517
20686WAT     H162300   0.803  -0.037   9.439
20686WAT     H262301   0.933   0.046   9.492
20687WAT      O62302   2.869   7.094   4.502
20687WAT     H162303   2.938   7.109   4.431
20687WAT     H262304   2.796   7.036   4.466
20688WAT      O62305   6.205   1.368   0.462
20688WAT     H162306   6.153   1.421   0.395
20688WAT     H262307   6.286   1.329   0.419
20689WAT      O62308   3.307   7.584   2.653
20689WAT     H162309   3.376   7.524   2.695
20689WAT     H262310   3.235   7.529   2.612
20690WAT      O62311   4.817   4.985   7.258
20690WAT     H162312   4.770   4.955   7.174
20690WAT     H262313   4.775   5.069   7.291
20691WAT      O62314   9.483   1.427   5.716
20691WAT     H162315   9.545   1.372   5.660
20691WAT     H262316   9.535   1.498   5.764
20692WAT      O62317   7.742   5.616   4.883
20692WAT     H162318   7.643   5.617   4.896
20692WAT     H262319   7.763   5.566   4.799
20693WAT      O62320   6.460   2.449   3.928
20693WAT     H162321   6.541   2.447   3.868
20693WAT     H262322   6.444   2.543   3.957
20694WAT      O62323   5.951   6.902   2.654
20694WAT     H162324   5.872   6.961   2.674
20694WAT     H262325   5.938   6.858   2.565
20695WAT      O62326   8.952   8.990   9.545
20695WAT     H162327   8.951   8.918   9.614
20695WAT     H262328   8.900   9.069   9.577
20696WAT      O62329   7.536   3.334   3.719
20696WAT     H162330   7.543   3.372   3.627
20696WAT     H262331   7.441   3.335   3.749
20697WAT      O62332   7.229   4.030   8.609
20697WAT     H162333   7.192   4.105   8.553
20697WAT     H262334   7.304   3.986   8.559
20698WAT      O62335   1.767   4.900   7.351
20698WAT     H162336   1.792   4.877   7.257
20698WAT     H262337   1.668   4.915   7.357
20699WAT      O62338   9.345   6.286   9.404
20699WAT     H162339   9.264   6.247   9.448
20699WAT     H262340   9.421   6.221   9.412
20700WAT      O62341   3.154   3.739   1.168
20700WAT     H162342   3.087   3.669   1.194
20700WAT     H262343   3.152   3.752   1.069
20701WAT      O62344   8.531   8.348   6.651
20701WAT     H162345   8.629   8.326   6.659
20701WAT     H262346   8.501   8.397   6.733
20702WAT      O62347   5.013   0.026   5.614
20702WAT     H162348   4.964  -0.050   5.657
20702WAT     H262349   4.993   0.110   5.664
20703WAT      O62350   8.421   8.862   5.008
20703WAT     H162351   8.498   8.802   4.985
20703WAT     H262352   8.335   8.815   4.987
20704WAT      O62353   1.091   2.570   2.284
20704WAT     H162354   1.026   2.564   2.359
20704WAT     H262355   1.044   2.554   2.197
20705WAT      O62356   5.905   3.424   4.005
20705WAT     H162357   5.934   3.367   4.081
20705WAT     H262358   5.816   3.391   3.971
20706WAT      O62359   6.874   4.502   7.410
20706WAT     H162360   6.781   4.537   7.414
20706WAT     H262361   6.906   4.482   7.503
20707WAT      O62362   4.079   3.441   9.518
20707WAT     H162363   4.124   3.476   9.435
20707WAT     H262364   4.002   3.382   9.491
20708WAT      O62365   2.065   1.772   5.267
20708WAT     H162366   2.021   1.683   5.254
20708WAT     H262367   2.111   1.800   5.183
20709WAT      O62368   0.050   2.937   1.545
20709WAT     H162369  -0.006   3.014   1.575
20709WAT     H262370   0.145   2.964   1.539
20710WAT      O62371   4.758   5.333   5.236
20710WAT     H162372   4.747   5.248   5.184
20710WAT     H262373   4.826   5.320   5.308
20711WAT      O62374   8.834   1.975   1.330
20711WAT     H162375   8.827   2.074   1.335
20711WAT     H262376   8.784   1.934   1.407
20712WAT      O62377   8.560   4.964   8.517
20712WAT     H162378   8.491   4.930   8.582
20712WAT     H262379   8.538   4.929   8.426
20713WAT      O62380   0.975   6.688   8.649
20713WAT     H162381   1.061   6.658   8.689
20713WAT     H262382   0.965   6.648   8.557
20714WAT      O62383   6.319   5.973   6.617
20714WAT     H162384   6.364   5.904   6.673
20714WAT     H262385   6.271   5.928   6.541
20715WAT      O62386   2.632   3.341   0.766
20715WAT     H162387   2.623   3.259   0.823
20715WAT     H262388   2.729   3.361   0.752
20716WAT      O62389   5.753   8.856   6.665
20716WAT     H162390   5.838   8.803   6.657
20716WAT     H262391   5.751   8.927   6.595
20717WAT      O62392   7.264   1.157   0.407
20717WAT     H162393   7.229   1.201   0.325
20717WAT     H262394   7.360   1.182   0.420
20718WAT      O62395   2.304   9.484   8.374
20718WAT     H162396   2.284   9.539   8.455
20718WAT     H262397   2.400   9.455   8.377
20719WAT      O62398   6.361   5.166   3.068
20719WAT     H162399   6.315   5.239   3.017
20719WAT     H262400   6.428   5.121   3.008
20720WAT      O62401   3.859   2.813   4.477
20720WAT     H162402   3.877   2.874   4.555
20720WAT     H262403   3.771   2.768   4.490
20721WAT      O62404   2.157   7.117   1.110
20721WAT     H162405   2.204   7.166   1.036
20721WAT     H262406   2.124   7.029   1.076
20722WAT      O62407   9.524   7.770   8.843
20722WAT     H162408   9.568   7.696   8.894
20722WAT     H262409   9.570   7.857   8.864
20723WAT      O62410   2.539   4.045   3.535
20723WAT     H162411   2.602   3.968   3.543
20723WAT     H262412   2.577   4.114   3.472
20724WAT      O62413   0.179   6.476   0.786
20724WAT     H162414   0.108   6.478   0.716
20724WAT     H262415   0.172   6.558   0.842
20725WAT      O62416   4.105   5.017   0.067
20725WAT     H162417   4.190   5.005   0.118
20725WAT     H262418   4.027   4.998   0.127
20726WAT      O62419   5.392   9.559   9.137
20726WAT     H162420   5.306   9.593   9.175
20726WAT     H262421   5.424   9.624   9.068
20727WAT      O62422   3.941   3.335   2.953
20727WAT     H162423   3.910   3.354   3.046
20727WAT     H262424   4.018   3.395   2.930
20728WAT      O62425   7.191   7.348   8.820
20728WAT     H162426   7.145   7.259   8.828
20728WAT     H262427   7.199   7.372   8.723
20729WAT      O62428   5.526   2.548   6.744
20729WAT     H162429   5.577   2.469   6.709
20729WAT     H262430   5.496   2.605   6.668
20730WAT      O62431   4.387   8.302   2.775
20730WAT     H162432   4.421   8.314   2.681
20730WAT     H262433   4.455   8.336   2.840
20731WAT      O62434   3.368   4.695   5.446
20731WAT     H162435   3.355   4.681   5.348
20731WAT     H262436   3.285   4.735   5.485
20732WAT      O62437   2.815   2.094   1.574
20732WAT     H162438   2.812   2.152   1.655
20732WAT     H262439   2.909   2.063   1.559
20733WAT      O62440   0.541   4.133   3.402
20733WAT     H162441   0.558   4.231   3.406
20733WAT     H262442   0.506   4.102   3.491
20734WAT      O62443   3.401   1.805   7.512
20734WAT     H162444   3.417   1.886   7.568
20734WAT     H262445   3.336   1.826   7.439
20735WAT      O62446   2.296   2.368   0.036
20735WAT     H162447   2.301   2.428   0.116
20735WAT     H262448   2.209   2.320   0.035
20736WAT      O62449   8.574   1.550   4.439
20736WAT     H162450   8.503   1.565   4.371
20736WAT     H262451   8.560   1.460   4.482
20737WAT      O62452   8.203   3.976   7.760
20737WAT     H162453   8.274   3.984   7.690
20737WAT     H262454   8.239   4.006   7.848
20738WAT      O62455   6.842   0.598   6.307
20738WAT     H162456   6.884   0.525   6.253
20738WAT     H262457   6.865   0.586   6.403
20739WAT      O62458   9.129   4.607   5.977
20739WAT     H162459   9.160   4.578   5.886
20739WAT     H262460   9.128   4.528   6.038
20740WAT      O62461   8.135   0.712   4.033
20740WAT     H162462   8.134   0.794   4.089
20740WAT     H262463   8.199   0.645   4.072
20741WAT      O62464   7.768   3.892   4.470
20741WAT     H162465   7.792   3.951   4.393
20741WAT     H262466   7.672   3.906   4.494
20742WAT      O62467   1.980   5.180   6.818
20742WAT     H162468   2.071   5.182   6.777
20742WAT     H262469   1.988   5.177   6.917
20743WAT      O62470   1.674   9.283   4.540
20743WAT     H162471   1.577   9.304   4.530
20743WAT     H262472   1.690   9.186   4.520
20744WAT      O62473   1.490   3.875   4.764
20744WAT     H162474   1.489   3.868   4.664
20744WAT     H262475   1.565   3.935   4.792
20745WAT      O62476   8.268   2.059   0.555
20745WAT     H162477   8.179   2.105   0.561
20745WAT     H262478   8.286   2.035   0.459
20746WAT      O62479   8.062   0.435   4.687
20746WAT     H162480   8.153   0.442   4.727
20746WAT     H262481   7.993   0.440   4.759
20747WAT      O62482   6.011   0.742   6.112
20747WAT     H162483   6.030   0.654   6.067
20747WAT     H262484   6.097   0.791   6.126
20748WAT      O62485   7.557   2.971   9.881
20748WAT     H162486   7.552   2.938   9.786
20748WAT     H262487   7.651   2.963   9.914
20749WAT      O62488   7.174   3.998   0.154
20749WAT     H162489   7.119   3.930   0.203
20749WAT     H262490   7.267   3.963   0.141
20750WAT      O62491   8.333   7.358   8.439
20750WAT     H162492   8.367   7.295   8.509
20750WAT     H262493   8.355   7.452   8.465
20751WAT      O62494   2.739   8.808   0.250
20751WAT     H162495   2.665   8.741   0.248
20751WAT     H262496   2.775   8.821   0.157
20752WAT      O62497   3.842   8.986   5.646
20752WAT     H162498   3.860   8.903   5.698
20752WAT     H262499   3.790   9.051   5.702
20753WAT      O62500   5.467   6.768   1.738
20753WAT     H162501   5.414   6.684   1.752
20753WAT     H262502   5.539   6.752   1.671
20754WAT      O62503   5.153   1.503   7.091
20754WAT     H162504   5.103   1.454   7.020
20754WAT     H262505   5.174   1.595   7.059
20755WAT      O62506   3.455   1.255   8.582
20755WAT     H162507   3.372   1.203   8.563
20755WAT     H262508   3.462   1.332   8.518
20756WAT      O62509   8.211   7.370   4.191
20756WAT     H162510   8.269   7.451   4.187
20756WAT     H262511   8.236   7.308   4.117
20757WAT      O62512   5.925   6.976   4.583
20757WAT     H162513   6.005   7.027   4.614
20757WAT     H262514   5.859   6.968   4.659
20758WAT      O62515   9.358   3.681   1.527
20758WAT     H162516   9.360   3.593   1.575
20758WAT     H262517   9.408   3.673   1.441
20759WAT      O62518   0.147   3.458   7.683
20759WAT     H162519   0.216   3.423   7.746
20759WAT     H262520   0.092   3.382   7.649
20760WAT      O62521   1.924   2.633   5.479
20760WAT     H162522   1.972   2.718   5.497
20760WAT     H262523   1.841   2.652   5.427
20761WAT      O62524   6.031   7.749   3.093
20761WAT     H162525   6.083   7.674   3.053
20761WAT     H262526   6.029   7.826   3.030
20762WAT      O62527   6.444   5.027   1.588
20762WAT     H162528   6.529   5.058   1.631
20762WAT     H262529   6.366   5.060   1.640
20763WAT      O62530   1.919   4.134   2.282
20763WAT     H162531   1.932   4.065   2.210
20763WAT     H262532   1.824   4.131   2.313
20764WAT      O62533   2.115   8.010   3.361
20764WAT     H162534   2.199   7.957   3.361
20764WAT     H262535   2.076   8.011   3.453
20765WAT      O62536   2.296   2.830   9.095
20765WAT     H162537   2.357   2.906   9.120
20765WAT     H262538   2.203   2.852   9.125
20766WAT      O62539   3.729   8.701   1.754
20766WAT     H162540   3.639   8.700   1.711
20766WAT     H262541   3.722   8.663   1.847
20767WAT      O62542   3.915   6.076   9.346
20767WAT     H162543   3.824   6.070   9.387
20767WAT     H262544   3.907   6.075   9.246
20768WAT      O62545   9.370   1.000   4.204
20768WAT     H162546   9.384   0.901   4.201
20768WAT     H262547   9.292   1.021   4.264
20769WAT      O62548   8.149   8.905   3.380
20769WAT     H162549   8.121   8.976   3.445
20769WAT     H262550   8.213   8.944   3.314
20770WAT      O62551   1.592   7.962   1.913
20770WAT     H162552   1.611   8.056   1.943
20770WAT     H262553   1.505   7.960   1.864
20771WAT      O62554   0.216   3.719   4.161
20771WAT     H162555   0.199   3.803   4.108
20771WAT     H262556   0.145   3.652   4.141
20772WAT      O62557   9.875   7.570   1.827
20772WAT     H162558   9.788   7.549   1.873
20772WAT     H262559   9.899   7.496   1.765
20773WAT      O62560   6.801   8.815   8.264
20773WAT     H162561   6.704   8.824   8.239
20773WAT     H262562   6.818   8.866   8.349
20774WAT      O62563   9.338   1.555   8.036
20774WAT     H162564   9.415   1.610   8.069
20774WAT     H262565   9.363   1.512   7.950
20775WAT      O62566   7.114   9.530   1.764
20775WAT     H162567   7.024   9.529   1.808
20775WAT     H262568   7.171   9.600   1.807
20776WAT      O62569   8.964   5.439   2.179
20776WAT     H162570   8.943   5.530   2.214
20776WAT     H262571   8.914   5.424   2.094
20777WAT      O62572   5.722   5.866   6.936
20777WAT     H162573   5.691   5.804   6.864
20777WAT     H262574   5.728   5.816   7.023
20778WAT      O62575   3.796   5.517   3.589
20778WAT     H162576   3.843   5.510   3.501
20778WAT     H262577   3.799   5.612   3.621
20779WAT      O62578   2.761   0.514   8.756
20779WAT     H162579   2.844   0.462   8.778
20779WAT     H262580   2.715   0.471   8.678
20780WAT      O62581   5.401   4.840   8.236
20780WAT     H162582   5.451   4.807   8.316
20780WAT     H262583   5.362   4.762   8.187
20781WAT      O62584   7.929   6.595   1.774
20781WAT     H162585   7.967   6.675   1.820
20781WAT     H262586   7.830   6.594   1.785
20782WAT      O62587   0.017   4.858   4.786
20782WAT     H162588   0.035   4.759   4.786
20782WAT     H262589   0.079   4.903   4.722
20783WAT      O62590   4.540   1.810   0.433
20783WAT     H162591   4.602   1.880   0.470
20783WAT     H262592   4.591   1.750   0.372
20784WAT      O62593   5.707   4.412   7.199
20784WAT     H162594   5.649   4.394   7.279
20784WAT     H262595   5.803   4.406   7.226
20785WAT      O62596   2.987   5.275   1.646
20785WAT     H162597   3.067   5.292   1.587
20785WAT     H262598   2.990   5.181   1.679
20786WAT      O62599   5.835   3.321   1.274
20786WAT     H162600   5.802   3.239   1.321
20786WAT     H262601   5.761   3.389   1.270
20787WAT      O62602   9.024   7.886   2.669
20787WAT     H162603   9.014   7.815   2.740
20787WAT     H262604   9.120   7.914   2.664
20788WAT      O62605   1.966   1.099   0.901
20788WAT     H162606   2.034   1.166   0.932
20788WAT     H262607   2.011   1.030   0.843
20789WAT      O62608   5.872   8.939   1.986
20789WAT     H162609   5.926   8.914   1.905
20789WAT     H262610   5.883   8.867   2.055
20790WAT      O62611   2.391   7.400   4.053
20790WAT     H162612   2.366   7.438   4.142
20790WAT     H262613   2.313   7.351   4.015
20791WAT      O62614   0.442   3.162   7.351
20791WAT     H162615   0.403   3.216   7.425
20791WAT     H262616   0.534   3.132   7.377
20792WAT      O62617   1.850   7.047   9.340
20792WAT     H162618   1.825   7.120   9.277
20792WAT     H262619   1.940   7.066   9.379
20793WAT      O62620   4.761   4.093   9.222
20793WAT     H162621   4.809   4.102   9.135
20793WAT     H262622   4.682   4.034   9.210
20794WAT      O62623   2.644   5.986   4.979
20794WAT     H162624   2.718   5.978   4.913
20794WAT     H262625   2.581   6.058   4.950
20795WAT      O62626   9.848   5.887   7.767
20795WAT     H162627   9.845   5.796   7.726
20795WAT     H262628   9.886   5.952   7.701
20796WAT      O62629   3.057   4.321   5.633
20796WAT     H162630   2.985   4.285   5.574
20796WAT     H262631   3.146   4.303   5.593
20797WAT      O62632   4.481   1.540   3.132
20797WAT     H162633   4.470   1.564   3.035
20797WAT     H262634   4.576   1.515   3.150
20798WAT      O62635   9.847   5.797   2.550
20798WAT     H162636   9.832   5.713   2.603
20798WAT     H262637   9.858   5.774   2.454
20799WAT      O62638   1.477   2.390   3.818
20799WAT     H162639   1.449   2.338   3.738
20799WAT     H262640   1.417   2.369   3.895
20800WAT      O62641   3.102   5.818   6.747
20800WAT     H162642   3.006   5.795   6.764
20800WAT     H262643   3.161   5.742   6.777
20801WAT      O62644   2.457   3.114   4.695
20801WAT     H162645   2.501   3.185   4.750
20801WAT     H262646   2.506   3.103   4.609
20802WAT      O62647   5.594   4.750   1.633
20802WAT     H162648   5.506   4.718   1.600
20802WAT     H262649   5.592   4.849   1.643
20803WAT      O62650   7.619   8.877   6.280
20803WAT     H162651   7.565   8.932   6.344
20803WAT     H262652   7.561   8.805   6.242
20804WAT      O62653   1.601   1.791   2.336
20804WAT     H162654   1.587   1.696   2.365
20804WAT     H262655   1.549   1.809   2.253
20805WAT      O62656   9.874   2.138   2.882
20805WAT     H162657   9.835   2.204   2.818
20805WAT     H262658   9.961   2.173   2.918
20806WAT      O62659   9.557   9.315   9.851
20806WAT     H162660   9.538   9.223   9.885
20806WAT     H262661   9.648   9.316   9.808
20807WAT      O62662   9.147   2.288   1.980
20807WAT     H162663   9.088   2.315   2.056
20807WAT     H262664   9.094   2.234   1.914
20808WAT      O62665   6.679   6.958   3.603
20808WAT     H162666   6.714   7.011   3.680
20808WAT     H262667   6.755   6.933   3.543
20809WAT      O62668   3.580   7.580   7.265
20809WAT     H162669   3.523   7.579   7.346
20809WAT     H262670   3.675   7.559   7.290
20810WAT      O62671   6.661   8.745   2.166
20810WAT     H162672   6.737   8.702   2.118
20810WAT     H262673   6.675   8.844   2.169
20811WAT      O62674   1.381   6.157   4.482
20811WAT     H162675   1.327   6.160   4.398
20811WAT     H262676   1.395   6.250   4.516
20812WAT      O62677   9.535   2.937   4.715
20812WAT     H162678   9.556   3.035   4.711
20812WAT     H262679   9.554   2.903   4.807
20813WAT      O62680   0.291   6.054   3.089
20813WAT     H162681   0.302   6.041   3.188
20813WAT     H262682   0.340   6.136   3.060
20814WAT      O62683   0.786   1.485   7.384
20814WAT     H162684   0.833   1.448   7.304
20814WAT     H262685   0.780   1.414   7.455
20815WAT      O62686   3.945   3.752   6.699
20815WAT     H162687   4.024   3.695   6.721
20815WAT     H262688   3.957   3.842   6.741
20816WAT      O62689   9.861   7.591   2.330
20816WAT     H162690   9.906   7.669   2.285
20816WAT     H262691   9.765   7.615   2.349
20817WAT      O62692   2.464   5.638   1.506
20817WAT     H162693   2.488   5.595   1.419
20817WAT     H262694   2.370   5.615   1.530
20818WAT      O62695   1.937   5.337   7.510
20818WAT     H162696   1.905   5.316   7.418
20818WAT     H262697   1.891   5.418   7.544
20819WAT      O62698   5.568   7.726   9.520
20819WAT     H162699   5.536   7.804   9.574
20819WAT     H262700   5.507   7.711   9.443
20820WAT      O62701   7.599   4.048   5.322
20820WAT     H162702   7.593   3.950   5.299
20820WAT     H262703   7.643   4.058   5.411
20821WAT      O62704   5.560   1.748   6.913
20821WAT     H162705   5.614   1.674   6.953
20821WAT     H262706   5.517   1.717   6.828
20822WAT      O62707   0.627   0.747   7.830
20822WAT     H162708   0.586   0.816   7.771
20822WAT     H262709   0.691   0.691   7.777
20823WAT      O62710   0.291   1.790   4.406
20823WAT     H162711   0.313   1.759   4.499
20823WAT     H262712   0.222   1.862   4.411
20824WAT      O62713   3.680   8.181   5.170
20824WAT     H162714   3.657   8.095   5.213
20824WAT     H262715   3.604   8.211   5.112
20825WAT      O62716   4.173   6.038   4.310
20825WAT     H162717   4.254   6.062   4.364
20825WAT     H262718   4.116   5.974   4.362
20826WAT      O62719   2.821   8.938   8.075
20826WAT     H162720   2.768   8.875   8.131
20826WAT     H262721   2.761   9.007   8.036
20827WAT      O62722   1.913   1.808   1.468
20827WAT     H162723   1.931   1.899   1.505
20827WAT     H262724   1.891   1.815   1.371
20828WAT      O62725   5.542   6.510   5.011
20828WAT     H162726   5.453   6.465   5.013
20828WAT     H262727   5.603   6.460   4.949
20829WAT      O62728   7.261   0.342   4.967
20829WAT     H162729   7.214   0.324   4.881
20829WAT     H262730   7.331   0.413   4.953
20830WAT      O62731   0.401   5.594   2.503
20830WAT     H162732   0.338   5.579   2.426
20830WAT     H262733   0.411   5.509   2.554
20831WAT      O62734   3.531   3.455   2.333
20831WAT     H162735   3.610   3.412   2.377
20831WAT     H262736   3.481   3.510   2.400
20832WAT      O62737   5.918   6.355   8.621
20832WAT     H162738   5.950   6.308   8.539
20832WAT     H262739   5.948   6.450   8.618
20833WAT      O62740   3.212   6.324   3.600
20833WAT     H162741   3.251   6.343   3.690
20833WAT     H262742   3.152   6.400   3.573
20834WAT      O62743   4.630   3.547   5.237
20834WAT     H162744   4.612   3.619   5.170
20834WAT     H262745   4.550   3.533   5.294
20835WAT      O62746   0.507   2.432   3.332
20835WAT     H162747   0.543   2.391   3.416
20835WAT     H262748   0.576   2.426   3.260
20836WAT      O62749   8.050   4.672   6.713
20836WAT     H162750   8.143   4.649   6.687
20836WAT     H262751   8.051   4.725   6.798
20837WAT      O62752   2.004   4.769   5.267
20837WAT     H162753   1.993   4.713   5.349
20837WAT     H262754   2.092   4.747   5.224
20838WAT      O62755   3.102   3.003   2.620
20838WAT     H162756   3.148   2.975   2.704
20838WAT     H262757   3.114   3.102   2.606
20839WAT      O62758   3.014   5.603   8.229
20839WAT     H162759   3.091   5.598   8.165
20839WAT     H262760   3.001   5.513   8.271
20840WAT      O62761   4.812   1.206   0.037
20840WAT     H162762   4.881   1.271   0.007
20840WAT     H262763   4.831   1.177   0.131
20841WAT      O62764   6.462   0.101   0.727
20841WAT     H162765   6.446   0.198   0.711
20841WAT     H262766   6.430   0.077   0.819
20842WAT      O62767   0.866   1.636   1.316
20842WAT     H162768   0.874   1.657   1.413
20842WAT     H262769   0.918   1.553   1.296
20843WAT      O62770   7.714   9.827   2.039
20843WAT     H162771   7.648   9.777   2.095
20843WAT     H262772   7.774   9.880   2.098
20844WAT      O62773   5.361   0.613   6.034
20844WAT     H162774   5.307   0.633   5.952
20844WAT     H262775   5.448   0.570   6.007
20845WAT      O62776   7.723   0.729   2.904
20845WAT     H162777   7.726   0.806   2.841
20845WAT     H262778   7.727   0.643   2.853
20846WAT      O62779   3.432   3.971   0.385
20846WAT     H162780   3.419   3.874   0.361
20846WAT     H262781   3.344   4.019   0.376
20847WAT      O62782   0.165   7.303   5.139
20847WAT     H162783   0.095   7.325   5.071
20847WAT     H262784   0.127   7.315   5.231
20848WAT      O62785   6.293   1.284   9.491
20848WAT     H162786   6.366   1.338   9.449
20848WAT     H262787   6.220   1.346   9.521
20849WAT      O62788   8.745   7.825   3.850
20849WAT     H162789   8.762   7.822   3.948
20849WAT     H262790   8.808   7.764   3.803
20850WAT      O62791   8.035   2.119   4.337
20850WAT     H162792   8.012   2.180   4.412
20850WAT     H262793   8.092   2.167   4.270
20851WAT      O62794   2.477   0.396   6.120
20851WAT     H162795   2.395   0.450   6.101
20851WAT     H262796   2.555   0.457   6.133
20852WAT      O62797   7.935   1.034   5.869
20852WAT     H162798   7.907   0.942   5.895
20852WAT     H262799   7.909   1.051   5.774
20853WAT      O62800   1.148   6.716   7.162
20853WAT     H162801   1.091   6.667   7.097
20853WAT     H262802   1.099   6.798   7.193
20854WAT      O62803   1.224   7.416   6.619
20854WAT     H162804   1.272   7.333   6.588
20854WAT     H262805   1.276   7.459   6.693
20855WAT      O62806   8.265   5.531   8.417
20855WAT     H162807   8.195   5.602   8.425
20855WAT     H262808   8.334   5.544   8.489
20856WAT      O62809   9.827   5.950   9.479
20856WAT     H162810   9.867   5.860   9.460
20856WAT     H262811   9.779   5.982   9.398
20857WAT      O62812   5.498   6.033   8.258
20857WAT     H162813   5.445   5.951   8.241
20857WAT     H262814   5.463   6.081   8.339
20858WAT      O62815   2.048   0.899   9.419
20858WAT     H162816   2.041   0.818   9.477
20858WAT     H262817   2.019   0.980   9.470
20859WAT      O62818   0.426   8.377   7.590
20859WAT     H162819   0.474   8.450   7.541
20859WAT     H262820   0.375   8.321   7.525
20860WAT      O62821   2.038   0.014   4.329
20860WAT     H162822   2.085  -0.072   4.310
20860WAT     H262823   2.085   0.061   4.404
20861WAT      O62824   8.123   8.908   8.400
20861WAT     H162825   8.211   8.936   8.361
20861WAT     H262826   8.136   8.826   8.455
20862WAT      O62827   0.403   3.643   8.323
20862WAT     H162828   0.386   3.603   8.413
20862WAT     H262829   0.357   3.588   8.253
20863WAT      O62830   7.404   0.902   0.793
20863WAT     H162831   7.317   0.950   0.808
20863WAT     H262832   7.401   0.813   0.839
20864WAT      O62833   4.294   8.747   2.909
20864WAT     H162834   4.392   8.730   2.907
20864WAT     H262835   4.272   8.807   2.986
20865WAT      O62836   7.168   4.875   4.829
20865WAT     H162837   7.167   4.775   4.831
20865WAT     H262838   7.156   4.907   4.735
20866WAT      O62839   6.264   2.388   9.709
20866WAT     H162840   6.319   2.307   9.726
20866WAT     H262841   6.247   2.437   9.795
20867WAT      O62842   0.759   6.996   9.417
20867WAT     H162843   0.703   7.053   9.356
20867WAT     H262844   0.699   6.941   9.476
20868WAT      O62845   7.892   1.213   6.091
20868WAT     H162846   7.987   1.237   6.108
20868WAT     H262847   7.887   1.139   6.024
20869WAT      O62848   0.041   0.677   1.867
20869WAT     H162849   0.049   0.772   1.897
20869WAT     H262850  -0.013   0.673   1.782
20870WAT      O62851   8.048   4.923   3.477
20870WAT     H162852   8.027   4.963   3.388
20870WAT     H262853   7.963   4.910   3.528
20871WAT      O62854   4.895   8.041   3.394
20871WAT     H162855   4.856   8.035   3.302
20871WAT     H262856   4.930   7.952   3.421
20872WAT      O62857   4.142   0.870   8.047
20872WAT     H162858   4.148   0.969   8.035
20872WAT     H262859   4.057   0.847   8.094
20873WAT      O62860   4.545   6.505   6.874
20873WAT     H162861   4.540   6.605   6.865
20873WAT     H262862   4.475   6.463   6.817
20874WAT      O62863   9.886   7.975   1.518
20874WAT     H162864   9.856   7.915   1.443
20874WAT     H262865   9.961   7.932   1.568
20875WAT      O62866   0.624   8.452   3.073
20875WAT     H162867   0.693   8.472   3.143
20875WAT     H262868   0.584   8.537   3.040
20876WAT      O62869   8.040   7.342   1.219
20876WAT     H162870   8.007   7.410   1.153
20876WAT     H262871   8.020   7.373   1.312
20877WAT      O62872   7.820   8.972   4.364
20877WAT     H162873   7.750   9.013   4.304
20877WAT     H262874   7.834   9.032   4.443
20878WAT      O62875   5.806   2.852   1.764
20878WAT     H162876   5.785   2.948   1.784
20878WAT     H262877   5.721   2.801   1.754
20879WAT      O62878   4.976   3.975   0.292
20879WAT     H162879   5.013   3.901   0.236
20879WAT     H262880   4.998   4.063   0.250
20880WAT      O62881   4.841   4.290   9.384
20880WAT     H162882   4.938   4.287   9.409
20880WAT     H262883   4.820   4.213   9.323
20881WAT      O62884   6.625   8.722   5.119
20881WAT     H162885   6.626   8.702   5.217
20881WAT     H262886   6.714   8.756   5.090
20882WAT      O62887   3.450   4.496   3.130
20882WAT     H162888   3.422   4.420   3.189
20882WAT     H262889   3.433   4.471   3.034
20883WAT      O62890   5.860   3.382   0.679
20883WAT     H162891   5.917   3.300   0.692
20883WAT     H262892   5.916   3.464   0.692
20884WAT      O62893   0.237   0.580   3.667
20884WAT     H162894   0.189   0.667   3.678
20884WAT     H262895   0.314   0.576   3.730
20885WAT      O62896   4.511   3.657   4.479
20885WAT     H162897   4.520   3.569   4.431
20885WAT     H262898   4.417   3.668   4.510
20886WAT      O62899   3.892   1.703   5.640
20886WAT     H162900   3.911   1.633   5.709
20886WAT     H262901   3.825   1.768   5.676
20887WAT      O62902   5.490   2.808   6.475
20887WAT     H162903   5.438   2.826   6.559
20887WAT     H262904   5.449   2.731   6.426
20888WAT      O62905   2.399   6.139   0.824
20888WAT     H162906   2.430   6.045   0.805
20888WAT     H262907   2.345   6.140   0.908
20889WAT      O62908   3.374   6.969   5.242
20889WAT     H162909   3.409   6.980   5.335
20889WAT     H262910   3.283   7.010   5.237
20890WAT      O62911   2.017   3.628   4.163
20890WAT     H162912   2.080   3.554   4.189
20890WAT     H262913   1.925   3.605   4.194
20891WAT      O62914   9.202   7.420   1.295
20891WAT     H162915   9.281   7.481   1.300
20891WAT     H262916   9.148   7.443   1.214
20892WAT      O62917   2.816   6.998   5.759
20892WAT     H162918   2.729   6.956   5.783
20892WAT     H262919   2.807   7.046   5.672
20893WAT      O62920   8.101   4.503   4.059
20893WAT     H162921   8.142   4.494   4.149
20893WAT     H262922   8.172   4.523   3.991
20894WAT      O62923   3.107   1.862   4.104
20894WAT     H162924   3.087   1.766   4.083
20894WAT     H262925   3.206   1.875   4.110
20895WAT      O62926   8.039   2.685   1.759
20895WAT     H162927   7.987   2.674   1.844
20895WAT     H262928   7.977   2.706   1.684
20896WAT      O62929   9.183   4.425   5.214
20896WAT     H162930   9.165   4.475   5.129
20896WAT     H262931   9.253   4.356   5.197
20897WAT      O62932   5.028   6.065   2.403
20897WAT     H162933   4.951   6.010   2.435
20897WAT     H262934   5.089   6.008   2.347
20898WAT      O62935   0.505   2.956   6.129
20898WAT     H162936   0.505   2.996   6.220
20898WAT     H262937   0.504   3.028   6.060
20899WAT      O62938   8.251   4.062   2.858
20899WAT     H162939   8.281   4.067   2.763
20899WAT     H262940   8.300   4.131   2.912
20900WAT      O62941   2.650   2.140   1.064
20900WAT     H162942   2.591   2.220   1.063
20900WAT     H262943   2.610   2.069   1.123
20901WAT      O62944   8.987   1.587   5.622
20901WAT     H162945   8.900   1.603   5.671
20901WAT     H262946   9.040   1.517   5.671
20902WAT      O62947   5.393   4.281   4.693
20902WAT     H162948   5.428   4.264   4.601
20902WAT     H262949   5.355   4.374   4.698
20903WAT      O62950   3.433   2.235   2.868
20903WAT     H162951   3.435   2.230   2.968
20903WAT     H262952   3.427   2.331   2.839
20904WAT      O62953   5.479   2.686   4.656
20904WAT     H162954   5.397   2.679   4.713
20904WAT     H262955   5.453   2.711   4.563
20905WAT      O62956   1.301   8.202   7.031
20905WAT     H162957   1.243   8.141   6.977
20905WAT     H262958   1.338   8.273   6.971
20906WAT      O62959   6.996   4.950   8.496
20906WAT     H162960   6.907   4.973   8.458
20906WAT     H262961   7.036   5.031   8.540
20907WAT      O62962   4.640   7.840   6.097
20907WAT     H162963   4.696   7.890   6.163
20907WAT     H262964   4.619   7.899   6.019
20908WAT      O62965   9.669   2.396   1.690
20908WAT     H162966   9.630   2.329   1.753
20908WAT     H262967   9.747   2.442   1.733
20909WAT      O62968   3.880   8.437   0.599
20909WAT     H162969   3.892   8.364   0.667
20909WAT     H262970   3.789   8.476   0.609
20910WAT      O62971   8.692   9.342   0.231
20910WAT     H162972   8.671   9.429   0.274
20910WAT     H262973   8.665   9.267   0.292
20911WAT      O62974   4.231   2.526   7.584
20911WAT     H162975   4.282   2.612   7.583
20911WAT     H262976   4.259   2.472   7.664
20912WAT      O62977   1.213   7.630   2.818
20912WAT     H162978   1.144   7.661   2.752
20912WAT     H262979   1.304   7.643   2.778
20913WAT      O62980   6.536   0.370   5.496
20913WAT     H162981   6.561   0.441   5.562
20913WAT     H262982   6.446   0.390   5.458
20914WAT      O62983   6.215   5.454   6.764
20914WAT     H162984   6.146   5.522   6.739
20914WAT     H262985   6.241   5.401   6.683
20915WAT      O62986   3.432   2.973   7.905
20915WAT     H162987   3.365   3.036   7.945
20915WAT     H262988   3.518   3.022   7.889
20916WAT      O62989   1.533   5.316   2.469
20916WAT     H162990   1.624   5.278   2.487
20916WAT     H262991   1.514   5.389   2.535
20917WAT      O62992   7.177   6.293   8.400
20917WAT     H162993   7.269   6.330   8.389
20917WAT     H262994   7.130   6.342   8.474
20918WAT      O62995   8.513   4.894   4.631
20918WAT     H162996   8.608   4.912   4.605
20918WAT     H262997   8.485   4.957   4.703
20919WAT      O62998   4.569   5.586   5.880
20919WAT     H162999   4.560   5.490   5.907
20919WAT     H263000   4.666   5.612   5.881
20920WAT      O63001   7.102   1.974   7.665
20920WAT     H163002   7.097   1.943   7.570
20920WAT     H263003   7.025   2.035   7.684
20921WAT      O63004   8.044   7.504   1.455
20921WAT     H163005   8.018   7.600   1.458
20921WAT     H263006   8.139   7.496   1.425
20922WAT      O63007   5.967   7.562   2.005
20922WAT     H163008   5.968   7.656   2.040
20922WAT     H263009   5.880   7.545   1.959
20923WAT      O63010   7.923   5.601   3.010
20923WAT     H163011   7.925   5.518   2.954
20923WAT     H263012   7.959   5.581   3.101
20924WAT      O63013   3.654   6.494   7.377
20924WAT     H163014   3.709   6.530   7.301
20924WAT     H263015   3.710   6.492   7.460
20925WAT      O63016   0.099   7.527   3.751
20925WAT     H163017   0.001   7.523   3.729
20925WAT     H263018   0.116   7.603   3.814
20926WAT      O63019   3.180   0.357   0.422
20926WAT     H163020   3.206   0.434   0.480
20926WAT     H263021   3.099   0.312   0.460
20927WAT      O63022   0.940   0.361   9.127
20927WAT     H163023   1.027   0.316   9.147
20927WAT     H263024   0.890   0.307   9.060
20928WAT      O63025   0.346   5.821   5.544
20928WAT     H163026   0.338   5.867   5.455
20928WAT     H263027   0.443   5.815   5.569
20929WAT      O63028   4.700   1.116   4.983
20929WAT     H163029   4.714   1.214   4.976
20929WAT     H263030   4.618   1.090   4.932
20930WAT      O63031   1.122   6.743   4.462
20930WAT     H163032   1.081   6.803   4.394
20930WAT     H263033   1.199   6.695   4.421
20931WAT      O63034   7.635   6.021   9.837
20931WAT     H163035   7.614   6.087   9.909
20931WAT     H263036   7.551   6.001   9.785
20932WAT      O63037   0.546   2.372   7.180
20932WAT     H163038   0.641   2.358   7.207
20932WAT     H263039   0.504   2.440   7.240
20933WAT      O63040   9.859   9.034   9.692
20933WAT     H163041   9.810   9.092   9.627
20933WAT     H263042   9.884   8.948   9.648
20934WAT      O63043   9.550   6.854   0.649
20934WAT     H163044   9.494   6.774   0.629
20934WAT     H263045   9.601   6.881   0.567
20935WAT      O63046   6.404   1.469   3.783
20935WAT     H163047   6.388   1.478   3.684
20935WAT     H263048   6.419   1.560   3.822
20936WAT      O63049   9.063   9.445   8.798
20936WAT     H163050   9.131   9.517   8.784
20936WAT     H263051   8.972   9.484   8.794
20937WAT      O63052   7.480   4.322   0.243
20937WAT     H163053   7.500   4.400   0.184
20937WAT     H263054   7.542   4.246   0.220
20938WAT      O63055   6.781   2.515   5.210
20938WAT     H163056   6.751   2.547   5.300
20938WAT     H263057   6.822   2.425   5.218
20939WAT      O63058   8.601   4.253   2.216
20939WAT     H163059   8.684   4.307   2.218
20939WAT     H263060   8.542   4.284   2.141
20940WAT      O63061   4.397   6.209   8.537
20940WAT     H163062   4.468   6.269   8.573
20940WAT     H263063   4.436   6.119   8.519
20941WAT      O63064   1.709   9.744   4.680
20941WAT     H163065   1.788   9.782   4.728
20941WAT     H263066   1.712   9.772   4.584
20942WAT      O63067   4.416   5.300   0.994
20942WAT     H163068   4.454   5.381   1.038
20942WAT     H263069   4.337   5.326   0.938
20943WAT      O63070   6.549   7.827   4.118
20943WAT     H163071   6.561   7.890   4.042
20943WAT     H263072   6.452   7.824   4.144
20944WAT      O63073   9.069   5.816   7.449
20944WAT     H163074   8.988   5.832   7.393
20944WAT     H263075   9.046   5.832   7.545
20945WAT      O63076   4.688   7.253   8.087
20945WAT     H163077   4.690   7.353   8.081
20945WAT     H263078   4.781   7.218   8.097
20946WAT      O63079   0.663   6.051   8.303
20946WAT     H163080   0.618   6.141   8.301
20946WAT     H263081   0.737   6.050   8.235
20947WAT      O63082   5.696   4.031   3.138
20947WAT     H163083   5.630   4.013   3.212
20947WAT     H263084   5.709   3.948   3.084
20948WAT      O63085   6.224   4.362   3.341
20948WAT     H163086   6.243   4.269   3.311
20948WAT     H263087   6.305   4.420   3.325
20949WAT      O63088   0.126   9.097   4.972
20949WAT     H163089   0.184   9.032   5.022
20949WAT     H263090   0.074   9.153   5.037
20950WAT      O63091   2.155   0.183   6.207
20950WAT     H163092   2.168   0.125   6.127
20950WAT     H263093   2.095   0.260   6.183
20951WAT      O63094   9.194   6.803   4.936
20951WAT     H163095   9.184   6.709   4.905
20951WAT     H263096   9.232   6.804   5.029
20952WAT      O63097   7.875   9.342   3.927
20952WAT     H163098   7.815   9.376   4.000
20952WAT     H263099   7.894   9.245   3.942
20953WAT      O63100   3.839   3.862   1.381
20953WAT     H163101   3.800   3.900   1.465
20953WAT     H263102   3.914   3.919   1.350
20954WAT      O63103   7.368   1.763   9.343
20954WAT     H163104   7.444   1.701   9.363
20954WAT     H263105   7.403   1.842   9.292
20955WAT      O63106   7.478   9.451   1.630
20955WAT     H163107   7.553   9.422   1.689
20955WAT     H263108   7.392   9.410   1.662
20956WAT      O63109   9.365   3.214   8.134
20956WAT     H163110   9.416   3.209   8.220
20956WAT     H263111   9.277   3.259   8.150
20957WAT      O63112   8.921   5.032   8.445
20957WAT     H163113   8.953   5.109   8.390
20957WAT     H263114   8.959   5.039   8.538
20958WAT      O63115   7.727   2.727   4.603
20958WAT     H163116   7.793   2.767   4.666
20958WAT     H263117   7.770   2.650   4.556
20959WAT      O63118   2.214   5.239   6.688
20959WAT     H163119   2.243   5.289   6.606
20959WAT     H263120   2.277   5.164   6.706
20960WAT      O63121   6.361   8.330   1.652
20960WAT     H163122   6.288   8.353   1.588
20960WAT     H263123   6.386   8.411   1.706
20961WAT      O63124   8.156   0.561   6.607
20961WAT     H163125   8.160   0.472   6.560
20961WAT     H263126   8.238   0.573   6.663
20962WAT      O63127   9.022   7.015   8.910
20962WAT     H163128   8.981   7.057   8.992
20962WAT     H263129   9.066   7.087   8.855
20963WAT      O63130   2.459   9.258   1.587
20963WAT     H163131   2.380   9.243   1.645
20963WAT     H263132   2.440   9.334   1.524
20964WAT      O63133   7.478   0.847   2.634
20964WAT     H163134   7.414   0.911   2.675
20964WAT     H263135   7.572   0.873   2.658
20965WAT      O63136   0.351   6.245   9.802
20965WAT     H163137   0.360   6.345   9.797
20965WAT     H263138   0.330   6.209   9.711
20966WAT      O63139   8.776   9.572   4.288
20966WAT     H163140   8.861   9.527   4.262
20966WAT     H263141   8.705   9.549   4.221
20967WAT      O63142   5.529   4.015   4.228
20967WAT     H163143   5.515   4.021   4.326
20967WAT     H263144   5.458   3.958   4.187
20968WAT      O63145   9.641   2.685   6.713
20968WAT     H163146   9.569   2.645   6.656
20968WAT     H263147   9.600   2.736   6.788
20969WAT      O63148   5.753   7.706   1.331
20969WAT     H163149   5.787   7.665   1.416
20969WAT     H263150   5.818   7.774   1.298
20970WAT      O63151   0.481   7.334   4.123
20970WAT     H163152   0.424   7.253   4.110
20970WAT     H263153   0.426   7.408   4.161
20971WAT      O63154   5.878   6.218   5.454
20971WAT     H163155   5.974   6.219   5.425
20971WAT     H263156   5.824   6.168   5.386
20972WAT      O63157   9.437   9.098   9.065
20972WAT     H163158   9.535   9.112   9.051
20972WAT     H263159   9.423   9.041   9.146
20973WAT      O63160   3.236   0.056   2.266
20973WAT     H163161   3.271   0.070   2.173
20973WAT     H263162   3.179   0.133   2.292
20974WAT      O63163   0.458   4.152   0.623
20974WAT     H163164   0.536   4.103   0.662
20974WAT     H263165   0.423   4.218   0.689
20975WAT      O63166   0.579   8.623   5.383
20975WAT     H163167   0.627   8.674   5.454
20975WAT     H263168   0.511   8.564   5.425
20976WAT      O63169   4.995   8.997   9.693
20976WAT     H163170   4.977   9.095   9.699
20976WAT     H263171   4.913   8.946   9.717
20977WAT      O63172   3.905   3.047   9.216
20977WAT     H163173   3.872   2.969   9.164
20977WAT     H263174   3.982   3.019   9.274
20978WAT      O63175   0.372   6.520   4.449
20978WAT     H163176   0.296   6.578   4.420
20978WAT     H263177   0.414   6.478   4.368
20979WAT      O63178   8.212   4.344   8.164
20979WAT     H163179   8.134   4.401   8.188
20979WAT     H263180   8.256   4.380   8.081
20980WAT      O63181   1.984   4.589   2.999
20980WAT     H163182   2.039   4.548   2.927
20980WAT     H263183   1.893   4.547   3.000
20981WAT      O63184   8.662   5.844   5.664
20981WAT     H163185   8.706   5.773   5.610
20981WAT     H263186   8.606   5.802   5.735
20982WAT      O63187   7.736   5.705   8.379
20982WAT     H163188   7.747   5.627   8.318
20982WAT     H263189   7.727   5.789   8.325
20983WAT      O63190   0.454   8.244   3.614
20983WAT     H163191   0.428   8.317   3.677
20983WAT     H263192   0.553   8.246   3.600
20984WAT      O63193   6.056   0.071   8.201
20984WAT     H163194   6.093   0.058   8.293
20984WAT     H263195   5.964   0.032   8.196
20985WAT      O63196   0.429   8.029   2.971
20985WAT     H163197   0.487   8.107   2.994
20985WAT     H263198   0.485   7.955   2.936
20986WAT      O63199   1.332   0.752   9.850
20986WAT     H163200   1.265   0.804   9.795
20986WAT     H263201   1.410   0.727   9.793
20987WAT      O63202   0.993   8.093   5.776
20987WAT     H163203   1.010   8.025   5.705
20987WAT     H263204   0.921   8.156   5.746
20988WAT      O63205   0.212   8.913   7.814
20988WAT     H163206   0.237   8.877   7.903
20988WAT     H263207   0.114   8.899   7.798
20989WAT      O63208   6.868   3.615   1.770
20989WAT     H163209   6.878   3.556   1.691
20989WAT     H263210   6.944   3.599   1.834
20990WAT      O63211   0.785   7.115   8.222
20990WAT     H163212   0.828   7.025   8.220
20990WAT     H263213   0.766   7.141   8.317
20991WAT      O63214   6.230   1.255   4.427
20991WAT     H163215   6.312   1.200   4.411
20991WAT     H263216   6.177   1.263   4.343
20992WAT      O63217   9.176   9.686   3.845
20992WAT     H163218   9.207   9.780   3.854
20992WAT     H263219   9.201   9.651   3.754
20993WAT      O63220   4.924   7.956   2.939
20993WAT     H163221   4.837   8.002   2.952
20993WAT     H263222   4.941   7.944   2.841
20994WAT      O63223   3.545   1.658   7.749
20994WAT     H163224   3.608   1.722   7.793
20994WAT     H263225   3.502   1.701   7.671
20995WAT      O63226   3.802   6.585   1.871
20995WAT     H163227   3.753   6.568   1.957
20995WAT     H263228   3.853   6.671   1.879
20996WAT      O63229   4.363   6.051   9.607
20996WAT     H163230   4.322   6.142   9.608
20996WAT     H263231   4.391   6.026   9.700
20997WAT      O63232   3.325   5.997   8.992
20997WAT     H163233   3.323   6.055   9.074
20997WAT     H263234   3.239   5.947   8.984
20998WAT      O63235   0.875   7.958   6.421
20998WAT     H163236   0.780   7.928   6.410
20998WAT     H263237   0.910   7.988   6.333
20999WAT      O63238   3.858   2.734   3.697
20999WAT     H163239   3.760   2.719   3.708
20999WAT     H263240   3.909   2.655   3.732
21000WAT      O63241   4.543   1.851   4.849
21000WAT     H163242   4.510   1.875   4.758
21000WAT     H263243   4.601   1.924   4.884
21001WAT      O63244   3.392   4.588   4.593
21001WAT     H163245   3.407   4.528   4.514
21001WAT     H263246   3.367   4.680   4.561
21002WAT      O63247   1.536   5.413   7.151
21002WAT     H163248   1.454   5.462   7.179
21002WAT     H263249   1.547   5.331   7.207
21003WAT      O63250   6.272   5.411   7.024
21003WAT     H163251   6.252   5.432   6.928
21003WAT     H263252   6.293   5.314   7.033
21004WAT      O63253   5.509   0.320   4.368
21004WAT     H163254   5.484   0.230   4.404
21004WAT     H263255   5.608   0.333   4.377
21005WAT      O63256   5.107   5.382   0.702
21005WAT     H163257   5.054   5.393   0.618
21005WAT     H263258   5.189   5.440   0.697
21006WAT      O63259   7.138   6.509   4.956
21006WAT     H163260   7.221   6.453   4.950
21006WAT     H263261   7.128   6.563   4.873
21007WAT      O63262   3.186   5.065   7.935
21007WAT     H163263   3.143   4.995   7.992
21007WAT     H263264   3.128   5.146   7.933
21008WAT      O63265   4.110   4.845   2.607
21008WAT     H163266   4.025   4.830   2.657
21008WAT     H263267   4.138   4.761   2.562
21009WAT      O63268   7.467   6.596   3.066
21009WAT     H163269   7.444   6.607   2.969
21009WAT     H263270   7.474   6.686   3.109
21010WAT      O63271   6.559   0.207   1.002
21010WAT     H163272   6.519   0.287   0.956
21010WAT     H263273   6.658   0.219   1.009
21011WAT      O63274   1.577   4.390   2.428
21011WAT     H163275   1.553   4.420   2.520
21011WAT     H263276   1.664   4.342   2.429
21012WAT      O63277   7.235   2.333   9.318
21012WAT     H163278   7.221   2.345   9.416
21012WAT     H263279   7.207   2.241   9.290
21013WAT      O63280   6.939   4.951   0.393
21013WAT     H163281   7.032   4.926   0.420
21013WAT     H263282   6.897   5.005   0.466
21014WAT      O63283   0.591   5.779   1.867
21014WAT     H163284   0.553   5.738   1.950
21014WAT     H263285   0.561   5.874   1.860
21015WAT      O63286   4.749   7.318   9.872
21015WAT     H163287   4.680   7.346   9.805
21015WAT     H263288   4.801   7.241   9.837
21016WAT      O63289   6.707   3.287   4.026
21016WAT     H163290   6.666   3.215   4.083
21016WAT     H263291   6.730   3.248   3.936
21017WAT      O63292   4.554   7.382   2.047
21017WAT     H163293   4.459   7.364   2.075
21017WAT     H263294   4.609   7.301   2.063
21018WAT      O63295   8.279   1.149   9.760
21018WAT     H163296   8.185   1.181   9.769
21018WAT     H263297   8.281   1.064   9.706
21019WAT      O63298   4.212   1.586   5.054
21019WAT     H163299   4.234   1.491   5.078
21019WAT     H263300   4.294   1.643   5.065
21020WAT      O63301   0.310   6.490   2.796
21020WAT     H163302   0.332   6.448   2.884
21020WAT     H263303   0.337   6.587   2.797
21021WAT      O63304   8.658   2.117   1.002
21021WAT     H163305   8.742   2.170   1.014
21021WAT     H263306   8.665   2.032   1.055
21022WAT      O63307   3.115   9.756   8.414
21022WAT     H163308   3.029   9.796   8.383
21022WAT     H263309   3.109   9.656   8.410
21023WAT      O63310   1.835   7.681   7.899
21023WAT     H163311   1.782   7.630   7.831
21023WAT     H263312   1.774   7.743   7.949
21024WAT      O63313   2.872   8.779   5.733
21024WAT     H163314   2.967   8.787   5.765
21024WAT     H263315   2.821   8.718   5.794
21025WAT      O63316   3.085   1.601   8.172
21025WAT     H163317   3.179   1.619   8.199
21025WAT     H263318   3.078   1.608   8.072
21026WAT      O63319   0.192   9.739   4.573
21026WAT     H163320   0.195   9.740   4.672
21026WAT     H263321   0.175   9.831   4.538
21027WAT      O63322   1.229   4.607   9.655
21027WAT     H163323   1.283   4.683   9.618
21027WAT     H263324   1.155   4.584   9.591
21028WAT      O63325   6.584   2.295   4.880
21028WAT     H163326   6.625   2.204   4.884
21028WAT     H263327   6.657   2.364   4.871
21029WAT      O63328   1.173   7.479   8.248
21029WAT     H163329   1.110   7.418   8.201
21029WAT     H263330   1.123   7.557   8.286
21030WAT      O63331   1.930   9.242   8.201
21030WAT     H163332   1.982   9.157   8.195
21030WAT     H263333   1.849   9.228   8.258
21031WAT      O63334   0.729   2.505   4.335
21031WAT     H163335   0.721   2.444   4.413
21031WAT     H263336   0.749   2.451   4.253
21032WAT      O63337   8.033   5.381   9.487
21032WAT     H163338   8.012   5.335   9.401
21032WAT     H263339   8.017   5.318   9.563
21033WAT      O63340   1.328   5.154   7.527
21033WAT     H163341   1.330   5.055   7.509
21033WAT     H263342   1.309   5.203   7.442
21034WAT      O63343   4.909   8.095   4.013
21034WAT     H163344   4.994   8.100   4.067
21034WAT     H263345   4.836   8.056   4.069
21035WAT      O63346   4.879   5.401   9.202
21035WAT     H163347   4.829   5.485   9.221
21035WAT     H263348   4.837   5.353   9.125
21036WAT      O63349   8.557   6.396   2.945
21036WAT     H163350   8.641   6.446   2.967
21036WAT     H263351   8.499   6.392   3.026
21037WAT      O63352   6.188   1.845   0.816
21037WAT     H163353   6.172   1.781   0.891
21037WAT     H263354   6.143   1.932   0.836
21038WAT      O63355   8.500   3.884   2.237
21038WAT     H163356   8.524   3.787   2.247
21038WAT     H263357   8.558   3.939   2.297
21039WAT      O63358   1.934   3.263   3.208
21039WAT     H163359   1.960   3.167   3.195
21039WAT     H263360   1.902   3.300   3.121
21040WAT      O63361   6.140   3.003   8.419
21040WAT     H163362   6.187   2.918   8.399
21040WAT     H263363   6.179   3.045   8.501
21041WAT      O63364   2.911   4.845   1.242
21041WAT     H163365   2.864   4.763   1.208
21041WAT     H263366   2.845   4.903   1.289
21042WAT      O63367   8.715   0.237   8.478
21042WAT     H163368   8.710   0.336   8.475
21042WAT     H263369   8.666   0.203   8.559
21043WAT      O63370   6.450   0.697   7.950
21043WAT     H163371   6.500   0.771   7.905
21043WAT     H263372   6.443   0.620   7.887
21044WAT      O63373   1.742   5.202   1.040
21044WAT     H163374   1.760   5.186   0.943
21044WAT     H263375   1.829   5.217   1.088
21045WAT      O63376   8.452   8.351   8.751
21045WAT     H163377   8.428   8.439   8.709
21045WAT     H263378   8.526   8.365   8.817
21046WAT      O63379   6.378   6.424   2.849
21046WAT     H163380   6.466   6.470   2.832
21046WAT     H263381   6.309   6.462   2.787
21047WAT      O63382   0.402   2.026   5.109
21047WAT     H163383   0.329   1.971   5.149
21047WAT     H263384   0.469   2.048   5.180
21048WAT      O63385   3.979   2.066   7.974
21048WAT     H163386   3.896   2.119   7.992
21048WAT     H263387   4.060   2.123   7.990
21049WAT      O63388   7.182   2.788   0.655
21049WAT     H163389   7.253   2.803   0.586
21049WAT     H263390   7.095   2.770   0.609
21050WAT      O63391   2.384   7.923   1.686
21050WAT     H163392   2.307   7.963   1.638
21050WAT     H263393   2.365   7.920   1.784
21051WAT      O63394   9.707   5.750   0.025
21051WAT     H163395   9.665   5.794  -0.054
21051WAT     H263396   9.638   5.698   0.075
21052WAT      O63397   6.517   1.842   2.602
21052WAT     H163398   6.468   1.856   2.688
21052WAT     H263399   6.506   1.923   2.544
21053WAT      O63400   1.163   5.257   7.725
21053WAT     H163401   1.080   5.297   7.687
21053WAT     H263402   1.220   5.223   7.650
21054WAT      O63403   0.299   0.505   8.791
21054WAT     H163404   0.356   0.479   8.713
21054WAT     H263405   0.204   0.517   8.761
21055WAT      O63406   1.689   9.122   0.221
21055WAT     H163407   1.632   9.193   0.179
21055WAT     H263408   1.769   9.105   0.164
21056WAT      O63409   7.675   7.241   3.169
21056WAT     H163410   7.661   7.183   3.250
21056WAT     H263411   7.739   7.196   3.107
21057WAT      O63412   9.253   9.323   5.523
21057WAT     H163413   9.351   9.346   5.528
21057WAT     H263414   9.221   9.297   5.614
21058WAT      O63415   6.958   7.955   3.568
21058WAT     H163416   7.012   8.001   3.497
21058WAT     H263417   6.995   7.979   3.658
21059WAT      O63418   7.249   7.852   0.856
21059WAT     H163419   7.328   7.851   0.795
21059WAT     H263420   7.165   7.840   0.803
21060WAT      O63421   5.635   4.236   2.985
21060WAT     H163422   5.584   4.311   3.027
21060WAT     H263423   5.668   4.174   3.056
21061WAT      O63424   7.783   5.188   5.222
21061WAT     H163425   7.829   5.165   5.308
21061WAT     H263426   7.697   5.236   5.241
21062WAT      O63427   2.995   8.003   2.574
21062WAT     H163428   2.904   8.021   2.537
21062WAT     H263429   3.017   8.071   2.644
21063WAT      O63430   3.528   9.458   3.972
21063WAT     H163431   3.615   9.432   3.930
21063WAT     H263432   3.529   9.555   3.995
21064WAT      O63433   1.870   8.065   9.879
21064WAT     H163434   1.929   8.060   9.959
21064WAT     H263435   1.918   8.113   9.805
21065WAT      O63436   8.865   1.485   6.099
21065WAT     H163437   8.906   1.459   6.186
21065WAT     H263438   8.888   1.417   6.030
21066WAT      O63439   5.632   8.623   6.719
21066WAT     H163440   5.532   8.619   6.720
21066WAT     H263441   5.661   8.710   6.678
21067WAT      O63442   4.119   2.134   8.423
21067WAT     H163443   4.162   2.148   8.334
21067WAT     H263444   4.129   2.216   8.479
21068WAT      O63445   9.507   6.844   6.612
21068WAT     H163446   9.543   6.842   6.519
21068WAT     H263447   9.545   6.768   6.664
21069WAT      O63448   2.153   3.787   1.854
21069WAT     H163449   2.096   3.753   1.928
21069WAT     H263450   2.225   3.720   1.834
21070WAT      O63451   7.407   3.353   5.827
21070WAT     H163452   7.488   3.399   5.863
21070WAT     H263453   7.389   3.383   5.734
21071WAT      O63454   5.413   1.460   0.390
21071WAT     H163455   5.436   1.552   0.422
21071WAT     H263456   5.484   1.427   0.329
21072WAT      O63457   7.092   4.948   8.967
21072WAT     H163458   7.112   4.861   9.014
21072WAT     H263459   7.002   4.941   8.923
21073WAT      O63460   1.155   7.397   7.417
21073WAT     H163461   1.130   7.493   7.417
21073WAT     H263462   1.080   7.343   7.455
21074WAT      O63463   1.244   4.036   9.128
21074WAT     H163464   1.236   4.058   9.225
21074WAT     H263465   1.264   3.938   9.117
21075WAT      O63466   6.680   9.242   3.045
21075WAT     H163467   6.705   9.338   3.056
21075WAT     H263468   6.762   9.187   3.029
21076WAT      O63469   1.372   9.381   7.646
21076WAT     H163470   1.382   9.465   7.699
21076WAT     H263471   1.325   9.312   7.700
21077WAT      O63472   9.320   5.072   1.505
21077WAT     H163473   9.244   5.036   1.558
21077WAT     H263474   9.334   5.168   1.529
21078WAT      O63475   0.569   8.122   7.505
21078WAT     H163476   0.616   8.041   7.470
21078WAT     H263477   0.579   8.126   7.605
21079WAT      O63478   9.304   8.048   0.431
21079WAT     H163479   9.234   8.000   0.378
21079WAT     H263480   9.313   8.141   0.398
21080WAT      O63481   4.856   9.351   0.845
21080WAT     H163482   4.847   9.290   0.766
21080WAT     H263483   4.952   9.363   0.868
21081WAT      O63484   1.944   9.513   8.226
21081WAT     H163485   1.946   9.413   8.220
21081WAT     H263486   2.027   9.551   8.185
21082WAT      O63487   6.025   8.794   9.226
21082WAT     H163488   6.114   8.755   9.204
21082WAT     H263489   6.020   8.888   9.193
21083WAT      O63490   3.867   6.829   2.555
21083WAT     H163491   3.926   6.762   2.600
21083WAT     H263492   3.922   6.907   2.527
21084WAT      O63493   0.935   3.853   5.679
21084WAT     H163494   1.024   3.810   5.695
21084WAT     H263495   0.943   3.916   5.601
21085WAT      O63496   3.409   7.920   4.632
21085WAT     H163497   3.328   7.867   4.658
21085WAT     H263498   3.421   7.996   4.697
21086WAT      O63499   4.021   8.865   3.289
21086WAT     H163500   3.952   8.930   3.320
21086WAT     H263501   4.062   8.820   3.368
21087WAT      O63502   7.754   1.576   1.753
21087WAT     H163503   7.723   1.492   1.798
21087WAT     H263504   7.719   1.655   1.803
21088WAT      O63505   6.252   8.878   5.962
21088WAT     H163506   6.290   8.895   5.870
21088WAT     H263507   6.323   8.896   6.030
21089WAT      O63508   8.652   7.128   5.678
21089WAT     H163509   8.687   7.209   5.724
21089WAT     H263510   8.700   7.047   5.711
21090WAT      O63511   6.683   4.835   7.713
21090WAT     H163512   6.587   4.829   7.688
21090WAT     H263513   6.740   4.821   7.632
21091WAT      O63514   5.148   3.831   4.366
21091WAT     H163515   5.111   3.744   4.399
21091WAT     H263516   5.159   3.894   4.443
21092WAT      O63517   4.659   6.328   9.137
21092WAT     H163518   4.746   6.314   9.185
21092WAT     H263519   4.586   6.282   9.187
21093WAT      O63520   4.145   9.063   7.147
21093WAT     H163521   4.085   9.098   7.219
21093WAT     H263522   4.106   8.980   7.109
21094WAT      O63523   0.463   3.058   5.452
21094WAT     H163524   0.552   3.097   5.428
21094WAT     H263525   0.473   2.960   5.466
21095WAT      O63526   8.130   8.087   3.178
21095WAT     H163527   8.104   8.176   3.141
21095WAT     H263528   8.154   8.025   3.103
21096WAT      O63529   8.947   5.714   6.997
21096WAT     H163530   8.914   5.746   6.909
21096WAT     H263531   9.045   5.694   6.991
21097WAT      O63532   8.202   9.402   6.558
21097WAT     H163533   8.239   9.309   6.558
21097WAT     H263534   8.109   9.401   6.593
21098WAT      O63535   4.675   2.489   3.154
21098WAT     H163536   4.636   2.581   3.149
21098WAT     H263537   4.680   2.460   3.250
21099WAT      O63538   0.042   3.727   6.096
21099WAT     H163539   0.013   3.822   6.093
21099WAT     H263540  -0.019   3.672   6.038
21100WAT      O63541   5.372   6.417   8.053
21100WAT     H163542   5.378   6.513   8.025
21100WAT     H263543   5.386   6.410   8.152
21101WAT      O63544   6.099   2.566   1.686
21101WAT     H163545   6.008   2.561   1.646
21101WAT     H263546   6.128   2.475   1.715
21102WAT      O63547   9.390   9.025   2.772
21102WAT     H163548   9.325   8.977   2.713
21102WAT     H263549   9.344   9.054   2.856
21103WAT      O63550   0.006   1.227   3.046
21103WAT     H163551  -0.092   1.243   3.036
21103WAT     H263552   0.021   1.135   3.084
21104WAT      O63553   7.743   3.496   8.450
21104WAT     H163554   7.715   3.466   8.359
21104WAT     H263555   7.683   3.454   8.518
21105WAT      O63556   6.189   1.829   6.136
21105WAT     H163557   6.248   1.760   6.176
21105WAT     H263558   6.202   1.832   6.037
21106WAT      O63559   1.977   5.311   3.165
21106WAT     H163560   2.023   5.223   3.179
21106WAT     H263561   1.879   5.300   3.178
21107WAT      O63562   6.624   6.925   8.054
21107WAT     H163563   6.666   7.016   8.049
21107WAT     H263564   6.695   6.855   8.042
21108WAT      O63565   6.304   5.234   3.530
21108WAT     H163566   6.276   5.222   3.435
21108WAT     H263567   6.231   5.202   3.591
21109WAT      O63568   9.607   4.931   4.170
21109WAT     H163569   9.526   4.989   4.158
21109WAT     H263570   9.668   4.942   4.091
21110WAT      O63571   9.660   7.283   0.167
21110WAT     H163572   9.734   7.308   0.105
21110WAT     H263573   9.698   7.236   0.247
21111WAT      O63574   5.102   0.721   0.566
21111WAT     H163575   5.107   0.719   0.466
21111WAT     H263576   5.081   0.814   0.596
21112WAT      O63577   4.533   3.423   3.353
21112WAT     H163578   4.534   3.325   3.334
21112WAT     H263579   4.467   3.443   3.425
21113WAT      O63580   1.738   7.056   7.558
21113WAT     H163581   1.810   7.069   7.490
21113WAT     H263582   1.674   6.987   7.525
21114WAT      O63583   3.128   4.501   4.814
21114WAT     H163584   3.130   4.456   4.725
21114WAT     H263585   3.039   4.485   4.857
21115WAT      O63586   9.483   8.041   4.755
21115WAT     H163587   9.573   8.059   4.717
21115WAT     H263588   9.490   8.032   4.855
21116WAT      O63589   1.101   1.394   6.046
21116WAT     H163590   1.044   1.330   6.098
21116WAT     H263591   1.052   1.424   5.964
21117WAT      O63592   1.452   2.972   4.518
21117WAT     H163593   1.400   2.903   4.467
21117WAT     H263594   1.541   2.934   4.543
21118WAT      O63595   8.138   2.555   7.539
21118WAT     H163596   8.142   2.652   7.560
21118WAT     H263597   8.206   2.505   7.592
21119WAT      O63598   9.847   2.931   5.315
21119WAT     H163599   9.805   3.017   5.284
21119WAT     H263600   9.931   2.915   5.263
21120WAT      O63601   2.251   7.380   5.645
21120WAT     H163602   2.320   7.387   5.573
21120WAT     H263603   2.172   7.330   5.610
21121WAT      O63604   0.131   7.837   2.393
21121WAT     H163605   0.180   7.788   2.322
21121WAT     H263606   0.115   7.932   2.364
21122WAT      O63607   4.767   8.011   8.642
21122WAT     H163608   4.755   8.104   8.675
21122WAT     H263609   4.684   7.981   8.596
21123WAT      O63610   9.351   7.079   9.271
21123WAT     H163611   9.344   6.990   9.317
21123WAT     H263612   9.405   7.069   9.187
21124WAT      O63613   8.608   2.893   9.159
21124WAT     H163614   8.594   2.959   9.232
21124WAT     H263615   8.598   2.800   9.195
21125WAT      O63616   5.984   0.551   4.552
21125WAT     H163617   5.911   0.564   4.485
21125WAT     H263618   6.032   0.638   4.566
21126WAT      O63619   7.963   2.414   7.398
21126WAT     H163620   7.896   2.460   7.340
21126WAT     H263621   8.008   2.481   7.457
21127WAT      O63622   3.359   6.575   8.327
21127WAT     H163623   3.393   6.504   8.265
21127WAT     H263624   3.289   6.536   8.387
21128WAT      O63625   7.098   3.703   4.828
21128WAT     H163626   7.073   3.767   4.901
21128WAT     H263627   7.118   3.614   4.868
21129WAT      O63628   8.471   3.638   6.943
21129WAT     H163629   8.412   3.637   6.862
21129WAT     H263630   8.529   3.557   6.943
21130WAT      O63631   4.008   4.158   4.277
21130WAT     H163632   3.946   4.236   4.281
21130WAT     H263633   4.039   4.135   4.369
21131WAT      O63634   5.171   9.302   4.231
21131WAT     H163635   5.155   9.372   4.162
21131WAT     H263636   5.266   9.304   4.261
21132WAT      O63637   2.095   7.840   8.457
21132WAT     H163638   2.073   7.744   8.473
21132WAT     H263639   2.051   7.871   8.373
21133WAT      O63640   9.501   9.599   9.040
21133WAT     H163641   9.508   9.630   8.945
21133WAT     H263642   9.482   9.677   9.099
21134WAT      O63643   3.070   0.168   5.616
21134WAT     H163644   3.129   0.226   5.672
21134WAT     H263645   3.087   0.072   5.638
21135WAT      O63646   4.524   1.404   7.514
21135WAT     H163647   4.462   1.354   7.575
21135WAT     H263648   4.535   1.352   7.429
21136WAT      O63649   1.776   9.013   4.718
21136WAT     H163650   1.739   9.009   4.625
21136WAT     H263651   1.737   8.938   4.772
21137WAT      O63652   6.050   2.995   9.589
21137WAT     H163653   6.101   2.976   9.505
21137WAT     H263654   5.997   3.079   9.577
21138WAT      O63655   3.025   5.269   2.485
21138WAT     H163656   2.955   5.330   2.447
21138WAT     H263657   2.983   5.204   2.548
21139WAT      O63658   2.433   9.223   5.705
21139WAT     H163659   2.373   9.224   5.624
21139WAT     H263660   2.505   9.155   5.691
21140WAT      O63661   0.434   0.605   3.882
21140WAT     H163662   0.523   0.649   3.896
21140WAT     H263663   0.439   0.510   3.911
21141WAT      O63664   7.634   6.202   4.922
21141WAT     H163665   7.662   6.234   5.012
21141WAT     H263666   7.608   6.105   4.928
21142WAT      O63667   4.677   6.947   2.466
21142WAT     H163668   4.744   7.020   2.481
21142WAT     H263669   4.621   6.936   2.549
21143WAT      O63670   4.348   1.810   8.163
21143WAT     H163671   4.323   1.747   8.090
21143WAT     H263672   4.366   1.758   8.247
21144WAT      O63673   9.105   0.917   9.766
21144WAT     H163674   9.073   0.992   9.823
21144WAT     H263675   9.198   0.938   9.734
21145WAT      O63676   0.590   3.433   2.275
21145WAT     H163677   0.535   3.513   2.301
21145WAT     H263678   0.565   3.405   2.182
21146WAT      O63679   8.142   2.514   7.970
21146WAT     H163680   8.187   2.463   7.897
21146WAT     H263681   8.177   2.608   7.971
21147WAT      O63682   1.423   3.397   4.578
21147WAT     H163683   1.432   3.469   4.647
21147WAT     H263684   1.340   3.412   4.525
21148WAT      O63685   6.493   5.861   8.713
21148WAT     H163686   6.410   5.823   8.756
21148WAT     H263687   6.562   5.879   8.783
21149WAT      O63688   5.856   4.375   0.279
21149WAT     H163689   5.863   4.368   0.379
21149WAT     H263690   5.787   4.444   0.256
21150WAT      O63691   8.211   0.794   4.272
21150WAT     H163692   8.285   0.844   4.228
21150WAT     H263693   8.227   0.790   4.371
21151WAT      O63694   2.565   4.679   7.879
21151WAT     H163695   2.581   4.688   7.781
21151WAT     H263696   2.530   4.765   7.915
21152WAT      O63697   7.131   2.290   3.385
21152WAT     H163698   7.073   2.209   3.392
21152WAT     H263699   7.205   2.284   3.451
21153WAT      O63700   0.573   9.686   8.193
21153WAT     H163701   0.504   9.684   8.265
21153WAT     H263702   0.652   9.633   8.222
21154WAT      O63703   5.635   7.377   7.496
21154WAT     H163704   5.693   7.378   7.415
21154WAT     H263705   5.572   7.300   7.492
21155WAT      O63706   2.917   2.554   6.180
21155WAT     H163707   2.895   2.458   6.197
21155WAT     H263708   3.003   2.577   6.225
21156WAT      O63709   6.877   7.867   4.905
21156WAT     H163710   6.802   7.933   4.901
21156WAT     H263711   6.930   7.882   4.989
21157WAT      O63712   7.954   3.249   0.172
21157WAT     H163713   8.020   3.263   0.246
21157WAT     H263714   7.884   3.320   0.175
21158WAT      O63715   5.985   3.512   0.151
21158WAT     H163716   5.907   3.545   0.097
21158WAT     H263717   5.951   3.474   0.238
21159WAT      O63718   0.385   1.213   0.015
21159WAT     H163719   0.436   1.198  -0.070
21159WAT     H263720   0.401   1.136   0.077
21160WAT      O63721   7.355   2.794   7.320
21160WAT     H163722   7.271   2.762   7.364
21160WAT     H263723   7.420   2.822   7.390
21161WAT      O63724   8.764   4.647   1.732
21161WAT     H163725   8.674   4.611   1.758
21161WAT     H263726   8.801   4.701   1.807
21162WAT      O63727   1.136   7.013   3.788
21162WAT     H163728   1.186   7.024   3.701
21162WAT     H263729   1.038   7.022   3.772
21163WAT      O63730   8.391   1.916   9.215
21163WAT     H163731   8.335   1.957   9.143
21163WAT     H263732   8.418   1.823   9.188
21164WAT      O63733   6.143   1.617   1.508
21164WAT     H163734   6.233   1.641   1.544
21164WAT     H263735   6.076   1.686   1.537
21165WAT      O63736   5.549   6.186   9.176
21165WAT     H163737   5.469   6.165   9.120
21165WAT     H263738   5.573   6.107   9.232
21166WAT      O63739   1.705   3.937   8.473
21166WAT     H163740   1.605   3.939   8.475
21166WAT     H263741   1.741   4.001   8.541
21167WAT      O63742   6.565   8.097   9.243
21167WAT     H163743   6.474   8.120   9.209
21167WAT     H263744   6.633   8.153   9.195
21168WAT      O63745   5.476   1.578   7.217
21168WAT     H163746   5.423   1.661   7.203
21168WAT     H263747   5.420   1.498   7.196
21169WAT      O63748   1.338   3.495   5.964
21169WAT     H163749   1.255   3.524   6.012
21169WAT     H263750   1.358   3.400   5.985
21170WAT      O63751   5.673   2.307   8.399
21170WAT     H163752   5.723   2.248   8.336
21170WAT     H263753   5.686   2.403   8.373
21171WAT      O63754   6.569   0.082   1.754
21171WAT     H163755   6.650   0.032   1.786
21171WAT     H263756   6.505   0.093   1.830
21172WAT      O63757   9.434   8.690   1.704
21172WAT     H163758   9.364   8.760   1.719
21172WAT     H263759   9.454   8.643   1.790
21173WAT      O63760   6.663   0.118   2.497
21173WAT     H163761   6.753   0.109   2.540
21173WAT     H263762   6.614   0.032   2.505
21174WAT      O63763   2.561   6.880   5.757
21174WAT     H163764   2.491   6.925   5.702
21174WAT     H263765   2.592   6.798   5.709
21175WAT      O63766   1.058   7.580   3.971
21175WAT     H163767   0.962   7.553   3.983
21175WAT     H263768   1.064   7.647   3.897
21176WAT      O63769   3.159   6.482   5.286
21176WAT     H163770   3.230   6.421   5.250
21176WAT     H263771   3.126   6.446   5.373
21177WAT      O63772   4.086   0.536   6.148
21177WAT     H163773   3.987   0.546   6.158
21177WAT     H263774   4.133   0.613   6.191
21178WAT      O63775   7.279   0.908   8.402
21178WAT     H163776   7.237   0.941   8.486
21178WAT     H263777   7.304   0.987   8.345
21179WAT      O63778   1.909   6.003   3.976
21179WAT     H163779   1.901   6.008   3.877
21179WAT     H263780   1.965   5.923   4.001
21180WAT      O63781   4.697   6.167   1.770
21180WAT     H163782   4.743   6.233   1.712
21180WAT     H263783   4.616   6.210   1.812
21181WAT      O63784   8.389   3.447   1.691
21181WAT     H163785   8.333   3.374   1.730
21181WAT     H263786   8.359   3.535   1.728
21182WAT      O63787   5.068   2.504   8.434
21182WAT     H163788   5.007   2.569   8.479
21182WAT     H263789   5.035   2.486   8.341
21183WAT      O63790   2.044   8.423   2.382
21183WAT     H163791   2.030   8.485   2.459
21183WAT     H263792   2.053   8.475   2.298
21184WAT      O63793   7.993   0.718   7.825
21184WAT     H163794   7.999   0.641   7.761
21184WAT     H263795   8.085   0.743   7.856
21185WAT      O63796   8.552   9.213   6.399
21185WAT     H163797   8.479   9.177   6.341
21185WAT     H263798   8.638   9.216   6.348
21186WAT      O63799   1.812   1.011   7.787
21186WAT     H163800   1.736   1.075   7.796
21186WAT     H263801   1.853   1.019   7.697
21187WAT      O63802   0.418   5.963   2.851
21187WAT     H163803   0.360   5.978   2.931
21187WAT     H263804   0.371   5.903   2.786
21188WAT      O63805   5.813   1.759   9.028
21188WAT     H163806   5.839   1.855   9.017
21188WAT     H263807   5.826   1.711   8.942
21189WAT      O63808   1.832   7.875   6.324
21189WAT     H163809   1.808   7.964   6.363
21189WAT     H263810   1.829   7.806   6.395
21190WAT      O63811   8.237   0.539   7.581
21190WAT     H163812   8.291   0.622   7.573
21190WAT     H263813   8.164   0.539   7.512
21191WAT      O63814   4.351   5.411   7.017
21191WAT     H163815   4.412   5.333   7.008
21191WAT     H263816   4.405   5.495   7.024
21192WAT      O63817   0.485   3.728   6.627
21192WAT     H163818   0.402   3.705   6.679
21192WAT     H263819   0.460   3.766   6.538
21193WAT      O63820   9.216   9.311   4.182
21193WAT     H163821   9.225   9.343   4.088
21193WAT     H263822   9.299   9.263   4.209
21194WAT      O63823   9.544   5.219   3.975
21194WAT     H163824   9.500   5.221   3.885
21194WAT     H263825   9.624   5.159   3.971
21195WAT      O63826   8.404   1.371   4.178
21195WAT     H163827   8.324   1.414   4.219
21195WAT     H263828   8.436   1.296   4.236
21196WAT      O63829   9.487   3.019   6.261
21196WAT     H163830   9.494   3.021   6.361
21196WAT     H263831   9.395   3.047   6.233
21197WAT      O63832   9.447   3.162   7.140
21197WAT     H163833   9.467   3.159   7.042
21197WAT     H263834   9.452   3.070   7.178
21198WAT      O63835   2.034   2.936   9.215
21198WAT     H163836   2.042   2.951   9.314
21198WAT     H263837   1.961   2.993   9.178
21199WAT      O63838   6.408   1.078   3.347
21199WAT     H163839   6.446   0.990   3.320
21199WAT     H263840   6.351   1.066   3.428
21200WAT      O63841   7.871   4.373   2.192
21200WAT     H163842   7.939   4.375   2.119
21200WAT     H263843   7.876   4.286   2.241
21201WAT      O63844   4.231   7.652   3.374
21201WAT     H163845   4.165   7.584   3.407
21201WAT     H263846   4.260   7.628   3.281
21202WAT      O63847   5.881   8.497   4.679
21202WAT     H163848   5.863   8.495   4.778
21202WAT     H263849   5.870   8.590   4.646
21203WAT      O63850   3.430   2.499   2.792
21203WAT     H163851   3.445   2.524   2.887
21203WAT     H263852   3.518   2.487   2.747
21204WAT      O63853   2.591   7.042   1.073
21204WAT     H163854   2.539   7.073   1.152
21204WAT     H263855   2.574   7.103   0.995
21205WAT      O63856   5.529   5.086   8.818
21205WAT     H163857   5.615   5.128   8.847
21205WAT     H263858   5.457   5.155   8.814
21206WAT      O63859   0.164   9.782   1.012
21206WAT     H163860   0.081   9.769   0.957
21206WAT     H263861   0.146   9.849   1.084
21207WAT      O63862   9.682   3.550   6.714
21207WAT     H163863   9.613   3.486   6.745
21207WAT     H263864   9.640   3.639   6.695
21208WAT      O63865   6.432   7.493   2.301
21208WAT     H163866   6.348   7.519   2.254
21208WAT     H263867   6.510   7.535   2.254
21209WAT      O63868   9.008   8.998   1.328
21209WAT     H163869   8.988   9.092   1.300
21209WAT     H263870   9.107   8.982   1.322
21210WAT      O63871   4.197   8.647   0.272
21210WAT     H163872   4.111   8.686   0.239
21210WAT     H263873   4.245   8.604   0.196
21211WAT      O63874   2.541   7.533   7.045
21211WAT     H163875   2.478   7.605   7.073
21211WAT     H263876   2.604   7.512   7.119
21212WAT      O63877   2.381   7.330   5.024
21212WAT     H163878   2.470   7.369   5.049
21212WAT     H263879   2.316   7.346   5.099
21213WAT      O63880   1.297   8.306   9.668
21213WAT     H163881   1.199   8.318   9.679
21213WAT     H263882   1.324   8.330   9.575
21214WAT      O63883   8.382   0.092   8.536
21214WAT     H163884   8.466   0.070   8.585
21214WAT     H263885   8.308   0.110   8.602
21215WAT      O63886   3.594   4.999   1.328
21215WAT     H163887   3.664   5.068   1.343
21215WAT     H263888   3.507   5.044   1.306
21216WAT      O63889   7.160   5.094   3.852
21216WAT     H163890   7.064   5.078   3.828
21216WAT     H263891   7.210   5.125   3.771
21217WAT      O63892   2.825   6.757   9.862
21217WAT     H163893   2.913   6.799   9.884
21217WAT     H263894   2.783   6.724   9.947
21218WAT      O63895   1.159   6.373   9.325
21218WAT     H163896   1.246   6.383   9.373
21218WAT     H263897   1.088   6.426   9.372
21219WAT      O63898   5.696   5.197   7.883
21219WAT     H163899   5.770   5.263   7.887
21219WAT     H263900   5.709   5.129   7.955
21220WAT      O63901   2.634   0.576   1.966
21220WAT     H163902   2.624   0.649   2.034
21220WAT     H263903   2.605   0.490   2.006
21221WAT      O63904   8.585   3.441   5.215
21221WAT     H163905   8.583   3.370   5.285
21221WAT     H263906   8.493   3.457   5.180
21222WAT      O63907   4.927   2.082   6.899
21222WAT     H163908   4.885   2.043   6.982
21222WAT     H263909   4.909   2.021   6.822
21223WAT      O63910   2.330   5.706   4.102
21223WAT     H163911   2.245   5.661   4.128
21223WAT     H263912   2.348   5.782   4.164
21224WAT      O63913   8.295   0.755   1.195
21224WAT     H163914   8.218   0.759   1.132
21224WAT     H263915   8.379   0.737   1.145
21225WAT      O63916   2.724   0.070   8.141
21225WAT     H163917   2.768  -0.002   8.087
21225WAT     H263918   2.654   0.115   8.085
21226WAT      O63919   1.032   7.808   4.310
21226WAT     H163920   1.115   7.859   4.291
21226WAT     H263921   0.957   7.842   4.253
21227WAT      O63922   3.677   9.147   8.036
21227WAT     H163923   3.727   9.061   8.022
21227WAT     H263924   3.581   9.127   8.057
21228WAT      O63925   5.376   1.146   8.632
21228WAT     H163926   5.327   1.138   8.545
21228WAT     H263927   5.466   1.185   8.616
21229WAT      O63928   6.240   8.015   0.231
21229WAT     H163929   6.183   8.097   0.220
21229WAT     H263930   6.325   8.040   0.277
21230WAT      O63931   0.425   4.751   4.811
21230WAT     H163932   0.401   4.805   4.731
21230WAT     H263933   0.494   4.800   4.864
21231WAT      O63934   4.656   8.143   8.324
21231WAT     H163935   4.630   8.115   8.231
21231WAT     H263936   4.732   8.086   8.355
21232WAT      O63937   6.697   2.045   4.902
21232WAT     H163938   6.788   2.031   4.862
21232WAT     H263939   6.682   1.977   4.974
21233WAT      O63940   3.099   9.177   9.005
21233WAT     H163941   3.171   9.234   9.044
21233WAT     H263942   3.097   9.088   9.051
21234WAT      O63943   9.443   7.299   5.976
21234WAT     H163944   9.415   7.232   6.045
21234WAT     H263945   9.542   7.311   5.978
21235WAT      O63946   2.634   9.611   0.515
21235WAT     H163947   2.615   9.644   0.607
21235WAT     H263948   2.558   9.636   0.455
21236WAT      O63949   8.166   4.189   6.324
21236WAT     H163950   8.193   4.235   6.239
21236WAT     H263951   8.085   4.133   6.308
21237WAT      O63952   9.146   4.482   1.741
21237WAT     H163953   9.220   4.426   1.704
21237WAT     H263954   9.095   4.525   1.666
21238WAT      O63955   1.863   6.433   9.448
21238WAT     H163956   1.830   6.344   9.481
21238WAT     H263957   1.817   6.506   9.499
21239WAT      O63958   0.073   8.647   6.845
21239WAT     H163959   0.094   8.722   6.908
21239WAT     H263960   0.082   8.560   6.893
21240WAT      O63961   3.627   8.761   3.735
21240WAT     H163962   3.536   8.789   3.706
21240WAT     H263963   3.661   8.690   3.673
21241WAT      O63964   1.719   2.932   1.953
21241WAT     H163965   1.806   2.926   2.004
21241WAT     H263966   1.738   2.924   1.855
21242WAT      O63967   5.513   2.378   5.492
21242WAT     H163968   5.585   2.414   5.552
21242WAT     H263969   5.428   2.369   5.543
21243WAT      O63970   3.440   5.746   6.655
21243WAT     H163971   3.381   5.824   6.634
21243WAT     H263972   3.412   5.706   6.743
21244WAT      O63973   6.864   0.278   3.087
21244WAT     H163974   6.928   0.349   3.055
21244WAT     H263975   6.909   0.189   3.083
21245WAT      O63976   2.049   3.094   5.746
21245WAT     H163977   2.069   3.147   5.828
21245WAT     H263978   2.132   3.048   5.714
21246WAT      O63979   9.536   5.397   2.308
21246WAT     H163980   9.499   5.315   2.263
21246WAT     H263981   9.461   5.451   2.346
21247WAT      O63982   5.615   2.132   5.409
21247WAT     H163983   5.565   2.210   5.446
21247WAT     H263984   5.651   2.156   5.319
21248WAT      O63985   4.557   5.801   5.035
21248WAT     H163986   4.562   5.704   5.010
21248WAT     H263987   4.566   5.857   4.952
21249WAT      O63988   8.586   3.197   7.049
21249WAT     H163989   8.652   3.128   7.022
21249WAT     H263990   8.579   3.200   7.149
21250WAT      O63991   9.721   9.792   4.987
21250WAT     H163992   9.646   9.859   4.989
21250WAT     H263993   9.691   9.708   5.033
21251WAT      O63994   0.686   4.020   9.677
21251WAT     H163995   0.699   3.962   9.597
21251WAT     H263996   0.633   3.971   9.745
21252WAT      O63997   1.329   3.164   8.830
21252WAT     H163998   1.239   3.120   8.834
21252WAT     H263999   1.317   3.264   8.826
21253WAT      O64000   2.411   5.465   8.180
21253WAT     H164001   2.400   5.563   8.165
21253WAT     H264002   2.374   5.440   8.269
21254WAT      O64003   8.700   5.454   8.312
21254WAT     H164004   8.706   5.521   8.385
21254WAT     H264005   8.684   5.363   8.350
21255WAT      O64006   1.148   4.243   8.162
21255WAT     H164007   1.095   4.287   8.090
21255WAT     H264008   1.100   4.159   8.192
21256WAT      O64009   2.763   3.535   3.234
21256WAT     H164010   2.717   3.533   3.323
21256WAT     H264011   2.764   3.628   3.199
21257WAT      O64012   8.172   0.659   3.055
21257WAT     H164013   8.130   0.689   2.969
21257WAT     H264014   8.179   0.560   3.057
21258WAT      O64015   2.001   0.093   8.098
21258WAT     H164016   2.061   0.130   8.027
21258WAT     H264017   1.937   0.028   8.057
21259WAT      O64018   7.889   5.428   8.512
21259WAT     H164019   7.867   5.389   8.601
21259WAT     H264020   7.891   5.528   8.519
21260WAT      O64021   5.574   8.885   6.203
21260WAT     H164022   5.589   8.979   6.236
21260WAT     H264023   5.588   8.882   6.104
21261WAT      O64024   7.638   4.574   4.454
21261WAT     H164025   7.655   4.668   4.485
21261WAT     H264026   7.565   4.533   4.508
21262WAT      O64027   0.875   2.074   0.431
21262WAT     H164028   0.798   2.067   0.367
21262WAT     H264029   0.848   2.035   0.520
21263WAT      O64030   0.498   9.750   9.733
21263WAT     H164031   0.481   9.709   9.822
21263WAT     H264032   0.580   9.806   9.738
21264WAT      O64033   0.440   8.505   9.427
21264WAT     H164034   0.534   8.528   9.402
21264WAT     H264035   0.377   8.566   9.379
21265WAT      O64036   7.896   4.492   4.401
21265WAT     H164037   7.806   4.535   4.409
21265WAT     H264038   7.925   4.456   4.489
21266WAT      O64039   0.043   5.005   7.340
21266WAT     H164040  -0.038   5.053   7.373
21266WAT     H264041   0.106   4.990   7.416
21267WAT      O64042   3.167   1.797   4.499
21267WAT     H164043   3.197   1.771   4.591
21267WAT     H264044   3.241   1.844   4.452
21268WAT      O64045   3.133   7.259   5.520
21268WAT     H164046   3.086   7.190   5.575
21268WAT     H264047   3.182   7.321   5.581
21269WAT      O64048   2.592   5.133   5.091
21269WAT     H164049   2.526   5.198   5.055
21269WAT     H264050   2.676   5.182   5.115
21270WAT      O64051   9.252   9.811   6.789
21270WAT     H164052   9.304   9.726   6.799
21270WAT     H264053   9.209   9.814   6.699
21271WAT      O64054   3.657   7.884   4.249
21271WAT     H164055   3.590   7.812   4.236
21271WAT     H264056   3.744   7.858   4.207
21272WAT      O64057   6.961   8.799   9.538
21272WAT     H164058   7.008   8.713   9.559
21272WAT     H264059   6.992   8.870   9.600
21273WAT      O64060   3.442   7.074   8.053
21273WAT     H164061   3.423   6.996   8.113
21273WAT     H264062   3.356   7.109   8.016
21274WAT      O64063   6.261   8.479   0.275
21274WAT     H164064   6.354   8.509   0.297
21274WAT     H264065   6.263   8.422   0.192
21275WAT      O64066   8.792   6.530   7.132
21275WAT     H164067   8.730   6.520   7.210
21275WAT     H264068   8.797   6.627   7.106
21276WAT      O64069   5.009   2.152   7.918
21276WAT     H164070   5.092   2.105   7.887
21276WAT     H264071   4.952   2.088   7.969
21277WAT      O64072   7.888   4.512   6.556
21277WAT     H164073   7.796   4.546   6.536
21277WAT     H264074   7.927   4.565   6.632
21278WAT      O64075   3.007   6.638   1.740
21278WAT     H164076   3.035   6.732   1.718
21278WAT     H264077   3.022   6.579   1.661
21279WAT      O64078   0.024   8.703   4.352
21279WAT     H164079  -0.073   8.706   4.326
21279WAT     H264080   0.061   8.795   4.352
21280WAT      O64081   0.422   5.794   6.164
21280WAT     H164082   0.360   5.845   6.104
21280WAT     H264083   0.513   5.790   6.123
21281WAT      O64084   5.928   8.618   3.604
21281WAT     H164085   5.911   8.661   3.692
21281WAT     H264086   5.984   8.679   3.548
21282WAT      O64087   4.229   3.105   8.940
21282WAT     H164088   4.207   3.185   8.996
21282WAT     H264089   4.216   3.127   8.843
21283WAT      O64090   5.553   5.905   7.380
21283WAT     H164091   5.463   5.912   7.336
21283WAT     H264092   5.572   5.809   7.402
21284WAT      O64093   4.437   2.250   6.237
21284WAT     H164094   4.448   2.151   6.248
21284WAT     H264095   4.500   2.298   6.298
21285WAT      O64096   3.458   7.554   7.518
21285WAT     H164097   3.478   7.508   7.604
21285WAT     H264098   3.480   7.651   7.527
21286WAT      O64099   0.640   8.790   4.256
21286WAT     H164100   0.540   8.783   4.265
21286WAT     H264101   0.682   8.707   4.293
21287WAT      O64102   0.580   1.636   2.275
21287WAT     H164103   0.486   1.667   2.289
21287WAT     H264104   0.581   1.537   2.266
21288WAT      O64105   5.263   0.236   1.600
21288WAT     H164106   5.238   0.202   1.691
21288WAT     H264107   5.225   0.328   1.587
21289WAT      O64108   9.033   4.775   2.672
21289WAT     H164109   9.082   4.862   2.678
21289WAT     H264110   8.945   4.790   2.627
21290WAT      O64111   9.852   2.992   0.487
21290WAT     H164112   9.899   2.910   0.520
21290WAT     H264113   9.807   3.039   0.563
21291WAT      O64114   9.355   4.242   8.600
21291WAT     H164115   9.371   4.311   8.530
21291WAT     H264116   9.426   4.249   8.671
21292WAT      O64117   6.840   1.170   3.184
21292WAT     H164118   6.846   1.235   3.259
21292WAT     H264119   6.877   1.211   3.101
21293WAT      O64120   9.737   0.456   5.473
21293WAT     H164121   9.775   0.392   5.540
21293WAT     H264122   9.638   0.463   5.486
21294WAT      O64123   6.096   5.088   3.645
21294WAT     H164124   6.008   5.114   3.604
21294WAT     H264125   6.079   5.032   3.726
21295WAT      O64126   5.275   6.239   2.463
21295WAT     H164127   5.181   6.210   2.478
21295WAT     H264128   5.319   6.176   2.399
21296WAT      O64129   4.971   7.108   3.147
21296WAT     H164130   5.053   7.052   3.132
21296WAT     H264131   4.996   7.204   3.147
21297WAT      O64132   7.736   5.519   1.729
21297WAT     H164133   7.747   5.571   1.814
21297WAT     H264134   7.826   5.505   1.688
21298WAT      O64135   2.975   5.318   4.733
21298WAT     H164136   2.878   5.317   4.708
21298WAT     H264137   3.004   5.411   4.753
21299WAT      O64138   5.237   5.684   2.049
21299WAT     H164139   5.149   5.731   2.046
21299WAT     H264140   5.296   5.727   2.117
21300WAT      O64141   8.219   3.035   4.005
21300WAT     H164142   8.276   3.071   3.931
21300WAT     H264143   8.145   2.980   3.966
21301WAT      O64144   7.551   8.729   0.289
21301WAT     H164145   7.595   8.678   0.215
21301WAT     H264146   7.497   8.667   0.345
21302WAT      O64147   3.151   9.577   4.152
21302WAT     H164148   3.190   9.669   4.146
21302WAT     H264149   3.223   9.510   4.133
21303WAT      O64150   3.250   2.235   7.394
21303WAT     H164151   3.175   2.292   7.359
21303WAT     H264152   3.314   2.215   7.320
21304WAT      O64153   5.098   9.303   5.754
21304WAT     H164154   5.190   9.342   5.767
21304WAT     H264155   5.095   9.252   5.669
21305WAT      O64156   9.130   6.405   5.549
21305WAT     H164157   9.077   6.417   5.633
21305WAT     H264158   9.193   6.328   5.561
21306WAT      O64159   3.449   6.198   5.446
21306WAT     H164160   3.425   6.275   5.504
21306WAT     H264161   3.459   6.115   5.502
21307WAT      O64162   4.485   5.324   2.559
21307WAT     H164163   4.580   5.296   2.541
21307WAT     H264164   4.446   5.266   2.630
21308WAT      O64165   3.879   6.494   7.904
21308WAT     H164166   3.947   6.568   7.910
21308WAT     H264167   3.853   6.465   7.996
21309WAT      O64168   7.204   4.425   1.215
21309WAT     H164169   7.300   4.398   1.219
21309WAT     H264170   7.175   4.429   1.119
21310WAT      O64171   7.667   4.095   4.238
21310WAT     H164172   7.572   4.112   4.212
21310WAT     H264173   7.686   3.997   4.233
21311WAT      O64174   9.532   6.939   1.622
21311WAT     H164175   9.500   6.925   1.716
21311WAT     H264176   9.620   6.986   1.623
21312WAT      O64177   3.944   1.702   7.254
21312WAT     H164178   4.000   1.757   7.192
21312WAT     H264179   3.858   1.678   7.208
21313WAT      O64180   8.659   0.500   3.168
21313WAT     H164181   8.704   0.571   3.115
21313WAT     H264182   8.728   0.440   3.209
21314WAT      O64183   4.949   2.133   7.235
21314WAT     H164184   5.039   2.124   7.191
21314WAT     H264185   4.879   2.090   7.178
21315WAT      O64186   8.606   3.115   5.902
21315WAT     H164187   8.632   3.070   5.816
21315WAT     H264188   8.674   3.095   5.972
21316WAT      O64189   3.103   6.837   5.394
21316WAT     H164190   3.090   6.788   5.308
21316WAT     H264191   3.116   6.935   5.374
21317WAT      O64192   5.859   1.936   3.026
21317WAT     H164193   5.825   1.848   2.993
21317WAT     H264194   5.924   1.922   3.100
21318WAT      O64195   0.161   3.018   4.753
21318WAT     H164196   0.208   2.934   4.782
21318WAT     H264197   0.132   3.008   4.658
21319WAT      O64198   0.592   6.742   6.618
21319WAT     H164199   0.624   6.836   6.603
21319WAT     H264200   0.504   6.744   6.665
21320WAT      O64201   0.456   8.513   5.846
21320WAT     H164202   0.542   8.565   5.849
21320WAT     H264203   0.386   8.567   5.800
21321WAT      O64204   5.493   2.565   9.123
21321WAT     H164205   5.481   2.466   9.114
21321WAT     H264206   5.414   2.612   9.082
21322WAT      O64207   2.838   4.834   4.565
21322WAT     H164208   2.777   4.852   4.487
21322WAT     H264209   2.914   4.777   4.534
21323WAT      O64210   3.351   3.509   9.440
21323WAT     H164211   3.410   3.445   9.489
21323WAT     H264212   3.321   3.581   9.503
21324WAT      O64213   0.296   7.336   7.647
21324WAT     H164214   0.388   7.348   7.610
21324WAT     H264215   0.230   7.331   7.572
21325WAT      O64216   2.577   6.671   0.759
21325WAT     H164217   2.517   6.602   0.798
21325WAT     H264218   2.522   6.738   0.709
21326WAT      O64219   4.406   3.170   1.814
21326WAT     H164220   4.483   3.116   1.779
21326WAT     H264221   4.384   3.140   1.906
21327WAT      O64222   5.867   4.918   0.338
21327WAT     H164223   5.889   4.847   0.270
21327WAT     H264224   5.909   5.004   0.310
21328WAT      O64225   5.765   2.623   0.721
21328WAT     H164226   5.734   2.694   0.785
21328WAT     H264227   5.842   2.657   0.668
21329WAT      O64228   1.272   8.608   4.956
21329WAT     H164229   1.225   8.666   5.022
21329WAT     H264230   1.227   8.519   4.952
21330WAT      O64231   2.877   0.007   0.628
21330WAT     H164232   2.939  -0.068   0.605
21330WAT     H264233   2.783  -0.021   0.610
21331WAT      O64234   6.619   5.920   5.709
21331WAT     H164235   6.578   5.854   5.646
21331WAT     H264236   6.689   5.972   5.660
21332WAT      O64237   9.367   4.322   0.564
21332WAT     H164238   9.301   4.249   0.585
21332WAT     H264239   9.395   4.367   0.649
21333WAT      O64240   4.386   2.326   4.017
21333WAT     H164241   4.350   2.273   4.093
21333WAT     H264242   4.351   2.290   3.930
21334WAT      O64243   6.963   1.475   2.530
21334WAT     H164244   6.930   1.565   2.559
21334WAT     H264245   6.885   1.418   2.503
21335WAT      O64246   7.510   3.345   3.121
21335WAT     H164247   7.488   3.280   3.048
21335WAT     H264248   7.427   3.367   3.171
21336WAT      O64249   9.031   3.939   4.898
21336WAT     H164250   9.092   4.016   4.918
21336WAT     H264251   9.038   3.872   4.971
21337WAT      O64252   3.161   8.463   8.872
21337WAT     H164253   3.112   8.548   8.893
21337WAT     H264254   3.172   8.454   8.773
21338WAT      O64255   7.411   4.526   0.905
21338WAT     H164256   7.367   4.446   0.864
21338WAT     H264257   7.386   4.608   0.854
21339WAT      O64258   4.625   4.757   8.860
21339WAT     H164259   4.585   4.767   8.952
21339WAT     H264260   4.562   4.707   8.801
21340WAT      O64261   6.878   7.735   5.304
21340WAT     H164262   6.873   7.659   5.239
21340WAT     H264263   6.900   7.819   5.254
21341WAT      O64264   4.227   8.330   9.101
21341WAT     H164265   4.241   8.387   9.020
21341WAT     H264266   4.136   8.350   9.140
21342WAT      O64267   2.247   1.271   6.254
21342WAT     H164268   2.316   1.224   6.199
21342WAT     H264269   2.267   1.369   6.256
21343WAT      O64270   1.729   0.928   8.178
21343WAT     H164271   1.717   1.026   8.158
21343WAT     H264272   1.720   0.913   8.277
21344WAT      O64273   3.952   0.997   3.541
21344WAT     H164274   3.917   0.904   3.534
21344WAT     H264275   4.032   0.998   3.602
21345WAT      O64276   4.288   6.097   4.967
21345WAT     H164277   4.230   6.017   4.982
21345WAT     H264278   4.328   6.127   5.053
21346WAT      O64279   9.789   8.096   6.897
21346WAT     H164280   9.726   8.148   6.838
21346WAT     H264281   9.739   8.062   6.976
21347WAT      O64282   2.514   5.111   7.053
21347WAT     H164283   2.612   5.110   7.071
21347WAT     H264284   2.467   5.051   7.118
21348WAT      O64285   2.385   3.462   3.721
21348WAT     H164286   2.338   3.374   3.731
21348WAT     H264287   2.450   3.474   3.795
21349WAT      O64288   8.030   7.843   8.585
21349WAT     H164289   8.115   7.888   8.557
21349WAT     H264290   7.976   7.821   8.504
21350WAT      O64291   4.848   4.205   1.172
21350WAT     H164292   4.773   4.210   1.238
21350WAT     H264293   4.934   4.184   1.220
21351WAT      O64294   9.643   1.739   3.699
21351WAT     H164295   9.656   1.710   3.794
21351WAT     H264296   9.549   1.770   3.686
21352WAT      O64297   7.062   2.642   3.486
21352WAT     H164298   6.971   2.662   3.450
21352WAT     H264299   7.129   2.654   3.413
21353WAT      O64300   1.933   2.160   1.401
21353WAT     H164301   1.853   2.129   1.452
21353WAT     H264302   2.005   2.187   1.465
21354WAT      O64303   1.446   9.016   5.115
21354WAT     H164304   1.379   9.034   5.187
21354WAT     H264305   1.510   9.093   5.111
21355WAT      O64306   7.289   9.518   4.713
21355WAT     H164307   7.308   9.570   4.629
21355WAT     H264308   7.294   9.578   4.792
21356WAT      O64309   2.801   5.550   9.123
21356WAT     H164310   2.872   5.495   9.081
21356WAT     H264311   2.731   5.573   9.055
21357WAT      O64312   0.073   9.327   7.520
21357WAT     H164313   0.079   9.228   7.504
21357WAT     H264314  -0.024   9.354   7.524
21358WAT      O64315   9.728   9.172   7.302
21358WAT     H164316   9.725   9.200   7.206
21358WAT     H264317   9.720   9.253   7.360
21359WAT      O64318   3.859   0.638   5.469
21359WAT     H164319   3.923   0.713   5.450
21359WAT     H264320   3.887   0.590   5.552
21360WAT      O64321   2.270   9.571   0.187
21360WAT     H164322   2.262   9.472   0.173
21360WAT     H264323   2.279   9.617   0.098
21361WAT      O64324   8.447   7.061   4.715
21361WAT     H164325   8.507   7.122   4.767
21361WAT     H264326   8.396   7.003   4.778
21362WAT      O64327   7.313   9.604   5.782
21362WAT     H164328   7.303   9.681   5.845
21362WAT     H264329   7.396   9.552   5.805
21363WAT      O64330   7.096   1.752   1.402
21363WAT     H164331   7.011   1.701   1.391
21363WAT     H264332   7.085   1.818   1.477
21364WAT      O64333   8.593   3.622   8.934
21364WAT     H164334   8.568   3.585   8.844
21364WAT     H264335   8.511   3.632   8.990
21365WAT      O64336   6.442   4.081   5.300
21365WAT     H164337   6.344   4.060   5.295
21365WAT     H264338   6.465   4.150   5.231
21366WAT      O64339   1.254   3.599   6.674
21366WAT     H164340   1.209   3.689   6.672
21366WAT     H264341   1.329   3.601   6.739
21367WAT      O64342   5.745   4.354   8.403
21367WAT     H164343   5.698   4.416   8.341
21367WAT     H264344   5.718   4.373   8.497
21368WAT      O64345   6.304   5.558   8.444
21368WAT     H164346   6.328   5.462   8.461
21368WAT     H264347   6.387   5.614   8.450
21369WAT      O64348   6.035   6.637   8.048
21369WAT     H164349   6.088   6.552   8.040
21369WAT     H264350   5.939   6.615   8.066
21370WAT      O64351   8.434   9.662   2.407
21370WAT     H164352   8.339   9.630   2.408
21370WAT     H264353   8.494   9.588   2.378
21371WAT      O64354   4.171   4.960   5.855
21371WAT     H164355   4.225   4.944   5.772
21371WAT     H264356   4.226   4.938   5.935
21372WAT      O64357   1.823   4.385   3.550
21372WAT     H164358   1.908   4.332   3.545
21372WAT     H264359   1.827   4.446   3.629
21373WAT      O64360   2.244   6.019   0.200
21373WAT     H164361   2.314   6.002   0.131
21373WAT     H264362   2.184   6.093   0.170
21374WAT      O64363   9.279   0.705   1.296
21374WAT     H164364   9.343   0.747   1.232
21374WAT     H264365   9.317   0.708   1.388
21375WAT      O64366   7.296   2.678   5.311
21375WAT     H164367   7.229   2.729   5.257
21375WAT     H264368   7.249   2.618   5.375
21376WAT      O64369   0.887   8.573   5.548
21376WAT     H164370   0.856   8.484   5.583
21376WAT     H264371   0.810   8.637   5.547
21377WAT      O64372   5.316   3.805   4.158
21377WAT     H164373   5.249   3.805   4.233
21377WAT     H264374   5.275   3.765   4.076
21378WAT      O64375   0.701   6.299   3.342
21378WAT     H164376   0.727   6.389   3.377
21378WAT     H264377   0.753   6.228   3.391
21379WAT      O64378   2.042   1.947   4.038
21379WAT     H164379   2.002   1.971   3.950
21379WAT     H264380   2.125   2.001   4.053
21380WAT      O64381   4.382   0.902   1.995
21380WAT     H164382   4.433   0.929   2.077
21380WAT     H264383   4.365   0.804   1.996
21381WAT      O64384   1.557   6.266   7.741
21381WAT     H164385   1.545   6.208   7.822
21381WAT     H264386   1.496   6.345   7.747
21382WAT      O64387   2.316   1.296   9.880
21382WAT     H164388   2.331   1.361   9.955
21382WAT     H264389   2.359   1.209   9.904
21383WAT      O64390   2.453   0.789   5.582
21383WAT     H164391   2.529   0.851   5.564
21383WAT     H264392   2.367   0.839   5.574
21384WAT      O64393   9.746   4.509   0.080
21384WAT     H164394   9.685   4.450   0.028
21384WAT     H264395   9.779   4.460   0.161
21385WAT      O64396   1.953   1.090   9.597
21385WAT     H164397   1.867   1.128   9.632
21385WAT     H264398   1.978   1.010   9.651
21386WAT      O64399   3.281   7.603   4.050
21386WAT     H164400   3.322   7.579   4.138
21386WAT     H264401   3.330   7.680   4.010
21387WAT      O64402   5.291   2.109   9.571
21387WAT     H164403   5.325   2.202   9.586
21387WAT     H264404   5.361   2.055   9.526
21388WAT      O64405   0.715   9.651   7.702
21388WAT     H164406   0.779   9.704   7.759
21388WAT     H264407   0.640   9.617   7.759
21389WAT      O64408   9.237   1.571   4.973
21389WAT     H164409   9.149   1.531   4.945
21389WAT     H264410   9.267   1.528   5.058
21390WAT      O64411   4.352   2.011   0.563
21390WAT     H164412   4.330   2.102   0.530
21390WAT     H264413   4.347   1.946   0.488
21391WAT      O64414   0.406   4.606   5.471
21391WAT     H164415   0.332   4.613   5.404
21391WAT     H264416   0.370   4.622   5.563
21392WAT      O64417   1.242   6.100   9.506
21392WAT     H164418   1.241   6.059   9.597
21392WAT     H264419   1.257   6.028   9.438
21393WAT      O64420   3.222   6.207   9.475
21393WAT     H164421   3.132   6.164   9.478
21393WAT     H264422   3.269   6.180   9.391
21394WAT      O64423   7.296   8.583   3.982
21394WAT     H164424   7.303   8.562   3.884
21394WAT     H264425   7.385   8.571   4.025
21395WAT      O64426   5.351   8.189   9.548
21395WAT     H164427   5.272   8.225   9.499
21395WAT     H264428   5.390   8.262   9.605
21396WAT      O64429   4.131   1.003   2.184
21396WAT     H164430   4.159   1.015   2.088
21396WAT     H264431   4.032   0.998   2.189
21397WAT      O64432   4.456   6.850   2.711
21397WAT     H164433   4.430   6.919   2.778
21397WAT     H264434   4.374   6.823   2.659
21398WAT      O64435   8.044   4.803   6.952
21398WAT     H164436   7.946   4.820   6.964
21398WAT     H264437   8.091   4.890   6.937
21399WAT      O64438   2.704   0.253   7.667
21399WAT     H164439   2.738   0.306   7.744
21399WAT     H264440   2.632   0.305   7.620
21400WAT      O64441   0.367   2.261   1.113
21400WAT     H164442   0.299   2.244   1.042
21400WAT     H264443   0.332   2.229   1.201
21401WAT      O64444   3.755   9.599   1.519
21401WAT     H164445   3.854   9.597   1.505
21401WAT     H264446   3.724   9.694   1.528
21402WAT      O64447   9.480   7.260   3.080
21402WAT     H164448   9.443   7.298   3.165
21402WAT     H264449   9.579   7.271   3.080
21403WAT      O64450   4.663   7.804   0.070
21403WAT     H164451   4.741   7.785   0.010
21403WAT     H264452   4.600   7.866   0.024
21404WAT      O64453   6.611   0.640   2.540
21404WAT     H164454   6.534   0.582   2.513
21404WAT     H264455   6.690   0.621   2.481
21405WAT      O64456   7.279   4.092   6.189
21405WAT     H164457   7.267   4.172   6.132
21405WAT     H264458   7.365   4.047   6.165
21406WAT      O64459   3.691   3.934   1.582
21406WAT     H164460   3.723   3.910   1.673
21406WAT     H264461   3.696   4.033   1.569
21407WAT      O64462   3.239   4.420   3.567
21407WAT     H164463   3.302   4.344   3.580
21407WAT     H264464   3.229   4.470   3.652
21408WAT      O64465   6.495   2.791   8.064
21408WAT     H164466   6.431   2.796   8.141
21408WAT     H264467   6.585   2.764   8.097
21409WAT      O64468   3.830   6.073   7.132
21409WAT     H164469   3.901   6.003   7.120
21409WAT     H264470   3.812   6.085   7.229
21410WAT      O64471   8.829   8.314   5.081
21410WAT     H164472   8.837   8.237   5.017
21410WAT     H264473   8.741   8.360   5.065
21411WAT      O64474   1.341   0.886   8.410
21411WAT     H164475   1.288   0.926   8.335
21411WAT     H264476   1.335   0.944   8.490
21412WAT      O64477   7.407   6.390   4.954
21412WAT     H164478   7.481   6.324   4.969
21412WAT     H264479   7.442   6.469   4.904
21413WAT      O64480   0.941   4.427   2.645
21413WAT     H164481   1.009   4.395   2.579
21413WAT     H264482   0.901   4.348   2.692
21414WAT      O64483   9.419   0.414   5.055
21414WAT     H164484   9.328   0.378   5.035
21414WAT     H264485   9.463   0.357   5.125
21415WAT      O64486   8.246   8.511   0.563
21415WAT     H164487   8.202   8.443   0.505
21415WAT     H264488   8.212   8.503   0.657
21416WAT      O64489   1.878   8.636   6.796
21416WAT     H164490   1.820   8.640   6.714
21416WAT     H264491   1.823   8.660   6.876
21417WAT      O64492   0.123   2.740   9.210
21417WAT     H164493   0.139   2.650   9.170
21417WAT     H264494   0.167   2.744   9.300
21418WAT      O64495   0.334   8.958   1.849
21418WAT     H164496   0.276   8.899   1.905
21418WAT     H264497   0.415   8.985   1.901
21419WAT      O64498   6.315   8.275   8.636
21419WAT     H164499   6.306   8.372   8.660
21419WAT     H264500   6.369   8.228   8.705
21420WAT      O64501   8.058   7.898   7.339
21420WAT     H164502   8.067   7.868   7.244
21420WAT     H264503   8.139   7.873   7.390
21421WAT      O64504   4.240   4.531   5.707
21421WAT     H164505   4.310   4.581   5.760
21421WAT     H264506   4.183   4.597   5.657
21422WAT      O64507   5.133   5.464   2.324
21422WAT     H164508   5.139   5.564   2.325
21422WAT     H264509   5.047   5.435   2.368
21423WAT      O64510   0.749   5.609   8.187
21423WAT     H164511   0.727   5.512   8.188
21423WAT     H264512   0.777   5.637   8.095
21424WAT      O64513   2.078   0.669   9.040
21424WAT     H164514   2.007   0.647   9.107
21424WAT     H264515   2.051   0.749   8.988
21425WAT      O64516   9.159   6.764   8.048
21425WAT     H164517   9.099   6.806   8.116
21425WAT     H264518   9.176   6.829   7.974
21426WAT      O64519   3.725   7.325   9.073
21426WAT     H164520   3.797   7.304   9.007
21426WAT     H264521   3.654   7.256   9.069
21427WAT      O64522   7.231   3.121   9.495
21427WAT     H164523   7.256   3.146   9.402
21427WAT     H264524   7.172   3.040   9.493
21428WAT      O64525   3.032   4.558   1.758
21428WAT     H164526   3.040   4.464   1.724
21428WAT     H264527   2.992   4.615   1.686
21429WAT      O64528   5.584   7.802   5.309
21429WAT     H164529   5.599   7.714   5.354
21429WAT     H264530   5.489   7.831   5.323
21430WAT      O64531   9.283   0.414   8.063
21430WAT     H164532   9.260   0.378   7.973
21430WAT     H264533   9.201   0.415   8.120
21431WAT      O64534   2.598   1.751   3.230
21431WAT     H164535   2.594   1.729   3.133
21431WAT     H264536   2.694   1.757   3.258
21432WAT      O64537   7.752   2.776   1.174
21432WAT     H164538   7.846   2.771   1.208
21432WAT     H264539   7.727   2.872   1.159
21433WAT      O64540   4.875   3.939   4.530
21433WAT     H164541   4.850   3.896   4.616
21433WAT     H264542   4.926   4.023   4.548
21434WAT      O64543   4.724   6.994   7.373
21434WAT     H164544   4.654   7.054   7.411
21434WAT     H264545   4.787   6.967   7.446
21435WAT      O64546   2.640   5.388   6.145
21435WAT     H164547   2.607   5.386   6.051
21435WAT     H264548   2.739   5.377   6.146
21436WAT      O64549   4.439   4.319   5.938
21436WAT     H164550   4.404   4.282   5.853
21436WAT     H264551   4.405   4.265   6.015
21437WAT      O64552   7.410   5.721   6.138
21437WAT     H164553   7.429   5.733   6.040
21437WAT     H264554   7.401   5.624   6.158
21438WAT      O64555   7.097   7.716   3.280
21438WAT     H164556   7.168   7.747   3.344
21438WAT     H264557   7.138   7.657   3.210
21439WAT      O64558   2.163   9.034   1.938
21439WAT     H164559   2.098   8.967   1.974
21439WAT     H264560   2.153   9.120   1.988
21440WAT      O64561   8.585   4.942   3.735
21440WAT     H164562   8.550   4.979   3.821
21440WAT     H264563   8.584   4.842   3.740
21441WAT      O64564   7.481   3.674   4.385
21441WAT     H164565   7.524   3.603   4.328
21441WAT     H264566   7.529   3.680   4.472
21442WAT      O64567   7.953   3.411   9.016
21442WAT     H164568   7.978   3.314   9.020
21442WAT     H264569   8.022   3.465   9.063
21443WAT      O64570   1.603   0.289   0.381
21443WAT     H164571   1.609   0.349   0.461
21443WAT     H264572   1.684   0.302   0.324
21444WAT      O64573   3.281   8.465   8.600
21444WAT     H164574   3.273   8.400   8.524
21444WAT     H264575   3.249   8.555   8.570
21445WAT      O64576   7.455   6.515   0.747
21445WAT     H164577   7.444   6.505   0.648
21445WAT     H264578   7.531   6.577   0.766
21446WAT      O64579   2.781   2.485   1.444
21446WAT     H164580   2.856   2.519   1.501
21446WAT     H264581   2.817   2.427   1.372
21447WAT      O64582   4.951   2.825   5.777
21447WAT     H164583   4.898   2.829   5.862
21447WAT     H264584   4.935   2.738   5.732
21448WAT      O64585   2.949   1.736   2.944
21448WAT     H164586   3.047   1.730   2.923
21448WAT     H264587   2.904   1.797   2.879
21449WAT      O64588   2.766   7.016   5.089
21449WAT     H164589   2.724   7.061   5.009
21449WAT     H264590   2.806   6.929   5.060
21450WAT      O64591   0.755   8.485   9.029
21450WAT     H164592   0.855   8.481   9.034
21450WAT     H264593   0.721   8.406   8.978
21451WAT      O64594   9.362   1.734   0.771
21451WAT     H164595   9.414   1.761   0.851
21451WAT     H264596   9.356   1.634   0.767
21452WAT      O64597   1.731   5.432   5.849
21452WAT     H164598   1.811   5.372   5.843
21452WAT     H264599   1.711   5.469   5.758
21453WAT      O64600   1.279   5.854   6.612
21453WAT     H164601   1.333   5.771   6.601
21453WAT     H264602   1.289   5.888   6.706
21454WAT      O64603   5.907   2.662   4.725
21454WAT     H164604   5.876   2.636   4.633
21454WAT     H264605   5.834   2.711   4.772
21455WAT      O64606   5.880   9.664   7.738
21455WAT     H164607   5.965   9.711   7.715
21455WAT     H264608   5.898   9.595   7.807
21456WAT      O64609   3.763   8.991   0.285
21456WAT     H164610   3.759   8.896   0.319
21456WAT     H264611   3.682   9.011   0.230
21457WAT      O64612   7.753   8.507   0.479
21457WAT     H164613   7.745   8.606   0.484
21457WAT     H264614   7.848   8.481   0.463
21458WAT      O64615   6.339   2.683   0.602
21458WAT     H164616   6.299   2.591   0.600
21458WAT     H264617   6.412   2.686   0.670
21459WAT      O64618   7.448   8.223   1.593
21459WAT     H164619   7.360   8.248   1.554
21459WAT     H264620   7.521   8.268   1.542
21460WAT      O64621   9.243   3.765   5.341
21460WAT     H164622   9.343   3.756   5.340
21460WAT     H264623   9.206   3.738   5.253
21461WAT      O64624   5.193   0.486   5.567
21461WAT     H164625   5.226   0.392   5.571
21461WAT     H264626   5.095   0.489   5.587
21462WAT      O64627   9.277   3.771   0.538
21462WAT     H164628   9.212   3.696   0.523
21462WAT     H264629   9.230   3.849   0.580
21463WAT      O64630   1.265   9.100   5.335
21463WAT     H164631   1.281   9.017   5.389
21463WAT     H264632   1.171   9.131   5.348
21464WAT      O64633   6.287   8.008   3.839
21464WAT     H164634   6.283   7.966   3.749
21464WAT     H264635   6.212   7.974   3.896
21465WAT      O64636   3.101   2.029   1.186
21465WAT     H164637   3.059   1.940   1.207
21465WAT     H264638   3.049   2.101   1.232
21466WAT      O64639   2.203   7.462   2.350
21466WAT     H164640   2.124   7.477   2.409
21466WAT     H264641   2.232   7.367   2.356
21467WAT      O64642   0.198   5.123   3.286
21467WAT     H164643   0.127   5.053   3.292
21467WAT     H264644   0.284   5.080   3.260
21468WAT      O64645   6.798   7.226   5.324
21468WAT     H164646   6.703   7.210   5.298
21468WAT     H264647   6.859   7.201   5.249
21469WAT      O64648   3.232   3.976   3.580
21469WAT     H164649   3.286   4.060   3.577
21469WAT     H264650   3.191   3.967   3.671
21470WAT      O64651   2.517   1.041   4.758
21470WAT     H164652   2.504   0.949   4.721
21470WAT     H264653   2.479   1.109   4.695
21471WAT      O64654   6.186   0.210   4.069
21471WAT     H164655   6.130   0.136   4.029
21471WAT     H264656   6.143   0.298   4.050
21472WAT      O64657   3.044   7.815   8.121
21472WAT     H164658   2.971   7.793   8.186
21472WAT     H264659   3.103   7.735   8.109
21473WAT      O64660   3.696   2.112   4.733
21473WAT     H164661   3.641   2.194   4.747
21473WAT     H264662   3.639   2.031   4.749
21474WAT      O64663   0.863   8.059   5.472
21474WAT     H164664   0.788   8.059   5.538
21474WAT     H264665   0.885   7.964   5.447
21475WAT      O64666   0.625   6.896   9.623
21475WAT     H164667   0.556   6.826   9.608
21475WAT     H264668   0.710   6.853   9.656
21476WAT      O64669   7.080   6.713   4.754
21476WAT     H164670   7.140   6.708   4.674
21476WAT     H264671   6.988   6.737   4.724
21477WAT      O64672   5.607   4.239   3.430
21477WAT     H164673   5.568   4.174   3.364
21477WAT     H264674   5.607   4.331   3.389
21478WAT      O64675   0.297   5.634   9.855
21478WAT     H164676   0.236   5.557   9.836
21478WAT     H264677   0.390   5.601   9.867
21479WAT      O64678   1.221   5.822   4.961
21479WAT     H164679   1.173   5.852   4.878
21479WAT     H264680   1.260   5.731   4.945
21480WAT      O64681   4.691   2.048   5.401
21480WAT     H164682   4.598   2.015   5.419
21480WAT     H264683   4.745   2.043   5.484
21481WAT      O64684   4.641   8.926   0.730
21481WAT     H164685   4.735   8.945   0.699
21481WAT     H264686   4.642   8.910   0.829
21482WAT      O64687   6.365   5.735   9.781
21482WAT     H164688   6.336   5.796   9.707
21482WAT     H264689   6.301   5.659   9.788
21483WAT      O64690   5.306   8.799   6.331
21483WAT     H164691   5.248   8.877   6.356
21483WAT     H264692   5.390   8.833   6.289
21484WAT      O64693   2.946   6.291   6.587
21484WAT     H164694   3.020   6.259   6.528
21484WAT     H264695   2.967   6.268   6.682
21485WAT      O64696   6.362   6.941   0.488
21485WAT     H164697   6.327   6.877   0.420
21485WAT     H264698   6.288   6.969   0.549
21486WAT      O64699   8.074   2.581   1.135
21486WAT     H164700   8.104   2.618   1.047
21486WAT     H264701   8.059   2.656   1.199
21487WAT      O64702   4.170   7.902   5.113
21487WAT     H164703   4.255   7.860   5.146
21487WAT     H264704   4.099   7.894   5.183
21488WAT      O64705   4.198   6.625   3.319
21488WAT     H164706   4.289   6.642   3.357
21488WAT     H264707   4.175   6.528   3.328
21489WAT      O64708   4.548   5.961   8.232
21489WAT     H164709   4.579   6.029   8.165
21489WAT     H264710   4.569   5.869   8.198
21490WAT      O64711   5.594   6.720   6.560
21490WAT     H164712   5.526   6.726   6.487
21490WAT     H264713   5.685   6.739   6.522
21491WAT      O64714   3.095   5.174   4.537
21491WAT     H164715   3.072   5.245   4.603
21491WAT     H264716   3.150   5.103   4.581
21492WAT      O64717   5.383   4.985   7.721
21492WAT     H164718   5.475   5.018   7.700
21492WAT     H264719   5.358   5.015   7.814
21493WAT      O64720   4.851   1.222   9.375
21493WAT     H164721   4.862   1.317   9.343
21493WAT     H264722   4.754   1.206   9.396
21494WAT      O64723   6.758   4.197   9.633
21494WAT     H164724   6.767   4.223   9.730
21494WAT     H264725   6.674   4.143   9.621
21495WAT      O64726   3.098   2.404   8.378
21495WAT     H164727   3.146   2.480   8.421
21495WAT     H264728   3.037   2.361   8.445
21496WAT      O64729   8.964   1.912   6.680
21496WAT     H164730   8.940   2.007   6.661
21496WAT     H264731   8.967   1.898   6.779
21497WAT      O64732   1.688   7.300   4.227
21497WAT     H164733   1.758   7.312   4.297
21497WAT     H264734   1.711   7.222   4.169
21498WAT      O64735   7.239   7.368   5.027
21498WAT     H164736   7.311   7.418   4.978
21498WAT     H264737   7.280   7.292   5.076
21499WAT      O64738   6.549   0.144   4.621
21499WAT     H164739   6.450   0.148   4.608
21499WAT     H264740   6.569   0.122   4.717
21500WAT      O64741   5.515   1.404   5.624
21500WAT     H164742   5.516   1.495   5.581
21500WAT     H264743   5.495   1.335   5.555
21501WAT      O64744   6.495   3.082   7.323
21501WAT     H164745   6.546   3.144   7.264
21501WAT     H264746   6.437   3.135   7.384
21502WAT      O64747   0.744   5.226   2.789
21502WAT     H164748   0.790   5.199   2.874
21502WAT     H264749   0.647   5.204   2.795
21503WAT      O64750   4.681   4.286   2.393
21503WAT     H164751   4.728   4.310   2.478
21503WAT     H264752   4.624   4.363   2.364
21504WAT      O64753   8.870   8.723   1.829
21504WAT     H164754   8.839   8.734   1.923
21504WAT     H264755   8.915   8.635   1.819
21505WAT      O64756   4.991   9.539   9.174
21505WAT     H164757   5.023   9.445   9.187
21505WAT     H264758   5.043   9.601   9.232
21506WAT      O64759   9.124   9.420   7.575
21506WAT     H164760   9.055   9.474   7.623
21506WAT     H264761   9.211   9.427   7.623
21507WAT      O64762   4.544   4.797   2.842
21507WAT     H164763   4.467   4.750   2.799
21507WAT     H264764   4.511   4.853   2.918
21508WAT      O64765   9.221   6.312   8.867
21508WAT     H164766   9.267   6.400   8.879
21508WAT     H264767   9.225   6.260   8.952
21509WAT      O64768   6.157   1.955   1.851
21509WAT     H164769   6.173   1.857   1.851
21509WAT     H264770   6.126   1.984   1.761
21510WAT      O64771   2.683   1.870   7.968
21510WAT     H164772   2.631   1.948   8.005
21510WAT     H264773   2.630   1.786   7.981
21511WAT      O64774   9.219   4.210   3.332
21511WAT     H164775   9.238   4.112   3.330
21511WAT     H264776   9.189   4.240   3.241
21512WAT      O64777   7.280   3.867   4.265
21512WAT     H164778   7.374   3.858   4.298
21512WAT     H264779   7.260   3.793   4.201
21513WAT      O64780   6.624   6.921   9.618
21513WAT     H164781   6.559   6.995   9.602
21513WAT     H264782   6.600   6.842   9.562
21514WAT      O64783   7.576   6.287   3.338
21514WAT     H164784   7.641   6.362   3.352
21514WAT     H264785   7.498   6.321   3.285
21515WAT      O64786   9.855   1.154   1.836
21515WAT     H164787   9.775   1.096   1.854
21515WAT     H264788   9.825   1.247   1.815
21516WAT      O64789   5.905   6.705   5.007
21516WAT     H164790   5.874   6.627   5.062
21516WAT     H264791   5.826   6.758   4.977
21517WAT      O64792   6.410   8.584   8.710
21517WAT     H164793   6.428   8.669   8.659
21517WAT     H264794   6.316   8.586   8.746
21518WAT      O64795   7.406   7.283   3.762
21518WAT     H164796   7.366   7.201   3.802
21518WAT     H264797   7.334   7.349   3.742
21519WAT      O64798   1.235   0.215   1.777
21519WAT     H164799   1.238   0.315   1.778
21519WAT     H264800   1.259   0.181   1.686
21520WAT      O64801   8.019   3.937   3.303
21520WAT     H164802   8.072   3.854   3.320
21520WAT     H264803   7.958   3.922   3.226
21521WAT      O64804   4.571   8.466   1.302
21521WAT     H164805   4.658   8.427   1.270
21521WAT     H264806   4.507   8.392   1.323
21522WAT      O64807   2.885   1.886   0.547
21522WAT     H164808   2.935   1.847   0.624
21522WAT     H264809   2.875   1.816   0.476
21523WAT      O64810   4.541   7.667   0.277
21523WAT     H164811   4.560   7.706   0.367
21523WAT     H264812   4.595   7.715   0.208
21524WAT      O64813   8.771   6.705   4.191
21524WAT     H164814   8.794   6.766   4.268
21524WAT     H264815   8.852   6.651   4.168
21525WAT      O64816   9.851   7.965   5.334
21525WAT     H164817   9.759   7.942   5.302
21525WAT     H264818   9.919   7.916   5.280
21526WAT      O64819   4.827   6.038   8.246
21526WAT     H164820   4.833   6.001   8.339
21526WAT     H264821   4.827   6.138   8.250
21527WAT      O64822   3.047   2.389   9.001
21527WAT     H164823   2.950   2.361   9.001
21527WAT     H264824   3.054   2.486   9.023
21528WAT      O64825   8.783   5.232   6.934
21528WAT     H164826   8.728   5.315   6.943
21528WAT     H264827   8.774   5.177   7.017
21529WAT      O64828   5.848   2.570   6.795
21529WAT     H164829   5.873   2.527   6.709
21529WAT     H264830   5.818   2.664   6.778
21530WAT      O64831   3.723   3.855   0.331
21530WAT     H164832   3.627   3.840   0.352
21530WAT     H264833   3.775   3.771   0.348
21531WAT      O64834   6.294   9.780   9.476
21531WAT     H164835   6.378   9.761   9.527
21531WAT     H264836   6.309   9.763   9.379
21532WAT      O64837   6.132   2.598   1.154
21532WAT     H164838   6.113   2.575   1.059
21532WAT     H264839   6.230   2.615   1.165
21533WAT      O64840   2.665   2.253   9.216
21533WAT     H164841   2.691   2.171   9.269
21533WAT     H264842   2.621   2.319   9.277
21534WAT      O64843   5.083   9.126   0.772
21534WAT     H164844   5.028   9.079   0.842
21534WAT     H264845   5.102   9.219   0.802
21535WAT      O64846   5.297   5.986   0.252
21535WAT     H164847   5.256   5.998   0.161
21535WAT     H264848   5.392   5.957   0.241
21536WAT      O64849   7.649   8.632   7.830
21536WAT     H164850   7.700   8.717   7.846
21536WAT     H264851   7.649   8.577   7.914
21537WAT      O64852   3.881   1.402   3.610
21537WAT     H164853   3.797   1.380   3.560
21537WAT     H264854   3.957   1.350   3.572
21538WAT      O64855   6.831   8.808   4.554
21538WAT     H164856   6.811   8.906   4.545
21538WAT     H264857   6.878   8.792   4.640
21539WAT      O64858   6.442   2.437   2.199
21539WAT     H164859   6.472   2.342   2.195
21539WAT     H264860   6.367   2.446   2.264
21540WAT      O64861   3.071   0.470   2.583
21540WAT     H164862   3.066   0.371   2.600
21540WAT     H264863   3.043   0.518   2.666
21541WAT      O64864   0.900   3.555   3.916
21541WAT     H164865   0.821   3.517   3.964
21541WAT     H264866   0.973   3.575   3.981
21542WAT      O64867   1.194   8.329   0.166
21542WAT     H164868   1.205   8.367   0.258
21542WAT     H264869   1.264   8.367   0.105
21543WAT      O64870   6.049   6.873   7.500
21543WAT     H164871   6.074   6.844   7.592
21543WAT     H264872   5.962   6.923   7.502
21544WAT      O64873   3.327   4.444   2.485
21544WAT     H164874   3.379   4.507   2.542
21544WAT     H264875   3.366   4.443   2.392
21545WAT      O64876   7.893   0.152   2.178
21545WAT     H164877   7.925   0.221   2.243
21545WAT     H264878   7.967   0.129   2.115
21546WAT      O64879   5.807   2.193   7.617
21546WAT     H164880   5.732   2.140   7.656
21546WAT     H264881   5.782   2.223   7.525
21547WAT      O64882   7.695   3.216   1.622
21547WAT     H164883   7.676   3.147   1.553
21547WAT     H264884   7.721   3.171   1.708
21548WAT      O64885   9.522   4.588   8.479
21548WAT     H164886   9.428   4.557   8.491
21548WAT     H264887   9.543   4.593   8.381
21549WAT      O64888   6.489   0.105   6.121
21549WAT     H164889   6.433   0.182   6.151
21549WAT     H264890   6.489   0.102   6.021
21550WAT      O64891   2.355   2.685   6.832
21550WAT     H164892   2.448   2.709   6.804
21550WAT     H264893   2.315   2.761   6.883
21551WAT      O64894   5.573   2.297   7.190
21551WAT     H164895   5.667   2.309   7.158
21551WAT     H264896   5.514   2.277   7.112
21552WAT      O64897   0.634   4.311   0.843
21552WAT     H164898   0.700   4.338   0.914
21552WAT     H264899   0.683   4.271   0.766
21553WAT      O64900   5.997   0.364   7.061
21553WAT     H164901   6.039   0.394   6.975
21553WAT     H264902   5.966   0.444   7.112
21554WAT      O64903   3.067   1.338   3.041
21554WAT     H164904   3.066   1.325   3.141
21554WAT     H264905   3.158   1.369   3.013
21555WAT      O64906   8.954   7.234   6.305
21555WAT     H164907   8.934   7.217   6.402
21555WAT     H264908   8.870   7.223   6.252
21556WAT      O64909   5.319   6.617   3.570
21556WAT     H164910   5.378   6.582   3.643
21556WAT     H264911   5.374   6.667   3.504
21557WAT      O64912   5.081   2.148   8.605
21557WAT     H164913   5.025   2.067   8.624
21557WAT     H264914   5.086   2.163   8.506
21558WAT      O64915   4.988   0.613   5.048
21558WAT     H164916   4.907   0.617   4.989
21558WAT     H264917   5.039   0.699   5.040
21559WAT      O64918   7.396   2.457   1.503
21559WAT     H164919   7.431   2.550   1.495
21559WAT     H264920   7.381   2.435   1.599
21560WAT      O64921   3.896   3.519   4.838
21560WAT     H164922   3.866   3.504   4.933
21560WAT     H264923   3.920   3.615   4.826
21561WAT      O64924   8.800   3.031   1.958
21561WAT     H164925   8.877   2.990   2.006
21561WAT     H264926   8.740   2.959   1.923
21562WAT      O64927   7.583   1.495   4.388
21562WAT     H164928   7.656   1.503   4.320
21562WAT     H264929   7.617   1.525   4.477
21563WAT      O64930   8.674   0.438   1.448
21563WAT     H164931   8.582   0.473   1.466
21563WAT     H264932   8.701   0.377   1.523
21564WAT      O64933   6.679   8.712   1.785
21564WAT     H164934   6.685   8.616   1.756
21564WAT     H264935   6.731   8.725   1.869
21565WAT      O64936   4.401   5.502   3.823
21565WAT     H164937   4.491   5.544   3.832
21565WAT     H264938   4.384   5.478   3.727
21566WAT      O64939   3.650   6.160   2.543
21566WAT     H164940   3.621   6.091   2.477
21566WAT     H264941   3.743   6.191   2.520
21567WAT      O64942   7.666   3.054   6.166
21567WAT     H164943   7.588   3.101   6.126
21567WAT     H264944   7.637   2.964   6.200
21568WAT      O64945   1.384   6.708   4.071
21568WAT     H164946   1.480   6.734   4.081
21568WAT     H264947   1.348   6.744   3.985
21569WAT      O64948   8.964   1.300   5.931
21569WAT     H164949   9.029   1.318   5.856
21569WAT     H264950   9.015   1.277   6.014
21570WAT      O64951   1.359   7.915   1.816
21570WAT     H164952   1.406   7.829   1.834
21570WAT     H264953   1.319   7.911   1.724
21571WAT      O64954   4.977   1.837   3.358
21571WAT     H164955   4.954   1.891   3.439
21571WAT     H264956   4.905   1.847   3.290
21572WAT      O64957   6.034   5.209   1.545
21572WAT     H164958   6.009   5.243   1.636
21572WAT     H264959   5.967   5.239   1.478
21573WAT      O64960   3.472   0.945   5.792
21573WAT     H164961   3.472   0.869   5.857
21573WAT     H264962   3.443   0.912   5.702
21574WAT      O64963   4.161   9.816   0.627
21574WAT     H164964   4.154   9.898   0.571
21574WAT     H264965   4.069   9.784   0.651
21575WAT      O64966   4.332   7.071   2.829
21575WAT     H164967   4.263   7.133   2.791
21575WAT     H264968   4.329   7.075   2.928
21576WAT      O64969   2.116   1.347   1.995
21576WAT     H164970   2.156   1.419   2.053
21576WAT     H264971   2.037   1.385   1.946
21577WAT      O64972   0.775   0.876   2.544
21577WAT     H164973   0.856   0.862   2.601
21577WAT     H264974   0.695   0.836   2.587
21578WAT      O64975   5.568   7.877   0.660
21578WAT     H164976   5.581   7.798   0.720
21578WAT     H264977   5.472   7.883   0.632
21579WAT      O64978   6.739   8.080   2.578
21579WAT     H164979   6.834   8.063   2.554
21579WAT     H264980   6.679   8.026   2.519
21580WAT      O64981   1.244   2.928   1.140
21580WAT     H164982   1.311   2.854   1.127
21580WAT     H264983   1.152   2.892   1.128
21581WAT      O64984   5.917   9.383   1.199
21581WAT     H164985   6.017   9.386   1.197
21581WAT     H264986   5.884   9.443   1.272
21582WAT      O64987   8.793   8.263   6.716
21582WAT     H164988   8.773   8.177   6.670
21582WAT     H264989   8.793   8.249   6.815
21583WAT      O64990   6.018   1.213   9.221
21583WAT     H164991   6.103   1.167   9.247
21583WAT     H264992   6.032   1.312   9.223
21584WAT      O64993   7.593   0.077   9.773
21584WAT     H164994   7.676   0.132   9.763
21584WAT     H264995   7.568   0.071   9.870
21585WAT      O64996   2.450   5.903   6.203
21585WAT     H164997   2.475   5.807   6.216
21585WAT     H264998   2.408   5.937   6.288
21586WAT      O64999   0.678   8.243   2.617
21586WAT     H165000   0.699   8.323   2.673
21586WAT     H265001   0.722   8.162   2.656
21587WAT      O65002   3.026   1.157   1.652
21587WAT     H165003   3.038   1.208   1.566
21587WAT     H265004   2.950   1.092   1.642
21588WAT      O65005   9.164   9.035   2.358
21588WAT     H165006   9.129   8.942   2.361
21588WAT     H265007   9.119   9.090   2.428
21589WAT      O65008   8.587   3.623   1.094
21589WAT     H165009   8.673   3.571   1.094
21589WAT     H265010   8.554   3.631   1.188
21590WAT      O65011   4.492   3.583   3.111
21590WAT     H165012   4.505   3.527   3.193
21590WAT     H265013   4.400   3.568   3.075
21591WAT      O65014   3.870   0.856   3.980
21591WAT     H165015   3.965   0.883   3.993
21591WAT     H265016   3.865   0.756   3.973
21592WAT      O65017   1.049   7.033   0.415
21592WAT     H165018   1.095   7.043   0.327
21592WAT     H265019   1.058   7.118   0.467
21593WAT      O65020   7.114   8.971   8.322
21593WAT     H165021   7.143   8.919   8.241
21593WAT     H265022   7.195   8.999   8.374
21594WAT      O65023   9.166   5.452   3.035
21594WAT     H165024   9.234   5.385   3.063
21594WAT     H265025   9.171   5.532   3.095
21595WAT      O65026   0.877   1.440   7.966
21595WAT     H165027   0.897   1.342   7.955
21595WAT     H265028   0.794   1.450   8.020
21596WAT      O65029   4.402   7.255   5.788
21596WAT     H165030   4.471   7.192   5.823
21596WAT     H265031   4.385   7.327   5.856
21597WAT      O65032   4.082   8.506   1.908
21597WAT     H165033   4.035   8.442   1.847
21597WAT     H265034   4.027   8.520   1.991
21598WAT      O65035   2.943   4.677   7.800
21598WAT     H165036   3.033   4.714   7.777
21598WAT     H265037   2.913   4.713   7.888
21599WAT      O65038   3.228   0.084   5.991
21599WAT     H165039   3.273   0.038   5.915
21599WAT     H265040   3.248   0.035   6.076
21600WAT      O65041   4.223   7.892   7.531
21600WAT     H165042   4.280   7.969   7.558
21600WAT     H265043   4.169   7.917   7.451
21601WAT      O65044   6.358   0.960   8.913
21601WAT     H165045   6.450   0.967   8.875
21601WAT     H265046   6.331   0.864   8.919
21602WAT      O65047   1.003   1.728   7.172
21602WAT     H165048   1.070   1.786   7.126
21602WAT     H265049   1.039   1.636   7.183
21603WAT      O65050   3.966   8.654   9.812
21603WAT     H165051   3.967   8.694   9.904
21603WAT     H265052   3.908   8.572   9.812
21604WAT      O65053   5.817   8.727   3.215
21604WAT     H165054   5.774   8.697   3.130
21604WAT     H265055   5.904   8.772   3.195
21605WAT      O65056   9.047   6.319   6.854
21605WAT     H165057   8.971   6.294   6.914
21605WAT     H265058   9.072   6.240   6.798
21606WAT      O65059   5.762   5.373   8.440
21606WAT     H165060   5.694   5.299   8.446
21606WAT     H265061   5.757   5.429   8.522
21607WAT      O65062   8.644   8.776   9.738
21607WAT     H165063   8.562   8.731   9.774
21607WAT     H265064   8.720   8.711   9.737
21608WAT      O65065   4.754   4.971   0.438
21608WAT     H165066   4.726   5.052   0.490
21608WAT     H265067   4.675   4.910   0.428
21609WAT      O65068   0.387   1.065   4.040
21609WAT     H165069   0.471   1.118   4.057
21609WAT     H265070   0.391   0.979   4.091
21610WAT      O65071   9.514   6.006   6.863
21610WAT     H165072   9.548   6.062   6.940
21610WAT     H265073   9.478   5.920   6.898
21611WAT      O65074   3.084   2.015   8.523
21611WAT     H165075   3.149   2.001   8.447
21611WAT     H265076   3.024   1.936   8.529
21612WAT      O65077   3.770   2.415   9.643
21612WAT     H165078   3.694   2.412   9.578
21612WAT     H265079   3.780   2.508   9.679
21613WAT      O65080   4.501   7.899   6.683
21613WAT     H165081   4.422   7.899   6.622
21613WAT     H265082   4.548   7.811   6.676
21614WAT      O65083   8.928   5.165   7.935
21614WAT     H165084   8.842   5.119   7.955
21614WAT     H265085   8.944   5.237   8.003
21615WAT      O65086   2.726   8.858   2.684
21615WAT     H165087   2.696   8.841   2.590
21615WAT     H265088   2.719   8.773   2.736
21616WAT      O65089   1.909   3.297   4.397
21616WAT     H165090   1.941   3.208   4.426
21616WAT     H265091   1.888   3.353   4.477
21617WAT      O65092   3.523   2.115   8.661
21617WAT     H165093   3.479   2.037   8.705
21617WAT     H265094   3.477   2.199   8.688
21618WAT      O65095   0.663   1.559   1.140
21618WAT     H165096   0.686   1.463   1.149
21618WAT     H265097   0.670   1.604   1.229
21619WAT      O65098   1.311   5.728   3.555
21619WAT     H165099   1.294   5.738   3.456
21619WAT     H265100   1.298   5.817   3.599
21620WAT      O65101   8.780   0.310   1.997
21620WAT     H165102   8.710   0.256   2.043
21620WAT     H265103   8.864   0.309   2.052
21621WAT      O65104   9.038   8.591   4.381
21621WAT     H165105   9.038   8.653   4.304
21621WAT     H265106   8.981   8.511   4.361
21622WAT      O65107   8.209   2.857   1.868
21622WAT     H165108   8.138   2.810   1.815
21622WAT     H265109   8.188   2.852   1.965
21623WAT      O65110   1.447   1.893   6.702
21623WAT     H165111   1.511   1.866   6.630
21623WAT     H265112   1.489   1.965   6.757
21624WAT      O65113   2.664   0.917   8.535
21624WAT     H165114   2.732   0.973   8.584
21624WAT     H265115   2.640   0.963   8.450
21625WAT      O65116   9.070   6.586   5.093
21625WAT     H165117   9.001   6.515   5.108
21625WAT     H265118   9.126   6.562   5.014
21626WAT      O65119   5.227   2.216   1.643
21626WAT     H165120   5.176   2.186   1.723
21626WAT     H265121   5.167   2.218   1.563
21627WAT      O65122   6.230   0.074   5.605
21627WAT     H165123   6.184   0.146   5.552
21627WAT     H265124   6.283   0.116   5.679
21628WAT      O65125   2.555   6.020   3.119
21628WAT     H165126   2.511   5.984   3.036
21628WAT     H265127   2.573   5.944   3.182
21629WAT      O65128   6.480   0.849   3.675
21629WAT     H165129   6.481   0.942   3.713
21629WAT     H265130   6.386   0.823   3.653
21630WAT      O65131   8.249   9.403   6.104
21630WAT     H165132   8.325   9.421   6.167
21630WAT     H265133   8.283   9.398   6.011
21631WAT      O65134   1.951   7.410   1.512
21631WAT     H165135   1.922   7.406   1.607
21631WAT     H265136   1.886   7.465   1.459
21632WAT      O65137   6.740   1.426   2.231
21632WAT     H165138   6.643   1.449   2.223
21632WAT     H265139   6.764   1.414   2.328
21633WAT      O65140   3.639   0.210   6.100
21633WAT     H165141   3.589   0.283   6.053
21633WAT     H265142   3.627   0.124   6.051
21634WAT      O65143   4.595   7.750   6.998
21634WAT     H165144   4.600   7.728   6.901
21634WAT     H265145   4.659   7.692   7.049
21635WAT      O65146   7.221   1.551   1.262
21635WAT     H165147   7.132   1.512   1.236
21635WAT     H265148   7.206   1.634   1.315
21636WAT      O65149   2.101   6.752   5.073
21636WAT     H165150   2.029   6.690   5.043
21636WAT     H265151   2.086   6.842   5.034
21637WAT      O65152   9.449   3.446   8.374
21637WAT     H165153   9.516   3.497   8.429
21637WAT     H265154   9.472   3.349   8.376
21638WAT      O65155   2.753   4.441   1.347
21638WAT     H165156   2.654   4.449   1.342
21638WAT     H265157   2.783   4.359   1.298
21639WAT      O65158   7.930   9.292   3.216
21639WAT     H165159   7.892   9.291   3.308
21639WAT     H265160   7.887   9.364   3.162
21640WAT      O65161   2.471   4.221   3.744
21640WAT     H165162   2.488   4.161   3.667
21640WAT     H265163   2.450   4.167   3.825
21641WAT      O65164   4.095   6.204   1.120
21641WAT     H165165   4.083   6.175   1.025
21641WAT     H265166   4.179   6.165   1.156
21642WAT      O65167   4.131   6.707   9.455
21642WAT     H165168   4.212   6.681   9.508
21642WAT     H265169   4.061   6.637   9.467
21643WAT      O65170   1.237   8.091   1.965
21643WAT     H165171   1.292   8.016   1.926
21643WAT     H265172   1.268   8.178   1.927
21644WAT      O65173   8.558   1.625   2.294
21644WAT     H165174   8.514   1.654   2.379
21644WAT     H265175   8.650   1.591   2.314
21645WAT      O65176   0.137   1.070   8.032
21645WAT     H165177   0.124   1.062   8.130
21645WAT     H265178   0.055   1.108   7.990
21646WAT      O65179   6.921   6.590   1.883
21646WAT     H165180   6.848   6.523   1.869
21646WAT     H265181   6.883   6.673   1.923
21647WAT      O65182   8.324   8.331   9.583
21647WAT     H165183   8.227   8.356   9.583
21647WAT     H265184   8.334   8.241   9.625
21648WAT      O65185   6.851   5.886   3.489
21648WAT     H165186   6.793   5.909   3.567
21648WAT     H265187   6.910   5.963   3.467
21649WAT      O65188   6.734   2.145   7.551
21649WAT     H165189   6.799   2.219   7.565
21649WAT     H265190   6.750   2.073   7.617
21650WAT      O65191   2.607   4.267   5.359
21650WAT     H165192   2.517   4.231   5.384
21650WAT     H265193   2.656   4.199   5.305
21651WAT      O65194   4.429   2.480   4.562
21651WAT     H165195   4.465   2.416   4.630
21651WAT     H265196   4.373   2.549   4.607
21652WAT      O65197   4.643   1.669   3.368
21652WAT     H165198   4.699   1.686   3.449
21652WAT     H265199   4.674   1.586   3.322
21653WAT      O65200   1.786   4.812   6.535
21653WAT     H165201   1.765   4.757   6.616
21653WAT     H265202   1.720   4.791   6.463
21654WAT      O65203   2.474   4.922   3.232
21654WAT     H165204   2.452   5.020   3.230
21654WAT     H265205   2.571   4.910   3.210
21655WAT      O65206   4.985   2.593   6.420
21655WAT     H165207   4.933   2.525   6.368
21655WAT     H265208   5.067   2.550   6.459
21656WAT      O65209   8.067   8.886   2.825
21656WAT     H165210   8.094   8.836   2.907
21656WAT     H265211   7.972   8.916   2.833
21657WAT      O65212   9.614   8.694   2.815
21657WAT     H165213   9.549   8.703   2.891
21657WAT     H265214   9.691   8.637   2.844
21658WAT      O65215   1.461   3.474   9.313
21658WAT     H165216   1.437   3.391   9.263
21658WAT     H265217   1.399   3.485   9.391
21659WAT      O65218   3.347   6.397   3.837
21659WAT     H165219   3.402   6.365   3.914
21659WAT     H265220   3.267   6.446   3.871
21660WAT      O65221   3.572   1.460   3.282
21660WAT     H165222   3.504   1.514   3.233
21660WAT     H265223   3.559   1.363   3.263
21661WAT      O65224   5.278   1.772   2.460
21661WAT     H165225   5.205   1.719   2.503
21661WAT     H265226   5.361   1.716   2.454
21662WAT      O65227   0.100   8.612   8.832
21662WAT     H165228   0.196   8.602   8.809
21662WAT     H265229   0.076   8.549   8.906
21663WAT      O65230   0.988   5.245   3.899
21663WAT     H165231   1.071   5.197   3.873
21663WAT     H265232   1.010   5.322   3.957
21664WAT      O65233   9.822   4.659   3.684
21664WAT     H165234   9.737   4.689   3.727
21664WAT     H265235   9.885   4.627   3.754
21665WAT      O65236   5.491   7.567   7.109
21665WAT     H165237   5.479   7.613   7.197
21665WAT     H265238   5.462   7.629   7.035
21666WAT      O65239   7.230   3.035   6.699
21666WAT     H165240   7.273   3.001   6.615
21666WAT     H265241   7.133   3.012   6.699
21667WAT      O65242   9.393   5.737   2.108
21667WAT     H165243   9.415   5.801   2.034
21667WAT     H265244   9.295   5.714   2.104
21668WAT      O65245   2.941   7.742   0.443
21668WAT     H165246   3.019   7.708   0.496
21668WAT     H265247   2.861   7.749   0.503
21669WAT      O65248   3.018   3.807   0.584
21669WAT     H165249   2.973   3.896   0.590
21669WAT     H265250   3.117   3.819   0.596
21670WAT      O65251   8.693   7.608   5.771
21670WAT     H165252   8.601   7.578   5.744
21670WAT     H265253   8.686   7.668   5.850
21671WAT      O65254   4.115   8.721   2.324
21671WAT     H165255   4.132   8.759   2.233
21671WAT     H265256   4.016   8.721   2.342
21672WAT      O65257   7.224   1.945   4.773
21672WAT     H165258   7.276   1.965   4.855
21672WAT     H265259   7.281   1.959   4.692
21673WAT      O65260   3.142   2.288   8.125
21673WAT     H165261   3.134   2.328   8.216
21673WAT     H265262   3.189   2.352   8.064
21674WAT      O65263   2.179   1.388   9.652
21674WAT     H165264   2.220   1.342   9.730
21674WAT     H265265   2.135   1.321   9.592
21675WAT      O65266   8.388   9.491   2.922
21675WAT     H165267   8.394   9.475   3.020
21675WAT     H265268   8.293   9.512   2.898
21676WAT      O65269   5.429   9.704   7.358
21676WAT     H165270   5.339   9.690   7.399
21676WAT     H265271   5.500   9.697   7.428
21677WAT      O65272   6.195   8.343   1.979
21677WAT     H165273   6.118   8.299   1.932
21677WAT     H265274   6.280   8.295   1.956
21678WAT      O65275   1.462   6.627   8.371
21678WAT     H165276   1.505   6.654   8.285
21678WAT     H265277   1.364   6.613   8.356
21679WAT      O65278   4.754   1.648   8.464
21679WAT     H165279   4.693   1.661   8.542
21679WAT     H265280   4.772   1.736   8.420
21680WAT      O65281   1.917   6.646   6.090
21680WAT     H165282   1.923   6.547   6.101
21680WAT     H265283   1.855   6.684   6.158
21681WAT      O65284   3.930   2.543   1.825
21681WAT     H165285   4.001   2.546   1.754
21681WAT     H265286   3.900   2.449   1.840
21682WAT      O65287   1.322   4.269   1.341
21682WAT     H165288   1.374   4.216   1.407
21682WAT     H265289   1.384   4.330   1.291
21683WAT      O65290   5.347   6.565   5.803
21683WAT     H165291   5.334   6.651   5.754
21683WAT     H265292   5.431   6.521   5.771
21684WAT      O65293   4.078   1.936   8.845
21684WAT     H165294   3.997   1.945   8.903
21684WAT     H265295   4.079   1.844   8.805
21685WAT      O65296   5.150   1.144   4.392
21685WAT     H165297   5.201   1.207   4.452
21685WAT     H265298   5.054   1.143   4.420
21686WAT      O65299   1.470   1.866   2.115
21686WAT     H165300   1.398   1.925   2.079
21686WAT     H265301   1.559   1.908   2.095
21687WAT      O65302   5.957   1.692   6.079
21687WAT     H165303   6.032   1.743   6.121
21687WAT     H265304   5.960   1.703   5.980
21688WAT      O65305   3.920   5.908   4.186
21688WAT     H165306   3.935   5.884   4.282
21688WAT     H265307   3.831   5.873   4.157
21689WAT      O65308   6.711   0.867   2.451
21689WAT     H165309   6.672   0.800   2.515
21689WAT     H265310   6.673   0.851   2.360
21690WAT      O65311   6.508   6.490   1.301
21690WAT     H165312   6.439   6.557   1.330
21690WAT     H265313   6.561   6.460   1.381
21691WAT      O65314   9.462   4.618   7.117
21691WAT     H165315   9.474   4.534   7.170
21691WAT     H265316   9.415   4.687   7.173
21692WAT      O65317   7.765   9.534   9.294
21692WAT     H165318   7.796   9.622   9.259
21692WAT     H265319   7.842   9.471   9.299
21693WAT      O65320   2.632   1.869   0.980
21693WAT     H165321   2.533   1.855   0.982
21693WAT     H265322   2.653   1.949   0.924
21694WAT      O65323   2.037   9.652   4.614
21694WAT     H165324   2.062   9.634   4.519
21694WAT     H265325   2.035   9.566   4.665
21695WAT      O65326   1.558   7.254   9.815
21695WAT     H165327   1.642   7.242   9.761
21695WAT     H265328   1.480   7.264   9.752
21696WAT      O65329   9.078   1.691   7.507
21696WAT     H165330   9.144   1.629   7.550
21696WAT     H265331   8.987   1.672   7.543
21697WAT      O65332   9.007   9.212   8.957
21697WAT     H165333   9.054   9.300   8.951
21697WAT     H265334   8.976   9.196   9.051
21698WAT      O65335   7.016   2.198   0.001
21698WAT     H165336   7.071   2.120   0.034
21698WAT     H265337   6.919   2.173   0.002
21699WAT      O65338   6.435   1.921   0.034
21699WAT     H165339   6.438   1.968  -0.055
21699WAT     H265340   6.359   1.857   0.035
21700WAT      O65341   5.695   2.834   0.869
21700WAT     H165342   5.618   2.801   0.923
21700WAT     H265343   5.718   2.928   0.896
21701WAT      O65344   4.639   2.264   3.946
21701WAT     H165345   4.615   2.189   3.883
21701WAT     H265346   4.556   2.295   3.992
21702WAT      O65347   3.566   2.497   8.817
21702WAT     H165348   3.497   2.427   8.800
21702WAT     H265349   3.597   2.491   8.912
21703WAT      O65350   4.363   7.345   8.524
21703WAT     H165351   4.282   7.330   8.466
21703WAT     H265352   4.430   7.273   8.506
21704WAT      O65353   2.268   2.196   2.326
21704WAT     H165354   2.186   2.140   2.314
21704WAT     H265355   2.298   2.231   2.237
21705WAT      O65356   8.744   6.663   2.456
21705WAT     H165357   8.808   6.694   2.526
21705WAT     H265358   8.658   6.635   2.499
21706WAT      O65359   2.937   1.835   9.207
21706WAT     H165360   2.895   1.918   9.244
21706WAT     H265361   3.013   1.860   9.147
21707WAT      O65362   5.266   1.800   0.229
21707WAT     H165363   5.277   1.845   0.140
21707WAT     H265364   5.333   1.836   0.294
21708WAT      O65365   5.697   1.019   7.579
21708WAT     H165366   5.785   1.029   7.532
21708WAT     H265367   5.696   1.079   7.659
21709WAT      O65368   4.484   2.674   0.818
21709WAT     H165369   4.573   2.656   0.859
21709WAT     H265370   4.482   2.638   0.725
21710WAT      O65371   7.046   0.972   6.376
21710WAT     H165372   7.121   0.915   6.341
21710WAT     H265373   6.974   0.978   6.307
21711WAT      O65374   7.150   8.217   1.538
21711WAT     H165375   7.191   8.166   1.462
21711WAT     H265376   7.064   8.174   1.564
21712WAT      O65377   2.034   1.630   7.696
21712WAT     H165378   2.098   1.554   7.713
21712WAT     H265379   1.986   1.652   7.781
21713WAT      O65380   4.572   1.529   1.428
21713WAT     H165381   4.475   1.506   1.428
21713WAT     H265382   4.605   1.533   1.522
21714WAT      O65383   0.338   8.208   5.000
21714WAT     H165384   0.302   8.295   5.034
21714WAT     H265385   0.333   8.140   5.073
21715WAT      O65386   0.434   4.605   9.226
21715WAT     H165387   0.394   4.694   9.204
21715WAT     H265388   0.533   4.613   9.229
21716WAT      O65389   7.212   1.790   8.038
21716WAT     H165390   7.276   1.748   8.102
21716WAT     H265391   7.130   1.733   8.031
21717WAT      O65392   9.589   5.363   3.156
21717WAT     H165393   9.611   5.361   3.059
21717WAT     H265394   9.673   5.363   3.210
21718WAT      O65395   8.838   7.325   4.426
21718WAT     H165396   8.872   7.301   4.517
21718WAT     H265397   8.845   7.246   4.366
21719WAT      O65398   6.362   9.517   4.231
21719WAT     H165399   6.328   9.439   4.284
21719WAT     H265400   6.414   9.484   4.152
21720WAT      O65401   1.314   2.136   5.363
21720WAT     H165402   1.301   2.128   5.462
21720WAT     H265403   1.377   2.064   5.332
21721WAT      O65404   2.036   6.441   7.273
21721WAT     H165405   2.027   6.352   7.230
21721WAT     H265406   2.114   6.440   7.337
21722WAT      O65407   1.557   0.119   2.845
21722WAT     H165408   1.618   0.198   2.834
21722WAT     H265409   1.473   0.134   2.793
21723WAT      O65410   9.530   2.592   9.503
21723WAT     H165411   9.447   2.569   9.451
21723WAT     H265412   9.549   2.689   9.493
21724WAT      O65413   7.609   2.851   0.522
21724WAT     H165414   7.647   2.771   0.570
21724WAT     H265415   7.679   2.921   0.514
21725WAT      O65416   6.894   3.242   6.946
21725WAT     H165417   6.992   3.256   6.957
21725WAT     H265418   6.878   3.162   6.889
21726WAT      O65419   7.487   4.688   3.702
21726WAT     H165420   7.479   4.774   3.753
21726WAT     H265421   7.415   4.626   3.731
21727WAT      O65422   8.529   1.844   6.615
21727WAT     H165423   8.469   1.831   6.694
21727WAT     H265424   8.601   1.775   6.615
21728WAT      O65425   7.961   6.777   1.045
21728WAT     H165426   7.880   6.717   1.050
21728WAT     H265427   7.937   6.868   1.079
21729WAT      O65428   8.824   8.829   8.358
21729WAT     H165429   8.724   8.824   8.366
21729WAT     H265430   8.865   8.814   8.447
21730WAT      O65431   8.669   6.786   3.307
21730WAT     H165432   8.663   6.716   3.378
21730WAT     H265433   8.655   6.876   3.348
21731WAT      O65434   0.191   6.127   6.278
21731WAT     H165435   0.128   6.116   6.355
21731WAT     H265436   0.148   6.181   6.206
21732WAT      O65437   7.955   1.049   2.565
21732WAT     H165438   8.029   0.982   2.557
21732WAT     H265439   7.923   1.075   2.474
21733WAT      O65440   1.741   3.885   6.314
21733WAT     H165441   1.690   3.884   6.400
21733WAT     H265442   1.839   3.880   6.333
21734WAT      O65443   9.412   4.974   7.058
21734WAT     H165444   9.358   5.057   7.052
21734WAT     H265445   9.481   4.974   6.986
21735WAT      O65446   0.241   7.337   4.355
21735WAT     H165447   0.273   7.421   4.313
21735WAT     H265448   0.189   7.359   4.438
21736WAT      O65449   2.491   5.467   9.194
21736WAT     H165450   2.526   5.376   9.217
21736WAT     H265451   2.523   5.492   9.102
21737WAT      O65452   7.395   5.597   7.559
21737WAT     H165453   7.417   5.598   7.461
21737WAT     H265454   7.364   5.688   7.587
21738WAT      O65455   3.849   0.896   3.183
21738WAT     H165456   3.853   0.864   3.089
21738WAT     H265457   3.940   0.929   3.210
21739WAT      O65458   0.417   8.868   3.628
21739WAT     H165459   0.428   8.769   3.637
21739WAT     H265460   0.369   8.904   3.708
21740WAT      O65461   8.745   3.874   5.372
21740WAT     H165462   8.839   3.863   5.404
21740WAT     H265463   8.722   3.799   5.310
21741WAT      O65464   1.736   7.586   2.660
21741WAT     H165465   1.836   7.581   2.658
21741WAT     H265466   1.702   7.552   2.748
21742WAT      O65467   1.090   0.975   9.742
21742WAT     H165468   1.160   1.031   9.787
21742WAT     H265469   1.051   0.911   9.809
21743WAT      O65470   9.240   6.304   6.252
21743WAT     H165471   9.146   6.301   6.217
21743WAT     H265472   9.269   6.400   6.260
21744WAT      O65473   0.523   8.539   8.321
21744WAT     H165474   0.463   8.618   8.332
21744WAT     H265475   0.617   8.570   8.304
21745WAT      O65476   1.389   1.389   6.898
21745WAT     H165477   1.433   1.341   6.974
21745WAT     H265478   1.447   1.384   6.817
21746WAT      O65479   8.053   9.222   6.191
21746WAT     H165480   7.984   9.254   6.125
21746WAT     H265481   8.136   9.276   6.181
21747WAT      O65482   1.612   7.994   5.897
21747WAT     H165483   1.589   8.068   5.833
21747WAT     H265484   1.604   8.027   5.991
21748WAT      O65485   2.980   5.613   5.259
21748WAT     H165486   2.944   5.670   5.186
21748WAT     H265487   3.047   5.549   5.222
21749WAT      O65488   4.300   7.840   6.276
21749WAT     H165489   4.353   7.758   6.257
21749WAT     H265490   4.246   7.864   6.195
21750WAT      O65491   4.473   1.633   6.873
21750WAT     H165492   4.405   1.568   6.838
21750WAT     H265493   4.552   1.582   6.907
21751WAT      O65494   6.934   6.000   6.294
21751WAT     H165495   6.879   5.995   6.377
21751WAT     H265496   6.880   6.043   6.221
21752WAT      O65497   3.837   6.067   6.743
21752WAT     H165498   3.744   6.036   6.762
21752WAT     H265499   3.903   6.005   6.786
21753WAT      O65500   6.145   3.898   1.411
21753WAT     H165501   6.206   3.958   1.462
21753WAT     H265502   6.134   3.812   1.460
21754WAT      O65503   8.794   3.266   6.722
21754WAT     H165504   8.887   3.269   6.759
21754WAT     H265505   8.728   3.258   6.796
21755WAT      O65506   6.409   5.567   1.357
21755WAT     H165507   6.479   5.616   1.306
21755WAT     H265508   6.419   5.468   1.342
21756WAT      O65509   3.616   4.478   9.470
21756WAT     H165510   3.673   4.427   9.534
21756WAT     H265511   3.614   4.575   9.496
21757WAT      O65512   4.410   3.733   6.098
21757WAT     H165513   4.466   3.774   6.169
21757WAT     H265514   4.464   3.665   6.047
21758WAT      O65515   9.083   0.328   7.027
21758WAT     H165516   9.130   0.390   7.090
21758WAT     H265517   8.989   0.312   7.059
21759WAT      O65518   1.357   1.746   1.377
21759WAT     H165519   1.445   1.708   1.406
21759WAT     H265520   1.372   1.832   1.327
21760WAT      O65521   4.572   3.609   2.828
21760WAT     H165522   4.556   3.590   2.925
21760WAT     H265523   4.645   3.550   2.795
21761WAT      O65524   2.538   4.869   7.292
21761WAT     H165525   2.474   4.897   7.363
21761WAT     H265526   2.631   4.897   7.318
21762WAT      O65527   4.223   8.777   3.770
21762WAT     H165528   4.211   8.876   3.781
21762WAT     H265529   4.319   8.757   3.750
21763WAT      O65530   9.579   4.029   6.730
21763WAT     H165531   9.667   4.041   6.776
21763WAT     H265532   9.506   4.060   6.790
21764WAT      O65533   0.223   6.378   6.750
21764WAT     H165534   0.207   6.401   6.654
21764WAT     H265535   0.267   6.289   6.755
21765WAT      O65536   7.362   8.782   5.826
21765WAT     H165537   7.336   8.865   5.775
21765WAT     H265538   7.453   8.794   5.865
21766WAT      O65539   5.074   1.930   8.247
21766WAT     H165540   5.080   1.865   8.323
21766WAT     H265541   5.163   1.938   8.203
21767WAT      O65542   9.461   8.913   8.865
21767WAT     H165543   9.442   8.980   8.937
21767WAT     H265544   9.523   8.954   8.798
21768WAT      O65545   7.793   6.756   3.749
21768WAT     H165546   7.828   6.676   3.798
21768WAT     H265547   7.705   6.733   3.706
21769WAT      O65548   5.201   6.805   8.588
21769WAT     H165549   5.276   6.869   8.607
21769WAT     H265550   5.117   6.856   8.574
21770WAT      O65551   8.259   8.570   4.045
21770WAT     H165552   8.355   8.562   4.018
21770WAT     H265553   8.206   8.607   3.969
21771WAT      O65554   7.984   6.793   6.318
21771WAT     H165555   7.914   6.783   6.248
21771WAT     H265556   8.072   6.812   6.275
21772WAT      O65557   1.938   3.122   7.978
21772WAT     H165558   1.960   3.074   7.893
21772WAT     H265559   1.971   3.068   8.056
21773WAT      O65560   4.343   5.164   1.207
21773WAT     H165561   4.361   5.225   1.284
21773WAT     H265562   4.386   5.200   1.124
21774WAT      O65563   8.423   0.967   5.567
21774WAT     H165564   8.451   0.935   5.657
21774WAT     H265565   8.502   0.962   5.504
21775WAT      O65566   2.192   6.702   1.153
21775WAT     H165567   2.283   6.719   1.191
21775WAT     H265568   2.158   6.785   1.109
21776WAT      O65569   2.595   5.709   4.909
21776WAT     H165570   2.604   5.801   4.947
21776WAT     H265571   2.668   5.693   4.842
21777WAT      O65572   8.402   3.390   3.021
21777WAT     H165573   8.405   3.330   3.100
21777WAT     H265574   8.347   3.471   3.042
21778WAT      O65575   7.646   7.447   1.343
21778WAT     H165576   7.606   7.381   1.281
21778WAT     H265577   7.655   7.536   1.297
21779WAT      O65578   8.186   4.384   3.698
21779WAT     H165579   8.173   4.316   3.770
21779WAT     H265580   8.097   4.409   3.659
21780WAT      O65581   8.308   0.312   8.375
21780WAT     H165582   8.213   0.298   8.401
21780WAT     H265583   8.367   0.251   8.430
21781WAT      O65584   6.560   5.446   5.218
21781WAT     H165585   6.636   5.441   5.284
21781WAT     H265586   6.499   5.368   5.233
21782WAT      O65587   4.390   2.508   8.979
21782WAT     H165588   4.470   2.547   8.934
21782WAT     H265589   4.368   2.561   9.060
21783WAT      O65590   4.284   2.289   3.059
21783WAT     H165591   4.295   2.205   3.006
21783WAT     H265592   4.232   2.269   3.142
21784WAT      O65593   2.605   7.272   3.940
21784WAT     H165594   2.682   7.336   3.939
21784WAT     H265595   2.522   7.320   3.967
21785WAT      O65596   2.710   6.972   8.528
21785WAT     H165597   2.753   6.928   8.450
21785WAT     H265598   2.615   6.996   8.505
21786WAT      O65599   2.159   4.556   7.760
21786WAT     H165600   2.073   4.571   7.712
21786WAT     H265601   2.235   4.590   7.705
21787WAT      O65602   0.224   9.693   6.015
21787WAT     H165603   0.245   9.597   5.998
21787WAT     H265604   0.166   9.701   6.096
21788WAT      O65605   0.506   0.907   7.660
21788WAT     H165606   0.409   0.927   7.669
21788WAT     H265607   0.542   0.954   7.579
21789WAT      O65608   1.494   6.456   4.959
21789WAT     H165609   1.463   6.380   5.017
21789WAT     H265610   1.547   6.520   5.015
21790WAT      O65611   8.139   6.389   5.660
21790WAT     H165612   8.187   6.394   5.572
21790WAT     H265613   8.204   6.364   5.732
21791WAT      O65614   5.426   4.532   1.311
21791WAT     H165615   5.353   4.481   1.266
21791WAT     H265616   5.511   4.520   1.261
21792WAT      O65617   8.679   9.217   2.881
21792WAT     H165618   8.704   9.314   2.873
21792WAT     H265619   8.743   9.172   2.943
21793WAT      O65620   5.104   5.359   7.026
21793WAT     H165621   5.116   5.286   7.093
21793WAT     H265622   5.007   5.382   7.017
21794WAT      O65623   0.767   7.591   4.206
21794WAT     H165624   0.799   7.682   4.229
21794WAT     H265625   0.695   7.563   4.270
21795WAT      O65626   2.971   0.267   8.601
21795WAT     H165627   2.957   0.197   8.532
21795WAT     H265628   2.945   0.232   8.690
21796WAT      O65629   1.702   2.042   7.895
21796WAT     H165630   1.719   1.961   7.952
21796WAT     H265631   1.726   2.124   7.946
21797WAT      O65632   3.075   8.804   2.614
21797WAT     H165633   3.073   8.843   2.706
21797WAT     H265634   3.015   8.724   2.610
21798WAT      O65635   4.373   5.246   9.647
21798WAT     H165636   4.365   5.170   9.582
21798WAT     H265637   4.295   5.244   9.710
21799WAT      O65638   0.651   8.886   4.582
21799WAT     H165639   0.577   8.891   4.516
21799WAT     H265640   0.656   8.793   4.620
21800WAT      O65641   8.463   5.349   3.021
21800WAT     H165642   8.520   5.401   2.956
21800WAT     H265643   8.368   5.377   3.011
21801WAT      O65644   1.271   9.549   7.428
21801WAT     H165645   1.297   9.484   7.500
21801WAT     H265646   1.177   9.531   7.398
21802WAT      O65647   7.094   0.796   1.911
21802WAT     H165648   7.019   0.731   1.920
21802WAT     H265649   7.058   0.884   1.878
21803WAT      O65650   7.186   8.055   1.939
21803WAT     H165651   7.232   7.974   1.902
21803WAT     H265652   7.173   8.044   2.038
21804WAT      O65653   5.948   6.540   2.998
21804WAT     H165654   5.893   6.567   3.077
21804WAT     H265655   6.032   6.495   3.030
21805WAT      O65656   2.718   8.606   6.509
21805WAT     H165657   2.650   8.551   6.461
21805WAT     H265658   2.722   8.578   6.605
21806WAT      O65659   9.157   5.495   8.328
21806WAT     H165660   9.115   5.542   8.406
21806WAT     H265661   9.178   5.562   8.257
21807WAT      O65662   0.959   5.875   3.702
21807WAT     H165663   0.926   5.780   3.701
21807WAT     H265664   0.900   5.929   3.763
21808WAT      O65665   1.932   0.647   7.693
21808WAT     H165666   2.021   0.691   7.687
21808WAT     H265667   1.945   0.549   7.708
21809WAT      O65668   8.067   7.597   9.068
21809WAT     H165669   8.136   7.529   9.092
21809WAT     H265670   8.111   7.686   9.055
21810WAT      O65671   6.195   0.071   6.869
21810WAT     H165672   6.197   0.169   6.853
21810WAT     H265673   6.102   0.041   6.890
21811WAT      O65674   7.526   8.645   1.120
21811WAT     H165675   7.468   8.591   1.181
21811WAT     H265676   7.480   8.731   1.100
21812WAT      O65677   6.534   9.404   5.326
21812WAT     H165678   6.517   9.437   5.234
21812WAT     H265679   6.523   9.305   5.328
21813WAT      O65680   0.558   6.984   1.289
21813WAT     H165681   0.576   7.049   1.362
21813WAT     H265682   0.475   7.011   1.240
21814WAT      O65683   5.224   2.126   2.328
21814WAT     H165684   5.299   2.090   2.384
21814WAT     H265685   5.261   2.172   2.247
21815WAT      O65686   1.409   1.063   5.297
21815WAT     H165687   1.440   1.137   5.238
21815WAT     H265688   1.311   1.051   5.286
21816WAT      O65689   2.915   0.200   9.643
21816WAT     H165690   2.863   0.189   9.558
21816WAT     H265691   2.902   0.120   9.701
21817WAT      O65692   6.008   6.553   5.600
21817WAT     H165693   6.037   6.497   5.678
21817WAT     H265694   5.924   6.514   5.560
21818WAT      O65695   5.858   1.158   7.101
21818WAT     H165696   5.800   1.209   7.037
21818WAT     H265697   5.830   1.179   7.195
21819WAT      O65698   9.823   5.412   8.701
21819WAT     H165699   9.741   5.414   8.759
21819WAT     H265700   9.851   5.506   8.680
21820WAT      O65701   9.406   1.296   2.937
21820WAT     H165702   9.349   1.353   2.997
21820WAT     H265703   9.352   1.221   2.900
21821WAT      O65704   5.565   6.461   3.698
21821WAT     H165705   5.479   6.468   3.748
21821WAT     H265706   5.637   6.427   3.758
21822WAT      O65707   2.477   5.966   5.830
21822WAT     H165708   2.386   5.978   5.869
21822WAT     H265709   2.543   5.945   5.903
21823WAT      O65710   4.652   8.620   7.577
21823WAT     H165711   4.738   8.671   7.571
21823WAT     H265712   4.583   8.664   7.519
21824WAT      O65713   0.619   4.942   6.347
21824WAT     H165714   0.638   4.964   6.442
21824WAT     H265715   0.549   4.871   6.342
21825WAT      O65716   9.875   2.071   1.737
21825WAT     H165717   9.918   2.144   1.683
21825WAT     H265718   9.826   2.112   1.814
21826WAT      O65719   1.348   6.476   3.931
21826WAT     H165720   1.441   6.453   3.961
21826WAT     H265721   1.314   6.554   3.984
21827WAT      O65722   6.973   8.059   0.359
21827WAT     H165723   6.911   7.985   0.388
21827WAT     H265724   7.067   8.032   0.377
21828WAT      O65725   3.485   5.218   6.385
21828WAT     H165726   3.480   5.234   6.286
21828WAT     H265727   3.463   5.122   6.404
21829WAT      O65728   5.919   5.548   1.384
21829WAT     H165729   5.908   5.532   1.286
21829WAT     H265730   5.831   5.541   1.430
21830WAT      O65731   1.632   3.063   0.594
21830WAT     H165732   1.635   3.131   0.521
21830WAT     H265733   1.585   3.102   0.674
21831WAT      O65734   6.075   6.524   1.032
21831WAT     H165735   6.164   6.552   1.067
21831WAT     H265736   6.047   6.439   1.078
21832WAT      O65737   0.090   5.504   6.003
21832WAT     H165738   0.080   5.415   6.046
21832WAT     H265739   0.113   5.492   5.906
21833WAT      O65740   7.989   2.028   4.916
21833WAT     H165741   7.989   2.082   5.000
21833WAT     H265742   7.971   1.932   4.938
21834WAT      O65743   5.572   7.993   3.588
21834WAT     H165744   5.546   8.050   3.666
21834WAT     H265745   5.631   7.918   3.620
21835WAT      O65746   3.563   6.847   7.744
21835WAT     H165747   3.550   6.817   7.838
21835WAT     H265748   3.661   6.846   7.722
21836WAT      O65749   9.821   3.483   1.371
21836WAT     H165750   9.844   3.450   1.463
21836WAT     H265751   9.904   3.483   1.314
21837WAT      O65752   4.576   6.821   9.861
21837WAT     H165753   4.554   6.851   9.954
21837WAT     H265754   4.675   6.813   9.852
21838WAT      O65755   3.548   2.865   8.415
21838WAT     H165756   3.535   2.856   8.316
21838WAT     H265757   3.625   2.808   8.444
21839WAT      O65758   5.492   8.542   7.443
21839WAT     H165759   5.494   8.642   7.454
21839WAT     H265760   5.538   8.518   7.357
21840WAT      O65761   3.254   8.110   7.822
21840WAT     H165762   3.229   8.047   7.896
21840WAT     H265763   3.309   8.185   7.859
21841WAT      O65764   5.927   4.003   3.955
21841WAT     H165765   5.933   3.905   3.937
21841WAT     H265766   5.988   4.026   4.031
21842WAT      O65767   1.412   3.869   6.021
21842WAT     H165768   1.393   3.920   5.937
21842WAT     H265769   1.342   3.891   6.089
21843WAT      O65770   0.316   1.942   2.745
21843WAT     H165771   0.342   1.979   2.834
21843WAT     H265772   0.218   1.920   2.745
21844WAT      O65773   2.387   7.661   3.942
21844WAT     H165774   2.433   7.724   4.004
21844WAT     H265775   2.405   7.566   3.970
21845WAT      O65776   2.962   1.085   6.179
21845WAT     H165777   2.954   1.073   6.080
21845WAT     H265778   2.999   1.175   6.199
21846WAT      O65779   9.303   5.599   2.407
21846WAT     H165780   9.393   5.636   2.387
21846WAT     H265781   9.233   5.661   2.373
21847WAT      O65782   3.851   3.344   8.734
21847WAT     H165783   3.791   3.420   8.709
21847WAT     H265784   3.886   3.359   8.826
21848WAT      O65785   1.381   1.972   4.992
21848WAT     H165786   1.297   1.944   5.040
21848WAT     H265787   1.443   1.893   4.986
21849WAT      O65788   0.501   4.516   3.197
21849WAT     H165789   0.497   4.535   3.099
21849WAT     H265790   0.409   4.512   3.234
21850WAT      O65791   2.480   0.149   1.938
21850WAT     H165792   2.476   0.228   2.000
21850WAT     H265793   2.555   0.161   1.873
21851WAT      O65794   8.122   8.139   1.797
21851WAT     H165795   8.166   8.057   1.762
21851WAT     H265796   8.081   8.120   1.886
21852WAT      O65797   7.770   0.709   6.760
21852WAT     H165798   7.844   0.740   6.700
21852WAT     H265799   7.809   0.680   6.848
21853WAT      O65800   8.667   2.296   6.085
21853WAT     H165801   8.708   2.285   5.995
21853WAT     H265802   8.587   2.236   6.093
21854WAT      O65803   3.215   4.518   8.744
21854WAT     H165804   3.186   4.513   8.649
21854WAT     H265805   3.222   4.425   8.781
21855WAT      O65806   0.621   0.183   7.833
21855WAT     H165807   0.657   0.090   7.842
21855WAT     H265808   0.536   0.191   7.885
21856WAT      O65809   7.487   4.805   4.049
21856WAT     H165810   7.499   4.860   4.131
21856WAT     H265811   7.452   4.863   3.975
21857WAT      O65812   6.483   1.338   5.962
21857WAT     H165813   6.481   1.239   5.966
21857WAT     H265814   6.570   1.372   5.999
21858WAT      O65815   1.908   5.926   9.439
21858WAT     H165816   1.947   5.990   9.506
21858WAT     H265817   1.934   5.955   9.347
21859WAT      O65818   7.819   7.410   8.734
21859WAT     H165819   7.812   7.477   8.659
21859WAT     H265820   7.821   7.459   8.822
21860WAT      O65821   2.385   4.345   0.965
21860WAT     H165822   2.478   4.372   0.990
21860WAT     H265823   2.372   4.358   0.867
21861WAT      O65824   9.549   7.066   2.714
21861WAT     H165825   9.620   7.000   2.741
21861WAT     H265826   9.460   7.034   2.748
21862WAT      O65827   3.706   0.448   6.780
21862WAT     H165828   3.624   0.506   6.779
21862WAT     H265829   3.705   0.388   6.700
21863WAT      O65830   2.946   2.259   9.400
21863WAT     H165831   2.915   2.304   9.316
21863WAT     H265832   2.962   2.328   9.471
21864WAT      O65833   7.188   5.463   5.571
21864WAT     H165834   7.173   5.442   5.474
21864WAT     H265835   7.142   5.395   5.627
21865WAT      O65836   3.271   3.830   2.475
21865WAT     H165837   3.207   3.890   2.522
21865WAT     H265838   3.364   3.866   2.486
21866WAT      O65839   7.932   5.663   6.217
21866WAT     H165840   7.968   5.740   6.165
21866WAT     H265841   7.833   5.673   6.229
21867WAT      O65842   3.211   4.835   9.891
21867WAT     H165843   3.152   4.901   9.936
21867WAT     H265844   3.185   4.827   9.795
21868WAT      O65845   5.696   7.178   8.568
21868WAT     H165846   5.644   7.260   8.593
21868WAT     H265847   5.787   7.183   8.610
21869WAT      O65848   9.046   1.516   9.696
21869WAT     H165849   9.029   1.593   9.757
21869WAT     H265850   9.081   1.549   9.608
21870WAT      O65851   5.887   4.867   9.547
21870WAT     H165852   5.956   4.849   9.618
21870WAT     H265853   5.823   4.935   9.581
21871WAT      O65854   5.474   5.141   3.257
21871WAT     H165855   5.538   5.167   3.330
21871WAT     H265856   5.494   5.047   3.227
21872WAT      O65857   3.221   2.735   7.654
21872WAT     H165858   3.261   2.660   7.602
21872WAT     H265859   3.173   2.797   7.592
21873WAT      O65860   4.596   2.902   2.140
21873WAT     H165861   4.585   2.834   2.212
21873WAT     H265862   4.664   2.870   2.074
21874WAT      O65863   0.306   6.982   4.345
21874WAT     H165864   0.281   6.978   4.442
21874WAT     H265865   0.406   6.972   4.336
21875WAT      O65866   6.934   8.349   5.953
21875WAT     H165867   6.890   8.263   5.979
21875WAT     H265868   6.890   8.385   5.871
21876WAT      O65869   0.658   1.095   2.460
21876WAT     H165870   0.723   1.163   2.428
21876WAT     H265871   0.700   1.005   2.460
21877WAT      O65872   1.163   6.138   3.970
21877WAT     H165873   1.148   6.185   3.883
21877WAT     H265874   1.164   6.039   3.956
21878WAT      O65875   0.866   3.295   5.470
21878WAT     H165876   0.961   3.263   5.463
21878WAT     H265877   0.866   3.389   5.504
21879WAT      O65878   2.614   8.433   2.463
21879WAT     H165879   2.583   8.527   2.479
21879WAT     H265880   2.691   8.433   2.400
21880WAT      O65881   4.972   3.278   6.679
21880WAT     H165882   5.021   3.260   6.765
21880WAT     H265883   4.978   3.198   6.620
21881WAT      O65884   5.327   7.032   6.569
21881WAT     H165885   5.306   7.129   6.552
21881WAT     H265886   5.286   6.976   6.497
21882WAT      O65887   3.484   0.942   2.620
21882WAT     H165888   3.543   0.902   2.550
21882WAT     H265889   3.463   1.037   2.597
21883WAT      O65890   4.660   5.571   2.791
21883WAT     H165891   4.641   5.660   2.751
21883WAT     H265892   4.574   5.527   2.818
21884WAT      O65893   5.772   4.225   2.376
21884WAT     H165894   5.866   4.253   2.394
21884WAT     H265895   5.710   4.278   2.434
21885WAT      O65896   3.895   4.076   4.018
21885WAT     H165897   3.949   4.038   3.943
21885WAT     H265898   3.957   4.104   4.092
21886WAT      O65899   0.817   5.452   5.096
21886WAT     H165900   0.773   5.535   5.132
21886WAT     H265901   0.890   5.424   5.158
21887WAT      O65902   4.769   2.368   1.062
21887WAT     H165903   4.756   2.467   1.064
21887WAT     H265904   4.722   2.330   0.983
21888WAT      O65905   9.390   7.888   9.346
21888WAT     H165906   9.391   7.980   9.307
21888WAT     H265907   9.296   7.854   9.350
21889WAT      O65908   8.062   1.892   2.847
21889WAT     H165909   7.997   1.850   2.784
21889WAT     H265910   8.039   1.868   2.941
21890WAT      O65911   6.451   6.524   5.760
21890WAT     H165912   6.431   6.555   5.853
21890WAT     H265913   6.384   6.454   5.734
21891WAT      O65914   3.734   8.451   2.832
21891WAT     H165915   3.823   8.472   2.873
21891WAT     H265916   3.693   8.535   2.796
21892WAT      O65917   0.789   9.751   0.085
21892WAT     H165918   0.825   9.748  -0.008
21892WAT     H265919   0.784   9.659   0.122
21893WAT      O65920   5.810   0.945   6.742
21893WAT     H165921   5.870   0.909   6.814
21893WAT     H265922   5.720   0.965   6.781
21894WAT      O65923   1.381   4.206   2.411
21894WAT     H165924   1.450   4.270   2.376
21894WAT     H265925   1.427   4.134   2.465
21895WAT      O65926   7.969   1.537   6.383
21895WAT     H165927   7.945   1.631   6.360
21895WAT     H265928   7.939   1.517   6.477
21896WAT      O65929   3.812   1.201   4.250
21896WAT     H165930   3.797   1.297   4.228
21896WAT     H265931   3.804   1.188   4.349
21897WAT      O65932   6.625   3.195   7.054
21897WAT     H165933   6.578   3.119   7.009
21897WAT     H265934   6.724   3.181   7.049
21898WAT      O65935   3.264   5.431   1.763
21898WAT     H165936   3.332   5.387   1.823
21898WAT     H265937   3.252   5.376   1.681
21899WAT      O65938   7.762   5.708   1.946
21899WAT     H165939   7.731   5.741   2.035
21899WAT     H265940   7.789   5.785   1.889
21900WAT      O65941   9.787   2.659   9.739
21900WAT     H165942   9.689   2.662   9.757
21900WAT     H265943   9.834   2.719   9.803
21901WAT      O65944   0.878   3.124   3.577
21901WAT     H165945   0.781   3.145   3.590
21901WAT     H265946   0.932   3.178   3.641
21902WAT      O65947   1.894   2.175   5.626
21902WAT     H165948   1.922   2.233   5.550
21902WAT     H265949   1.809   2.210   5.665
21903WAT      O65950   8.366   5.906   7.729
21903WAT     H165951   8.319   5.985   7.770
21903WAT     H265952   8.452   5.891   7.777
21904WAT      O65953   1.394   4.211   8.968
21904WAT     H165954   1.332   4.143   9.006
21904WAT     H265955   1.456   4.244   9.039
21905WAT      O65956   0.132   1.886   1.597
21905WAT     H165957   0.215   1.871   1.651
21905WAT     H265958   0.081   1.964   1.636
21906WAT      O65959   0.459   3.460   4.640
21906WAT     H165960   0.364   3.491   4.643
21906WAT     H265961   0.520   3.540   4.634
21907WAT      O65962   1.530   3.424   4.293
21907WAT     H165963   1.568   3.346   4.245
21907WAT     H265964   1.516   3.401   4.389
21908WAT      O65965   9.285   9.124   9.489
21908WAT     H165966   9.209   9.102   9.427
21908WAT     H265967   9.281   9.064   9.568
21909WAT      O65968   4.096   9.450   6.692
21909WAT     H165969   4.156   9.530   6.682
21909WAT     H265970   4.132   9.374   6.637
21910WAT      O65971   8.492   5.254   1.396
21910WAT     H165972   8.507   5.157   1.375
21910WAT     H265973   8.565   5.308   1.354
21911WAT      O65974   0.823   4.390   8.767
21911WAT     H165975   0.908   4.346   8.797
21911WAT     H265976   0.798   4.461   8.833
21912WAT      O65977   6.218   6.110   2.062
21912WAT     H165978   6.152   6.037   2.080
21912WAT     H265979   6.275   6.085   1.983
21913WAT      O65980   8.909   6.795   6.052
21913WAT     H165981   8.812   6.791   6.027
21913WAT     H265982   8.939   6.890   6.053
21914WAT      O65983   0.852   3.907   6.171
21914WAT     H165984   0.896   3.981   6.221
21914WAT     H265985   0.918   3.862   6.112
21915WAT      O65986   8.247   2.179   1.705
21915WAT     H165987   8.160   2.132   1.724
21915WAT     H265988   8.242   2.273   1.741
21916WAT      O65989   3.937   2.684   8.931
21916WAT     H165990   3.936   2.623   9.010
21916WAT     H265991   3.956   2.631   8.849
21917WAT      O65992   5.395   3.198   6.716
21917WAT     H165993   5.369   3.122   6.776
21917WAT     H265994   5.390   3.284   6.767
21918WAT      O65995   1.452   8.994   6.986
21918WAT     H165996   1.395   8.948   7.054
21918WAT     H265997   1.506   9.066   7.031
21919WAT      O65998   4.577   5.623   9.436
21919WAT     H165999   4.507   5.695   9.430
21919WAT     H266000   4.532   5.533   9.434
21920WAT      O66001   1.833   2.675   1.313
21920WAT     H166002   1.775   2.713   1.241
21920WAT     H266003   1.880   2.594   1.280
21921WAT      O66004   6.793   0.186   4.477
21921WAT     H166005   6.715   0.147   4.527
21921WAT     H266006   6.830   0.263   4.528
21922WAT      O66007   5.729   3.380   3.784
21922WAT     H166008   5.654   3.335   3.833
21922WAT     H266009   5.798   3.312   3.759
21923WAT      O66010   4.523   2.440   4.310
21923WAT     H166011   4.493   2.440   4.405
21923WAT     H266012   4.577   2.358   4.292
21924WAT      O66013   1.777   1.052   3.267
21924WAT     H166014   1.812   1.144   3.249
21924WAT     H266015   1.726   1.019   3.188
21925WAT      O66016   9.217   1.245   1.979
21925WAT     H166017   9.210   1.166   1.918
21925WAT     H266018   9.312   1.258   2.007
21926WAT      O66019   0.229   2.856   7.954
21926WAT     H166020   0.247   2.759   7.970
21926WAT     H266021   0.290   2.911   8.012
21927WAT      O66022   3.410   6.508   6.326
21927WAT     H166023   3.371   6.563   6.399
21927WAT     H266024   3.492   6.461   6.359
21928WAT      O66025   6.834   2.697   7.479
21928WAT     H166026   6.783   2.783   7.469
21928WAT     H266027   6.889   2.700   7.562
21929WAT      O66028   5.878   3.200   1.918
21929WAT     H166029   5.864   3.274   1.984
21929WAT     H266030   5.907   3.117   1.966
21930WAT      O66031   1.498   5.706   7.220
21930WAT     H166032   1.413   5.710   7.274
21930WAT     H266033   1.500   5.781   7.155
21931WAT      O66034   3.035   8.820   0.084
21931WAT     H166035   3.029   8.724   0.055
21931WAT     H266036   3.125   8.856   0.059
21932WAT      O66037   8.309   1.869   0.758
21932WAT     H166038   8.288   1.925   0.679
21932WAT     H266039   8.300   1.924   0.841
21933WAT      O66040   6.790   5.430   4.025
21933WAT     H166041   6.864   5.497   4.017
21933WAT     H266042   6.709   5.474   4.064
21934WAT      O66043   6.905   3.372   7.738
21934WAT     H166044   6.926   3.376   7.640
21934WAT     H266045   6.986   3.341   7.788
21935WAT      O66046   3.935   5.728   4.851
21935WAT     H166047   3.871   5.654   4.831
21935WAT     H266048   4.023   5.710   4.807
21936WAT      O66049   3.805   0.887   6.157
21936WAT     H166050   3.713   0.918   6.179
21936WAT     H266051   3.869   0.964   6.166
21937WAT      O66052   9.621   8.214   3.420
21937WAT     H166053   9.531   8.176   3.395
21937WAT     H266054   9.615   8.313   3.426
21938WAT      O66055   6.555   0.646   4.746
21938WAT     H166056   6.610   0.669   4.666
21938WAT     H266057   6.522   0.730   4.788
21939WAT      O66058   2.696   5.015   2.435
21939WAT     H166059   2.641   5.082   2.485
21939WAT     H266060   2.635   4.947   2.393
21940WAT      O66061   5.258   6.863   5.766
21940WAT     H166062   5.160   6.866   5.749
21940WAT     H266063   5.275   6.855   5.865
21941WAT      O66064   0.472   0.677   4.257
21941WAT     H166065   0.555   0.643   4.301
21941WAT     H266066   0.435   0.605   4.197
21942WAT      O66067   2.448   5.641   3.643
21942WAT     H166068   2.548   5.649   3.635
21942WAT     H266069   2.414   5.712   3.705
21943WAT      O66070   3.017   8.401   5.504
21943WAT     H166071   2.998   8.444   5.592
21943WAT     H266072   3.017   8.302   5.514
21944WAT      O66073   1.950   0.377   7.433
21944WAT     H166074   1.979   0.371   7.528
21944WAT     H266075   2.030   0.391   7.374
21945WAT      O66076   6.036   0.825   5.551
21945WAT     H166077   6.011   0.894   5.483
21945WAT     H266078   6.075   0.871   5.631
21946WAT      O66079   0.549   1.308   6.213
21946WAT     H166080   0.481   1.381   6.222
21946WAT     H266081   0.547   1.251   6.296
21947WAT      O66082   1.750   8.329   6.149
21947WAT     H166083   1.770   8.333   6.051
21947WAT     H266084   1.719   8.237   6.173
21948WAT      O66085   7.597   4.648   5.898
21948WAT     H166086   7.566   4.667   5.805
21948WAT     H266087   7.622   4.734   5.943
21949WAT      O66088   1.934   3.586   6.904
21949WAT     H166089   2.001   3.606   6.834
21949WAT     H266090   1.884   3.670   6.927
21950WAT      O66091   4.866   1.098   1.859
21950WAT     H166092   4.834   1.174   1.916
21950WAT     H266093   4.907   1.134   1.775
21951WAT      O66094   8.010   3.601   8.487
21951WAT     H166095   7.922   3.581   8.445
21951WAT     H266096   8.023   3.541   8.567
21952WAT      O66097   4.615   9.327   4.855
21952WAT     H166098   4.681   9.386   4.807
21952WAT     H266099   4.529   9.326   4.804
21953WAT      O66100   1.083   8.667   3.885
21953WAT     H166101   1.016   8.742   3.883
21953WAT     H266102   1.035   8.580   3.872
21954WAT      O66103   6.874   1.041   6.798
21954WAT     H166104   6.921   1.128   6.786
21954WAT     H266105   6.850   1.029   6.895
21955WAT      O66106   8.104   3.768   7.599
21955WAT     H166107   8.132   3.818   7.681
21955WAT     H266108   8.173   3.699   7.578
21956WAT      O66109   6.359   7.397   4.589
21956WAT     H166110   6.362   7.312   4.535
21956WAT     H266111   6.408   7.469   4.540
21957WAT      O66112   8.694   1.977   3.124
21957WAT     H166113   8.640   2.060   3.134
21957WAT     H266114   8.773   1.980   3.185
21958WAT      O66115   1.683   9.140   5.398
21958WAT     H166116   1.659   9.151   5.301
21958WAT     H266117   1.694   9.043   5.419
21959WAT      O66118   2.254   3.084   7.856
21959WAT     H166119   2.322   3.071   7.784
21959WAT     H266120   2.169   3.037   7.830
21960WAT      O66121   3.174   7.986   9.123
21960WAT     H166122   3.085   7.950   9.095
21960WAT     H266123   3.163   8.041   9.206
21961WAT      O66124   5.964   5.606   0.385
21961WAT     H166125   5.974   5.506   0.391
21961WAT     H266126   6.047   5.645   0.344
21962WAT      O66127   7.002   2.283   8.783
21962WAT     H166128   6.975   2.379   8.776
21962WAT     H266129   7.056   2.270   8.866
21963WAT      O66130   6.108   8.201   7.328
21963WAT     H166131   6.050   8.265   7.379
21963WAT     H266132   6.204   8.218   7.351
21964WAT      O66133   2.908   7.313   5.369
21964WAT     H166134   2.988   7.361   5.406
21964WAT     H266135   2.926   7.287   5.274
21965WAT      O66136   0.122   7.160   0.352
21965WAT     H166137   0.028   7.168   0.384
21965WAT     H266138   0.182   7.132   0.427
21966WAT      O66139   3.529   5.689   4.621
21966WAT     H166140   3.585   5.623   4.671
21966WAT     H266141   3.588   5.748   4.566
21967WAT      O66142   9.059   6.331   1.560
21967WAT     H166143   9.073   6.276   1.642
21967WAT     H266144   8.998   6.283   1.497
21968WAT      O66145   7.329   3.708   2.254
21968WAT     H166146   7.350   3.695   2.351
21968WAT     H266147   7.234   3.683   2.236
21969WAT      O66148   5.718   1.959   8.793
21969WAT     H166149   5.793   2.005   8.842
21969WAT     H266150   5.737   1.960   8.695
21970WAT      O66151   2.671   9.428   1.255
21970WAT     H166152   2.735   9.441   1.179
21970WAT     H266153   2.714   9.371   1.326
21971WAT      O66154   6.147   0.117   5.971
21971WAT     H166155   6.150   0.019   5.951
21971WAT     H266156   6.221   0.164   5.922
21972WAT      O66157   7.591   1.260   6.425
21972WAT     H166158   7.502   1.216   6.440
21972WAT     H266159   7.615   1.314   6.505
21973WAT      O66160   2.271   9.225   3.253
21973WAT     H166161   2.231   9.271   3.173
21973WAT     H266162   2.349   9.170   3.225
21974WAT      O66163   3.680   6.964   6.220
21974WAT     H166164   3.666   6.920   6.131
21974WAT     H266165   3.663   6.899   6.293
21975WAT      O66166   0.473   8.156   4.615
21975WAT     H166167   0.493   8.233   4.676
21975WAT     H266168   0.544   8.150   4.545
21976WAT      O66169   7.358   0.554   5.748
21976WAT     H166170   7.333   0.468   5.794
21976WAT     H266171   7.293   0.572   5.675
21977WAT      O66172   1.452   8.504   6.387
21977WAT     H166173   1.417   8.596   6.405
21977WAT     H266174   1.516   8.507   6.310
21978WAT      O66175   0.777   8.763   7.275
21978WAT     H166176   0.767   8.682   7.217
21978WAT     H266177   0.688   8.804   7.292
21979WAT      O66178   7.177   9.477   0.162
21979WAT     H166179   7.156   9.480   0.065
21979WAT     H266180   7.109   9.422   0.210
21980WAT      O66181   1.388   6.854   1.540
21980WAT     H166182   1.488   6.851   1.540
21980WAT     H266183   1.354   6.807   1.621
21981WAT      O66184   8.969   6.132   2.662
21981WAT     H166185   8.978   6.064   2.734
21981WAT     H266186   8.881   6.178   2.670
21982WAT      O66187   9.796   7.477   9.516
21982WAT     H166188   9.834   7.440   9.431
21982WAT     H266189   9.732   7.550   9.495
21983WAT      O66190   4.269   0.090   7.578
21983WAT     H166191   4.227   0.048   7.658
21983WAT     H266192   4.348   0.036   7.549
21984WAT      O66193   8.316   8.064   4.703
21984WAT     H166194   8.408   8.104   4.697
21984WAT     H266195   8.253   8.118   4.648
21985WAT      O66196   7.010   7.648   0.160
21985WAT     H166197   7.052   7.738   0.166
21985WAT     H266198   7.047   7.598   0.082
21986WAT      O66199   9.804   6.952   3.399
21986WAT     H166200   9.705   6.952   3.411
21986WAT     H266201   9.848   6.971   3.487
21987WAT      O66202   9.483   5.906   9.009
21987WAT     H166203   9.390   5.938   8.995
21987WAT     H266204   9.482   5.822   9.063
21988WAT      O66205   7.238   9.640   2.681
21988WAT     H166206   7.229   9.645   2.581
21988WAT     H266207   7.258   9.545   2.708
21989WAT      O66208   9.677   5.437   6.844
21989WAT     H166209   9.697   5.398   6.934
21989WAT     H266210   9.759   5.481   6.808
21990WAT      O66211   4.497   9.011   5.011
21990WAT     H166212   4.483   8.971   5.101
21990WAT     H266213   4.438   9.091   5.000
21991WAT      O66214   1.472   3.803   9.014
21991WAT     H166215   1.464   3.796   9.113
21991WAT     H266216   1.454   3.714   8.972
21992WAT      O66217   6.950   3.388   4.126
21992WAT     H166218   6.936   3.466   4.188
21992WAT     H266219   6.861   3.353   4.097
21993WAT      O66220   8.820   8.933   6.450
21993WAT     H166221   8.794   8.911   6.545
21993WAT     H266222   8.905   8.885   6.427
21994WAT      O66223   3.955   8.277   6.742
21994WAT     H166224   3.889   8.204   6.759
21994WAT     H266225   3.921   8.337   6.670
21995WAT      O66226   4.411   2.165   5.055
21995WAT     H166227   4.433   2.254   5.093
21995WAT     H266228   4.366   2.108   5.124
21996WAT      O66229   8.009   1.199   3.491
21996WAT     H166230   8.102   1.172   3.517
21996WAT     H266231   7.945   1.171   3.563
21997WAT      O66232   7.961   3.370   2.056
21997WAT     H166233   7.872   3.401   2.023
21997WAT     H266234   8.020   3.348   1.978
21998WAT      O66235   5.512   4.731   9.387
21998WAT     H166236   5.520   4.637   9.419
21998WAT     H266237   5.487   4.790   9.464
21999WAT      O66238   5.773   7.371   7.945
21999WAT     H166239   5.852   7.321   7.981
21999WAT     H266240   5.736   7.321   7.866
22000WAT      O66241   8.218   0.419   1.016
22000WAT     H166242   8.139   0.359   1.005
22000WAT     H266243   8.187   0.513   1.033
22001WAT      O66244   2.740   2.025   6.828
22001WAT     H166245   2.679   2.104   6.834
22001WAT     H266246   2.687   1.941   6.839
22002WAT      O66247   0.027   6.976   2.098
22002WAT     H166248   0.108   6.917   2.092
22002WAT     H266249   0.055   7.071   2.103
22003WAT      O66250   0.823   5.958   1.640
22003WAT     H166251   0.814   5.859   1.626
22003WAT     H266252   0.733   6.001   1.637
22004WAT      O66253   5.583   1.146   1.567
22004WAT     H166254   5.611   1.137   1.472
22004WAT     H266255   5.602   1.061   1.616
22005WAT      O66256   7.825   6.233   2.895
22005WAT     H166257   7.847   6.158   2.833
22005WAT     H266258   7.732   6.222   2.929
22006WAT      O66259   6.110   9.648   1.220
22006WAT     H166260   6.164   9.669   1.139
22006WAT     H266261   6.046   9.723   1.238
22007WAT      O66262   3.304   8.167   8.495
22007WAT     H166263   3.387   8.131   8.453
22007WAT     H266264   3.311   8.157   8.595
22008WAT      O66265   4.648   4.567   9.794
22008WAT     H166266   4.700   4.515   9.862
22008WAT     H266267   4.692   4.557   9.704
22009WAT      O66268   4.711   2.614   0.936
22009WAT     H166269   4.769   2.621   0.854
22009WAT     H266270   4.756   2.660   1.012
22010WAT      O66271   9.373   7.115   5.438
22010WAT     H166272   9.347   7.031   5.487
22010WAT     H266273   9.406   7.183   5.503
22011WAT      O66274   8.333   8.840   3.706
22011WAT     H166275   8.399   8.888   3.763
22011WAT     H266276   8.375   8.813   3.620
22012WAT      O66277   8.215   3.873   8.180
22012WAT     H166278   8.220   3.843   8.276
22012WAT     H266279   8.291   3.835   8.129
22013WAT      O66280   2.231   0.485   6.057
22013WAT     H166281   2.226   0.529   5.967
22013WAT     H266282   2.140   0.452   6.083
22014WAT      O66283   6.473   3.280   8.582
22014WAT     H166284   6.400   3.212   8.584
22014WAT     H266285   6.433   3.372   8.579
22015WAT      O66286   3.916   3.443   9.005
22015WAT     H166287   3.912   3.499   9.088
22015WAT     H266288   3.984   3.481   8.942
22016WAT      O66289   7.861   7.232   2.866
22016WAT     H166290   7.857   7.160   2.797
22016WAT     H266291   7.867   7.321   2.821
22017WAT      O66292   9.687   3.233   3.905
22017WAT     H166293   9.594   3.208   3.931
22017WAT     H266294   9.749   3.216   3.982
22018WAT      O66295   0.132   8.482   2.272
22018WAT     H166296   0.054   8.429   2.304
22018WAT     H266297   0.114   8.579   2.284
22019WAT      O66298   3.264   8.901   5.010
22019WAT     H166299   3.212   8.954   4.943
22019WAT     H266300   3.218   8.814   5.026
22020WAT      O66301   9.073   0.252   7.515
22020WAT     H166302   9.017   0.316   7.567
22020WAT     H266303   9.044   0.158   7.536
22021WAT      O66304   3.330   6.184   0.390
22021WAT     H166305   3.342   6.280   0.365
22021WAT     H266306   3.413   6.134   0.368
22022WAT      O66307   3.638   5.899   6.827
22022WAT     H166308   3.544   5.872   6.806
22022WAT     H266309   3.641   5.941   6.918
22023WAT      O66310   5.237   3.325   1.351
22023WAT     H166311   5.298   3.249   1.330
22023WAT     H266312   5.221   3.379   1.268
22024WAT      O66313   0.147   5.444   7.416
22024WAT     H166314   0.149   5.513   7.489
22024WAT     H266315   0.140   5.353   7.456
22025WAT      O66316   7.263   6.058   8.585
22025WAT     H166317   7.238   6.138   8.529
22025WAT     H266318   7.198   6.048   8.660
22026WAT      O66319   3.681   7.922   8.617
22026WAT     H166320   3.656   7.861   8.541
22026WAT     H266321   3.767   7.890   8.658
22027WAT      O66322   3.325   9.363   4.120
22027WAT     H166323   3.369   9.339   4.207
22027WAT     H266324   3.396   9.387   4.053
22028WAT      O66325   9.209   7.007   8.198
22028WAT     H166326   9.243   7.008   8.292
22028WAT     H266327   9.119   7.051   8.194
22029WAT      O66328   0.626   0.902   3.771
22029WAT     H166329   0.533   0.940   3.774
22029WAT     H266330   0.685   0.962   3.717
22030WAT      O66331   5.119   7.750   8.429
22030WAT     H166332   5.186   7.750   8.355
22030WAT     H266333   5.096   7.844   8.453
22031WAT      O66334   0.743   4.863   1.726
22031WAT     H166335   0.707   4.856   1.819
22031WAT     H266336   0.685   4.923   1.672
22032WAT      O66337   7.464   9.191   5.678
22032WAT     H166338   7.479   9.264   5.611
22032WAT     H266339   7.366   9.177   5.691
22033WAT      O66340   3.275   6.524   3.100
22033WAT     H166341   3.289   6.449   3.035
22033WAT     H266342   3.362   6.549   3.142
22034WAT      O66343   7.940   4.268   9.209
22034WAT     H166344   7.951   4.331   9.287
22034WAT     H266345   8.028   4.226   9.188
22035WAT      O66346   3.267   9.072   3.708
22035WAT     H166347   3.346   9.107   3.659
22035WAT     H266348   3.242   9.136   3.782
22036WAT      O66349   7.039   9.394   2.451
22036WAT     H166350   7.085   9.368   2.366
22036WAT     H266351   7.003   9.312   2.495
22037WAT      O66352   1.402   6.485   7.735
22037WAT     H166353   1.458   6.547   7.679
22037WAT     H266354   1.311   6.524   7.746
22038WAT      O66355   2.055   2.825   3.574
22038WAT     H166356   2.146   2.820   3.531
22038WAT     H266357   2.065   2.849   3.671
22039WAT      O66358   9.614   1.603   1.345
22039WAT     H166359   9.573   1.514   1.325
22039WAT     H266360   9.710   1.590   1.373
22040WAT      O66361   4.888   1.650   6.578
22040WAT     H166362   4.934   1.589   6.514
22040WAT     H266363   4.941   1.658   6.662
22041WAT      O66364   1.118   8.953   3.050
22041WAT     H166365   1.069   9.036   3.077
22041WAT     H266366   1.089   8.925   2.958
22042WAT      O66367   8.521   3.972   4.010
22042WAT     H166368   8.482   4.061   3.984
22042WAT     H266369   8.487   3.946   4.101
22043WAT      O66370   4.128   3.823   8.897
22043WAT     H166371   4.129   3.823   8.997
22043WAT     H266372   4.060   3.888   8.864
22044WAT      O66373   4.934   2.441   4.978
22044WAT     H166374   4.856   2.504   4.977
22044WAT     H266375   4.903   2.349   4.952
22045WAT      O66376   0.940   4.920   3.290
22045WAT     H166377   0.872   4.954   3.226
22045WAT     H266378   1.021   4.979   3.287
22046WAT      O66379   0.990   4.030   4.090
22046WAT     H166380   0.989   4.124   4.057
22046WAT     H266381   0.917   3.979   4.046
22047WAT      O66382   3.534   9.388   7.582
22047WAT     H166383   3.572   9.305   7.541
22047WAT     H266384   3.591   9.415   7.660
22048WAT      O66385   6.424   8.887   1.773
22048WAT     H166386   6.441   8.831   1.692
22048WAT     H266387   6.511   8.903   1.821
22049WAT      O66388   0.056   9.394   9.319
22049WAT     H166389   0.137   9.422   9.267
22049WAT     H266390   0.085   9.357   9.407
22050WAT      O66391   3.987   3.589   1.674
22050WAT     H166392   3.997   3.524   1.599
22050WAT     H266393   3.965   3.539   1.758
22051WAT      O66394   1.569   3.542   0.111
22051WAT     H166395   1.569   3.581   0.019
22051WAT     H266396   1.494   3.476   0.119
22052WAT      O66397   4.262   7.273   4.037
22052WAT     H166398   4.196   7.283   3.962
22052WAT     H266399   4.238   7.336   4.111
22053WAT      O66400   4.112   3.975   1.944
22053WAT     H166401   4.088   3.886   1.984
22053WAT     H266402   4.060   3.988   1.859
22054WAT      O66403   7.998   4.114   2.900
22054WAT     H166404   8.090   4.089   2.872
22054WAT     H266405   7.988   4.214   2.900
22055WAT      O66406   7.810   4.750   3.958
22055WAT     H166407   7.824   4.688   4.036
22055WAT     H266408   7.722   4.796   3.968
22056WAT      O66409   4.796   1.561   7.121
22056WAT     H166410   4.761   1.544   7.214
22056WAT     H266411   4.807   1.474   7.073
22057WAT      O66412   4.187   6.247   6.881
22057WAT     H166413   4.244   6.166   6.895
22057WAT     H266414   4.101   6.236   6.931
22058WAT      O66415   8.715   4.386   3.999
22058WAT     H166416   8.772   4.387   3.916
22058WAT     H266417   8.765   4.341   4.073
22059WAT      O66418   9.343   1.218   3.476
22059WAT     H166419   9.349   1.311   3.442
22059WAT     H266420   9.252   1.181   3.457
22060WAT      O66421   3.453   7.945   0.743
22060WAT     H166422   3.469   8.042   0.762
22060WAT     H266423   3.433   7.897   0.829
22061WAT      O66424   6.457   6.359   7.117
22061WAT     H166425   6.474   6.413   7.034
22061WAT     H266426   6.504   6.401   7.194
22062WAT      O66427   3.363   0.872   2.342
22062WAT     H166428   3.462   0.867   2.358
22062WAT     H266429   3.329   0.960   2.376
22063WAT      O66430   5.607   9.401   9.484
22063WAT     H166431   5.631   9.435   9.575
22063WAT     H266432   5.691   9.388   9.430
22064WAT      O66433   6.940   2.270   3.901
22064WAT     H166434   6.951   2.250   3.803
22064WAT     H266435   6.916   2.366   3.913
22065WAT      O66436   2.956   8.806   0.425
22065WAT     H166437   2.952   8.899   0.461
22065WAT     H266438   2.878   8.791   0.364
22066WAT      O66439   0.300   5.547   6.206
22066WAT     H166440   0.336   5.640   6.208
22066WAT     H266441   0.230   5.540   6.135
22067WAT      O66442   7.365   1.881   1.758
22067WAT     H166443   7.434   1.890   1.831
22067WAT     H266444   7.409   1.895   1.670
22068WAT      O66445   2.080   0.768   5.408
22068WAT     H166446   2.125   0.821   5.479
22068WAT     H266447   2.148   0.732   5.344
22069WAT      O66448   2.732   0.980   2.336
22069WAT     H166449   2.756   0.979   2.239
22069WAT     H266450   2.771   0.900   2.381
22070WAT      O66451   6.908   1.833   0.249
22070WAT     H166452   6.816   1.806   0.222
22070WAT     H266453   6.904   1.885   0.334
22071WAT      O66454   6.908   6.753   0.602
22071WAT     H166455   6.968   6.833   0.608
22071WAT     H266456   6.831   6.774   0.541
22072WAT      O66457   8.704   5.198   3.786
22072WAT     H166458   8.640   5.274   3.777
22072WAT     H266459   8.664   5.115   3.748
22073WAT      O66460   3.498   7.599   1.576
22073WAT     H166461   3.580   7.542   1.564
22073WAT     H266462   3.504   7.648   1.662
22074WAT      O66463   8.667   9.600   6.587
22074WAT     H166464   8.611   9.518   6.574
22074WAT     H266465   8.760   9.582   6.554
22075WAT      O66466   7.513   7.909   4.123
22075WAT     H166467   7.424   7.955   4.112
22075WAT     H266468   7.497   7.813   4.148
22076WAT      O66469   3.428   9.189   8.182
22076WAT     H166470   3.492   9.206   8.256
22076WAT     H266471   3.416   9.272   8.128
22077WAT      O66472   8.998   2.123   8.976
22077WAT     H166473   8.928   2.057   8.946
22077WAT     H266474   9.088   2.093   8.943
22078WAT      O66475   0.068   3.366   5.042
22078WAT     H166476   0.085   3.416   5.126
22078WAT     H266477   0.029   3.277   5.063
22079WAT      O66478   6.225   0.281   2.862
22079WAT     H166479   6.184   0.372   2.868
22079WAT     H266480   6.162   0.219   2.814
22080WAT      O66481   8.973   4.588   8.834
22080WAT     H166482   9.006   4.653   8.765
22080WAT     H266483   9.001   4.618   8.925
22081WAT      O66484   1.032   6.217   2.499
22081WAT     H166485   0.946   6.249   2.540
22081WAT     H266486   1.015   6.133   2.448
22082WAT      O66487   7.373   9.777   5.462
22082WAT     H166488   7.364   9.857   5.522
22082WAT     H266489   7.467   9.772   5.428
22083WAT      O66490   3.332   9.659   0.274
22083WAT     H166491   3.292   9.728   0.214
22083WAT     H266492   3.368   9.584   0.219
22084WAT      O66493   6.160   8.066   7.870
22084WAT     H166494   6.173   8.090   7.966
22084WAT     H266495   6.233   8.105   7.815
22085WAT      O66496   5.651   4.756   9.729
22085WAT     H166497   5.692   4.823   9.791
22085WAT     H266498   5.673   4.780   9.634
22086WAT      O66499   7.663   4.814   5.366
22086WAT     H166500   7.682   4.823   5.268
22086WAT     H266501   7.748   4.792   5.414
22087WAT      O66502   7.554   6.285   0.114
22087WAT     H166503   7.563   6.335   0.029
22087WAT     H266504   7.574   6.345   0.191
22088WAT      O66505   4.520   5.459   5.212
22088WAT     H166506   4.543   5.519   5.136
22088WAT     H266507   4.601   5.407   5.239
22089WAT      O66508   1.354   2.576   9.687
22089WAT     H166509   1.281   2.508   9.699
22089WAT     H266510   1.357   2.605   9.592
22090WAT      O66511   6.662   2.647   8.401
22090WAT     H166512   6.740   2.634   8.462
22090WAT     H266513   6.694   2.645   8.306
22091WAT      O66514   4.975   4.137   0.690
22091WAT     H166515   5.041   4.062   0.695
22091WAT     H266516   5.019   4.218   0.652
22092WAT      O66517   8.380   5.456   0.964
22092WAT     H166518   8.425   5.370   0.943
22092WAT     H266519   8.283   5.450   0.941
22093WAT      O66520   5.895   1.008   0.721
22093WAT     H166521   5.964   0.959   0.775
22093WAT     H266522   5.866   0.952   0.644
22094WAT      O66523   0.057   5.172   1.199
22094WAT     H166524   0.137   5.187   1.258
22094WAT     H266525   0.065   5.082   1.155
22095WAT      O66526   4.100   6.923   1.467
22095WAT     H166527   4.016   6.871   1.483
22095WAT     H266528   4.153   6.881   1.394
22096WAT      O66529   6.134   4.098   1.760
22096WAT     H166530   6.197   4.161   1.715
22096WAT     H266531   6.181   4.012   1.779
22097WAT      O66532   6.281   6.215   7.895
22097WAT     H166533   6.258   6.187   7.988
22097WAT     H266534   6.197   6.238   7.846
22098WAT      O66535   4.668   2.878   8.145
22098WAT     H166536   4.598   2.813   8.117
22098WAT     H266537   4.731   2.833   8.209
22099WAT      O66538   3.113   8.850   2.114
22099WAT     H166539   3.123   8.823   2.210
22099WAT     H266540   3.159   8.783   2.056
22100WAT      O66541   3.087   4.111   4.902
22100WAT     H166542   2.996   4.135   4.867
22100WAT     H266543   3.127   4.191   4.947
22101WAT      O66544   2.793   4.537   7.393
22101WAT     H166545   2.739   4.491   7.322
22101WAT     H266546   2.875   4.576   7.353
22102WAT      O66547   1.325   8.832   7.171
22102WAT     H166548   1.334   8.788   7.260
22102WAT     H266549   1.229   8.845   7.150
22103WAT      O66550   3.371   1.747   0.933
22103WAT     H166551   3.449   1.802   0.964
22103WAT     H266552   3.314   1.802   0.872
22104WAT      O66553   9.281   6.714   4.069
22104WAT     H166554   9.312   6.802   4.106
22104WAT     H266555   9.256   6.725   3.973
22105WAT      O66556   7.771   3.966   1.365
22105WAT     H166557   7.684   3.916   1.369
22105WAT     H266558   7.766   4.035   1.292
22106WAT      O66559   8.562   2.635   7.676
22106WAT     H166560   8.600   2.696   7.606
22106WAT     H266561   8.544   2.546   7.635
22107WAT      O66562   6.925   3.011   6.775
22107WAT     H166563   6.970   2.930   6.812
22107WAT     H266564   6.868   2.985   6.697
22108WAT      O66565   9.206   5.999   5.068
22108WAT     H166566   9.145   5.923   5.091
22108WAT     H266567   9.258   5.976   4.986
22109WAT      O66568   4.048   8.696   0.965
22109WAT     H166569   4.128   8.756   0.974
22109WAT     H266570   4.051   8.626   1.036
22110WAT      O66571   2.479   9.063   4.769
22110WAT     H166572   2.533   9.060   4.853
22110WAT     H266573   2.488   9.154   4.727
22111WAT      O66574   4.370   8.597   8.373
22111WAT     H166575   4.399   8.640   8.458
22111WAT     H266576   4.448   8.550   8.331
22112WAT      O66577   7.321   7.879   3.474
22112WAT     H166578   7.270   7.962   3.453
22112WAT     H266579   7.411   7.903   3.510
22113WAT      O66580   5.794   9.177   0.572
22113WAT     H166581   5.813   9.162   0.669
22113WAT     H266582   5.695   9.179   0.558
22114WAT      O66583   6.366   5.532   1.885
22114WAT     H166584   6.286   5.502   1.834
22114WAT     H266585   6.353   5.517   1.983
22115WAT      O66586   9.615   2.107   2.890
22115WAT     H166587   9.567   2.159   2.820
22115WAT     H266588   9.712   2.135   2.892
22116WAT      O66589   2.136   8.691   3.698
22116WAT     H166590   2.130   8.592   3.715
22116WAT     H266591   2.200   8.731   3.764
22117WAT      O66592   7.538   2.728   2.657
22117WAT     H166593   7.507   2.654   2.716
22117WAT     H266594   7.625   2.703   2.615
22118WAT      O66595   7.371   4.478   2.956
22118WAT     H166596   7.380   4.473   3.055
22118WAT     H266597   7.283   4.520   2.933
22119WAT      O66598   9.388   6.739   8.234
22119WAT     H166599   9.313   6.742   8.168
22119WAT     H266600   9.396   6.827   8.281
22120WAT      O66601   9.168   9.743   8.954
22120WAT     H166602   9.204   9.695   8.875
22120WAT     H266603   9.145   9.678   9.026
22121WAT      O66604   1.546   0.871   9.444
22121WAT     H166605   1.496   0.837   9.365
22121WAT     H266606   1.643   0.879   9.422
22122WAT      O66607   1.513   0.458   8.859
22122WAT     H166608   1.610   0.471   8.880
22122WAT     H266609   1.504   0.421   8.766
22123WAT      O66610   0.871   7.752   7.641
22123WAT     H166611   0.802   7.689   7.676
22123WAT     H266612   0.887   7.824   7.709
22124WAT      O66613   2.069   0.671   6.843
22124WAT     H166614   2.136   0.624   6.901
22124WAT     H266615   2.064   0.624   6.754
22125WAT      O66616   2.422   9.672   8.610
22125WAT     H166617   2.375   9.660   8.697
22125WAT     H266618   2.421   9.768   8.584
22126WAT      O66619   0.507   9.323   9.590
22126WAT     H166620   0.455   9.332   9.675
22126WAT     H266621   0.564   9.404   9.577
22127WAT      O66622   5.158   6.273   6.509
22127WAT     H166623   5.251   6.250   6.480
22127WAT     H266624   5.162   6.331   6.590
22128WAT      O66625   0.037   3.050   6.081
22128WAT     H166626   0.023   3.015   5.989
22128WAT     H266627   0.109   3.119   6.080
22129WAT      O66628   1.330   5.941   1.976
22129WAT     H166629   1.405   5.895   2.022
22129WAT     H266630   1.310   5.894   1.890
22130WAT      O66631   9.366   7.541   6.052
22130WAT     H166632   9.383   7.446   6.024
22130WAT     H266633   9.295   7.580   5.994
22131WAT      O66634   6.462   9.448   8.511
22131WAT     H166635   6.559   9.467   8.526
22131WAT     H266636   6.412   9.535   8.507
22132WAT      O66637   1.987   0.527   5.507
22132WAT     H166638   2.022   0.619   5.490
22132WAT     H266639   1.946   0.523   5.598
22133WAT      O66640   5.135   5.534   5.124
22133WAT     H166641   5.058   5.585   5.084
22133WAT     H266642   5.163   5.578   5.209
22134WAT      O66643   9.763   2.131   0.547
22134WAT     H166644   9.683   2.088   0.506
22134WAT     H266645   9.770   2.226   0.515
22135WAT      O66646   6.216   1.788   9.136
22135WAT     H166647   6.153   1.714   9.160
22135WAT     H266648   6.175   1.845   9.064
22136WAT      O66649   8.220   0.536   8.217
22136WAT     H166650   8.275   0.457   8.244
22136WAT     H266651   8.156   0.509   8.146
22137WAT      O66652   0.082   1.150   9.387
22137WAT     H166653   0.166   1.108   9.422
22137WAT     H266654   0.005   1.089   9.406
22138WAT      O66655   1.998   7.474   4.154
22138WAT     H166656   1.950   7.534   4.218
22138WAT     H266657   2.091   7.457   4.186
22139WAT      O66658   6.626   2.038   6.085
22139WAT     H166659   6.690   2.081   6.148
22139WAT     H266660   6.539   2.021   6.132
22140WAT      O66661   4.668   8.063   2.983
22140WAT     H166662   4.629   8.094   3.070
22140WAT     H266663   4.602   8.005   2.936
22141WAT      O66664   9.577   5.052   1.167
22141WAT     H166665   9.587   4.969   1.112
22141WAT     H266666   9.610   5.131   1.116
22142WAT      O66667   0.397   9.409   9.212
22142WAT     H166668   0.391   9.508   9.200
22142WAT     H266669   0.427   9.389   9.305
22143WAT      O66670   0.140   2.826   5.710
22143WAT     H166671   0.115   2.743   5.661
22143WAT     H266672   0.168   2.802   5.803
22144WAT      O66673   3.780   4.190   7.497
22144WAT     H166674   3.776   4.223   7.592
22144WAT     H266675   3.824   4.101   7.494
22145WAT      O66676   1.666   5.685   3.344
22145WAT     H166677   1.596   5.663   3.276
22145WAT     H266678   1.746   5.626   3.331
22146WAT      O66679   1.718   0.077   0.927
22146WAT     H166680   1.641   0.015   0.912
22146WAT     H266681   1.783   0.068   0.852
22147WAT      O66682   1.989   3.493   6.137
22147WAT     H166683   2.057   3.556   6.099
22147WAT     H266684   1.899   3.536   6.134
22148WAT      O66685   4.906   7.810   3.543
22148WAT     H166686   4.918   7.716   3.509
22148WAT     H266687   4.865   7.807   3.634
22149WAT      O66688   5.091   9.798   1.436
22149WAT     H166689   5.063   9.881   1.388
22149WAT     H266690   5.181   9.812   1.477
22150WAT      O66691   3.955   6.214   8.211
22150WAT     H166692   3.923   6.228   8.304
22150WAT     H266693   3.974   6.117   8.196
22151WAT      O66694   9.183   5.112   3.849
22151WAT     H166695   9.170   5.040   3.917
22151WAT     H266696   9.111   5.181   3.859
22152WAT      O66697   3.558   8.940   2.757
22152WAT     H166698   3.501   8.935   2.839
22152WAT     H266699   3.502   8.921   2.677
22153WAT      O66700   5.431   8.278   5.930
22153WAT     H166701   5.520   8.299   5.969
22153WAT     H266702   5.364   8.347   5.960
22154WAT      O66703   7.882   4.648   8.411
22154WAT     H166704   7.900   4.661   8.508
22154WAT     H266705   7.854   4.734   8.370
22155WAT      O66706   9.828   3.914   2.203
22155WAT     H166707   9.738   3.930   2.244
22155WAT     H266708   9.816   3.877   2.111
22156WAT      O66709   6.368   2.527   3.375
22156WAT     H166710   6.369   2.431   3.348
22156WAT     H266711   6.313   2.580   3.311
22157WAT      O66712   2.067   2.248   0.023
22157WAT     H166713   2.038   2.267  -0.071
22157WAT     H266714   2.042   2.154   0.047
22158WAT      O66715   2.790   3.835   1.598
22158WAT     H166716   2.864   3.770   1.578
22158WAT     H266717   2.702   3.788   1.587
22159WAT      O66718   3.264   3.329   3.834
22159WAT     H166719   3.301   3.255   3.889
22159WAT     H266720   3.311   3.415   3.857
22160WAT      O66721   9.767   0.618   8.465
22160WAT     H166722   9.736   0.616   8.560
22160WAT     H266723   9.803   0.709   8.444
22161WAT      O66724   7.767   8.068   3.639
22161WAT     H166725   7.766   8.109   3.730
22161WAT     H266726   7.858   8.079   3.599
22162WAT      O66727   9.373   0.635   9.654
22162WAT     H166728   9.330   0.711   9.606
22162WAT     H266729   9.431   0.584   9.590
22163WAT      O66730   9.332   1.587   5.498
22163WAT     H166731   9.337   1.676   5.542
22163WAT     H266732   9.357   1.515   5.563
22164WAT      O66733   6.931   3.849   2.411
22164WAT     H166734   6.834   3.836   2.394
22164WAT     H266735   6.965   3.925   2.355
22165WAT      O66736   2.210   5.729   9.304
22165WAT     H166737   2.270   5.708   9.381
22165WAT     H266738   2.120   5.687   9.318
22166WAT      O66739   1.093   1.010   6.993
22166WAT     H166740   1.059   0.919   6.969
22166WAT     H266741   1.193   1.010   6.989
22167WAT      O66742   9.376   4.461   7.482
22167WAT     H166743   9.412   4.549   7.514
22167WAT     H266744   9.433   4.426   7.408
22168WAT      O66745   1.565   1.797   5.529
22168WAT     H166746   1.544   1.829   5.621
22168WAT     H266747   1.493   1.736   5.497
22169WAT      O66748   4.752   8.538   8.892
22169WAT     H166749   4.730   8.603   8.966
22169WAT     H266750   4.776   8.450   8.932
22170WAT      O66751   3.267   2.982   9.623
22170WAT     H166752   3.221   3.055   9.572
22170WAT     H266753   3.286   2.906   9.561
22171WAT      O66754   2.956   6.930   3.516
22171WAT     H166755   2.945   6.958   3.612
22171WAT     H266756   2.939   7.009   3.457
22172WAT      O66757   7.281   9.354   3.437
22172WAT     H166758   7.304   9.324   3.529
22172WAT     H266759   7.334   9.436   3.415
22173WAT      O66760   6.903   1.889   3.269
22173WAT     H166761   6.999   1.901   3.245
22173WAT     H266762   6.846   1.907   3.189
22174WAT      O66763   7.739   7.827   1.379
22174WAT     H166764   7.661   7.790   1.327
22174WAT     H266765   7.724   7.925   1.395
22175WAT      O66766   8.705   8.018   0.686
22175WAT     H166767   8.655   8.098   0.652
22175WAT     H266768   8.743   8.038   0.776
22176WAT      O66769   2.018   4.541   5.513
22176WAT     H166770   2.021   4.448   5.549
22176WAT     H266771   2.111   4.576   5.504
22177WAT      O66772   3.049   6.196   2.340
22177WAT     H166773   3.136   6.224   2.301
22177WAT     H266774   3.024   6.105   2.307
22178WAT      O66775   3.926   4.956   6.468
22178WAT     H166776   3.879   4.923   6.386
22178WAT     H266777   4.021   4.979   6.446
22179WAT      O66778   4.921   5.268   0.433
22179WAT     H166779   4.850   5.220   0.486
22179WAT     H266780   5.001   5.209   0.424
22180WAT      O66781   3.663   1.360   6.552
22180WAT     H166782   3.610   1.443   6.571
22180WAT     H266783   3.735   1.350   6.620
22181WAT      O66784   2.093   2.324   6.537
22181WAT     H166785   2.060   2.416   6.515
22181WAT     H266786   2.054   2.295   6.624
22182WAT      O66787   4.144   1.290   4.772
22182WAT     H166788   4.051   1.265   4.801
22182WAT     H266789   4.163   1.247   4.683
22183WAT      O66790   2.542   2.306   1.296
22183WAT     H166791   2.466   2.370   1.310
22183WAT     H266792   2.628   2.357   1.295
22184WAT      O66793   7.416   9.328   7.075
22184WAT     H166794   7.408   9.315   7.174
22184WAT     H266795   7.497   9.382   7.055
22185WAT      O66796   9.497   4.392   7.239
22185WAT     H166797   9.594   4.385   7.260
22185WAT     H266798   9.458   4.301   7.227
22186WAT      O66799   9.380   2.138   5.252
22186WAT     H166800   9.323   2.186   5.185
22186WAT     H266801   9.347   2.158   5.345
22187WAT      O66802   6.390   6.774   5.586
22187WAT     H166803   6.482   6.754   5.555
22187WAT     H266804   6.369   6.718   5.667
22188WAT      O66805   3.322   2.321   3.261
22188WAT     H166806   3.349   2.411   3.294
22188WAT     H266807   3.401   2.275   3.220
22189WAT      O66808   0.569   4.338   6.645
22189WAT     H166809   0.566   4.239   6.632
22189WAT     H266810   0.582   4.384   6.557
22190WAT      O66811   6.488   4.060   7.200
22190WAT     H166812   6.443   3.970   7.202
22190WAT     H266813   6.585   4.049   7.221
22191WAT      O66814   6.241   1.692   1.879
22191WAT     H166815   6.193   1.623   1.933
22191WAT     H266816   6.280   1.650   1.798
22192WAT      O66817   3.703   4.221   1.958
22192WAT     H166818   3.685   4.124   1.971
22192WAT     H266819   3.712   4.266   2.047
22193WAT      O66820   4.436   2.627   8.609
22193WAT     H166821   4.445   2.530   8.586
22193WAT     H266822   4.477   2.643   8.698
22194WAT      O66823   6.306   6.405   1.818
22194WAT     H166824   6.404   6.424   1.819
22194WAT     H266825   6.257   6.482   1.858
22195WAT      O66826   2.307   9.479   4.872
22195WAT     H166827   2.240   9.423   4.823
22195WAT     H266828   2.399   9.442   4.857
22196WAT      O66829   3.218   4.656   3.020
22196WAT     H166830   3.155   4.637   3.096
22196WAT     H266831   3.288   4.585   3.017
22197WAT      O66832   2.653   0.735   3.558
22197WAT     H166833   2.614   0.654   3.602
22197WAT     H266834   2.741   0.712   3.518
22198WAT      O66835   2.264   0.447   1.972
22198WAT     H166836   2.270   0.411   1.879
22198WAT     H266837   2.235   0.374   2.034
22199WAT      O66838   0.762   7.193   4.567
22199WAT     H166839   0.746   7.206   4.665
22199WAT     H266840   0.676   7.201   4.518
22200WAT      O66841   4.836   9.167   7.158
22200WAT     H166842   4.780   9.100   7.110
22200WAT     H266843   4.891   9.121   7.227
22201WAT      O66844   2.209   5.024   3.889
22201WAT     H166845   2.128   4.971   3.868
22201WAT     H266846   2.291   4.974   3.859
22202WAT      O66847   8.176   0.922   5.943
22202WAT     H166848   8.149   0.910   6.039
22202WAT     H266849   8.106   0.974   5.895
22203WAT      O66850   2.709   1.703   1.368
22203WAT     H166851   2.612   1.718   1.382
22203WAT     H266852   2.724   1.612   1.330
22204WAT      O66853   0.912   2.231   4.702
22204WAT     H166854   0.992   2.287   4.682
22204WAT     H266855   0.891   2.236   4.799
22205WAT      O66856   8.645   3.326   7.826
22205WAT     H166857   8.554   3.283   7.816
22205WAT     H266858   8.706   3.262   7.873
22206WAT      O66859   1.923   1.363   8.971
22206WAT     H166860   1.986   1.351   8.894
22206WAT     H266861   1.829   1.358   8.937
22207WAT      O66862   7.890   4.100   2.253
22207WAT     H166863   7.939   4.040   2.189
22207WAT     H266864   7.942   4.110   2.337
22208WAT      O66865   4.828   0.188   5.753
22208WAT     H166866   4.825   0.201   5.852
22208WAT     H266867   4.755   0.125   5.725
22209WAT      O66868   2.483   8.756   0.134
22209WAT     H166869   2.417   8.689   0.101
22209WAT     H266870   2.543   8.783   0.059
22210WAT      O66871   1.401   1.511   3.277
22210WAT     H166872   1.328   1.573   3.248
22210WAT     H266873   1.361   1.421   3.296
22211WAT      O66874   0.666   8.965   3.574
22211WAT     H166875   0.585   8.920   3.612
22211WAT     H266876   0.696   8.916   3.492
22212WAT      O66877   1.065   6.015   1.524
22212WAT     H166878   1.055   6.089   1.458
22212WAT     H266879   0.975   5.990   1.560
22213WAT      O66880   3.170   0.353   6.793
22213WAT     H166881   3.084   0.339   6.843
22213WAT     H266882   3.229   0.414   6.846
22214WAT      O66883   0.707   6.323   9.145
22214WAT     H166884   0.795   6.284   9.171
22214WAT     H266885   0.695   6.318   9.046
22215WAT      O66886   6.594   2.322   2.741
22215WAT     H166887   6.590   2.297   2.644
22215WAT     H266888   6.561   2.246   2.797
22216WAT      O66889   6.961   1.590   9.807
22216WAT     H166890   7.016   1.594   9.723
22216WAT     H266891   6.919   1.500   9.815
22217WAT      O66892   9.116   6.184   5.892
22217WAT     H166893   9.197   6.141   5.853
22217WAT     H266894   9.087   6.134   5.973
22218WAT      O66895   0.641   4.781   7.145
22218WAT     H166896   0.629   4.712   7.074
22218WAT     H266897   0.733   4.773   7.184
22219WAT      O66898   0.783   7.115   0.562
22219WAT     H166899   0.796   7.215   0.560
22219WAT     H266900   0.851   7.072   0.504
22220WAT      O66901   2.978   9.063   6.873
22220WAT     H166902   2.926   8.987   6.910
22220WAT     H266903   3.048   9.028   6.809
22221WAT      O66904   0.787   4.557   3.245
22221WAT     H166905   0.694   4.521   3.234
22221WAT     H266906   0.851   4.502   3.192
22222WAT      O66907   3.524   6.648   8.542
22222WAT     H166908   3.460   6.626   8.469
22222WAT     H266909   3.604   6.589   8.536
22223WAT      O66910   7.231   7.009   1.130
22223WAT     H166911   7.198   6.933   1.186
22223WAT     H266912   7.171   7.088   1.143
22224WAT      O66913   4.636   7.556   3.365
22224WAT     H166914   4.568   7.610   3.414
22224WAT     H266915   4.686   7.614   3.301
22225WAT      O66916   3.770   5.466   5.046
22225WAT     H166917   3.824   5.547   5.070
22225WAT     H266918   3.679   5.473   5.088
22226WAT      O66919   1.273   7.527   7.148
22226WAT     H166920   1.302   7.621   7.162
22226WAT     H266921   1.260   7.483   7.237
22227WAT      O66922   7.887   0.020   7.310
22227WAT     H166923   7.926  -0.072   7.300
22227WAT     H266924   7.788   0.014   7.310
22228WAT      O66925   4.084   6.725   5.628
22228WAT     H166926   4.113   6.732   5.533
22228WAT     H266927   4.076   6.817   5.668
22229WAT      O66928   9.152   2.108   4.331
22229WAT     H166929   9.196   2.018   4.332
22229WAT     H266930   9.146   2.141   4.237
22230WAT      O66931   8.576   8.454   7.527
22230WAT     H166932   8.653   8.391   7.538
22230WAT     H266933   8.496   8.403   7.495
22231WAT      O66934   6.878   9.058   5.927
22231WAT     H166935   6.794   9.088   5.882
22231WAT     H266936   6.866   8.965   5.963
22232WAT      O66937   3.350   2.144   1.165
22232WAT     H166938   3.265   2.092   1.176
22232WAT     H266939   3.419   2.107   1.228
22233WAT      O66940   8.290   5.139   1.148
22233WAT     H166941   8.368   5.158   1.088
22233WAT     H266942   8.251   5.225   1.181
22234WAT      O66943   6.450   3.920   0.950
22234WAT     H166944   6.400   3.982   0.889
22234WAT     H266945   6.492   3.848   0.895
22235WAT      O66946   7.860   1.004   0.734
22235WAT     H166947   7.942   0.973   0.685
22235WAT     H266948   7.779   0.986   0.678
22236WAT      O66949   6.819   5.363   9.306
22236WAT     H166950   6.749   5.378   9.376
22236WAT     H266951   6.802   5.425   9.229
22237WAT      O66952   6.476   7.425   6.301
22237WAT     H166953   6.440   7.334   6.320
22237WAT     H266954   6.450   7.487   6.375
22238WAT      O66955   3.450   8.385   4.475
22238WAT     H166956   3.488   8.365   4.385
22238WAT     H266957   3.514   8.442   4.527
22239WAT      O66958   3.191   0.451   7.845
22239WAT     H166959   3.176   0.389   7.768
22239WAT     H266960   3.280   0.432   7.886
22240WAT      O66961   6.033   7.489   1.326
22240WAT     H166962   5.998   7.523   1.413
22240WAT     H266963   6.002   7.395   1.313
22241WAT      O66964   8.553   9.554   5.211
22241WAT     H166965   8.551   9.610   5.128
22241WAT     H266966   8.629   9.490   5.206
22242WAT      O66967   1.725   8.767   3.843
22242WAT     H166968   1.721   8.668   3.857
22242WAT     H266969   1.777   8.786   3.760
22243WAT      O66970   4.109   3.497   4.249
22243WAT     H166971   4.133   3.593   4.237
22243WAT     H266972   4.173   3.455   4.314
22244WAT      O66973   9.258   2.061   2.105
22244WAT     H166974   9.171   2.108   2.088
22244WAT     H266975   9.329   2.129   2.124
22245WAT      O66976   3.051   2.860   1.474
22245WAT     H166977   2.986   2.877   1.400
22245WAT     H266978   3.143   2.888   1.444
22246WAT      O66979   2.590   0.177   1.182
22246WAT     H166980   2.653   0.109   1.218
22246WAT     H266981   2.638   0.263   1.167
22247WAT      O66982   8.804   4.204   7.031
22247WAT     H166983   8.856   4.288   7.047
22247WAT     H266984   8.866   4.126   7.031
22248WAT      O66985   5.863   6.797   8.833
22248WAT     H166986   5.772   6.762   8.810
22248WAT     H266987   5.926   6.720   8.843
22249WAT      O66988   2.147   8.345   8.136
22249WAT     H166989   2.185   8.291   8.061
22249WAT     H266990   2.118   8.284   8.209
22250WAT      O66991   4.831   9.739   9.314
22250WAT     H166992   4.873   9.663   9.265
22250WAT     H266993   4.833   9.721   9.412
22251WAT      O66994   4.503   1.423   5.346
22251WAT     H166995   4.545   1.352   5.403
22251WAT     H266996   4.447   1.483   5.403
22252WAT      O66997   7.205   2.089   4.360
22252WAT     H166998   7.179   2.010   4.304
22252WAT     H266999   7.205   2.171   4.304
22253WAT      O67000   6.213   1.462   7.457
22253WAT     H167001   6.288   1.467   7.524
22253WAT     H267002   6.247   1.420   7.373
22254WAT      O67003   2.034   7.327   5.133
22254WAT     H167004   2.108   7.363   5.191
22254WAT     H267005   1.952   7.313   5.188
22255WAT      O67006   8.798   8.923   7.009
22255WAT     H167007   8.702   8.897   7.000
22255WAT     H267008   8.855   8.841   7.020
22256WAT      O67009   3.814   2.742   6.010
22256WAT     H167010   3.829   2.776   5.917
22256WAT     H267011   3.894   2.762   6.067
22257WAT      O67012   2.117   8.372   3.081
22257WAT     H167013   2.213   8.396   3.065
22257WAT     H267014   2.104   8.274   3.065
22258WAT      O67015   0.487   7.662   5.625
22258WAT     H167016   0.393   7.633   5.645
22258WAT     H267017   0.547   7.635   5.700
22259WAT      O67018   4.113   6.457   0.016
22259WAT     H167019   4.083   6.429  -0.075
22259WAT     H267020   4.206   6.424   0.031
22260WAT      O67021   6.093   4.921   1.783
22260WAT     H167022   5.997   4.903   1.806
22260WAT     H267023   6.152   4.859   1.835
22261WAT      O67024   5.548   3.755   3.993
22261WAT     H167025   5.460   3.789   4.025
22261WAT     H267026   5.598   3.714   4.070
22262WAT      O67027   3.503   6.635   1.274
22262WAT     H167028   3.525   6.650   1.178
22262WAT     H267029   3.547   6.551   1.305
22263WAT      O67030   0.584   3.702   3.375
22263WAT     H167031   0.519   3.776   3.356
22263WAT     H267032   0.534   3.615   3.381
22264WAT      O67033   4.731   6.809   2.248
22264WAT     H167034   4.720   6.871   2.326
22264WAT     H267035   4.756   6.862   2.168
22265WAT      O67036   3.164   7.907   1.040
22265WAT     H167037   3.262   7.895   1.025
22265WAT     H267038   3.123   7.947   0.959
22266WAT      O67039   2.835   2.310   7.396
22266WAT     H167040   2.781   2.228   7.375
22266WAT     H267041   2.860   2.309   7.493
22267WAT      O67042   5.888   2.514   4.475
22267WAT     H167043   5.932   2.425   4.477
22267WAT     H267044   5.789   2.503   4.489
22268WAT      O67045   7.289   7.480   8.559
22268WAT     H167046   7.315   7.537   8.481
22268WAT     H267047   7.340   7.395   8.557
22269WAT      O67048   9.522   8.053   1.403
22269WAT     H167049   9.538   8.054   1.305
22269WAT     H267050   9.563   7.970   1.443
22270WAT      O67051   0.947   6.907   6.136
22270WAT     H167052   0.934   6.877   6.231
22270WAT     H267053   0.885   6.982   6.116
22271WAT      O67054   1.173   1.257   5.721
22271WAT     H167055   1.231   1.291   5.646
22271WAT     H267056   1.120   1.333   5.758
22272WAT      O67057   0.470   0.023   8.682
22272WAT     H167058   0.410   0.088   8.727
22272WAT     H267059   0.525   0.070   8.613
22273WAT      O67060   5.476   0.088   0.355
22273WAT     H167061   5.395   0.103   0.299
22273WAT     H267062   5.527   0.173   0.363
22274WAT      O67063   1.791   6.978   5.694
22274WAT     H167064   1.840   7.034   5.760
22274WAT     H267065   1.695   6.968   5.723
22275WAT      O67066   0.732   1.525   9.867
22275WAT     H167067   0.769   1.606   9.913
22275WAT     H267068   0.793   1.497   9.794
22276WAT      O67069   2.629   5.764   8.359
22276WAT     H167070   2.601   5.700   8.430
22276WAT     H267071   2.718   5.738   8.323
22277WAT      O67072   4.926   9.282   4.742
22277WAT     H167073   4.878   9.369   4.758
22277WAT     H267074   4.897   9.215   4.811
22278WAT      O67075   6.781   5.215   5.225
22278WAT     H167076   6.778   5.247   5.130
22278WAT     H267077   6.699   5.161   5.244
22279WAT      O67078   5.211   3.200   0.857
22279WAT     H167079   5.140   3.208   0.787
22279WAT     H267080   5.174   3.154   0.937
22280WAT      O67081   3.194   6.741   1.947
22280WAT     H167082   3.125   6.699   1.888
22280WAT     H267083   3.212   6.834   1.916
22281WAT      O67084   1.145   9.687   8.372
22281WAT     H167085   1.179   9.701   8.279
22281WAT     H267086   1.148   9.590   8.395
22282WAT      O67087   2.741   2.651   1.110
22282WAT     H167088   2.757   2.553   1.123
22282WAT     H267089   2.703   2.668   1.019
22283WAT      O67090   6.091   4.517   0.194
22283WAT     H167091   6.170   4.457   0.184
22283WAT     H267092   6.015   4.466   0.234
22284WAT      O67093   9.039   7.169   7.454
22284WAT     H167094   8.988   7.141   7.372
22284WAT     H267095   9.101   7.245   7.430
22285WAT      O67096   3.805   9.596   4.978
22285WAT     H167097   3.732   9.622   4.915
22285WAT     H267098   3.778   9.515   5.029
22286WAT      O67099   3.245   7.757   6.351
22286WAT     H167100   3.254   7.664   6.385
22286WAT     H267101   3.204   7.756   6.260
22287WAT      O67102   3.561   6.953   9.157
22287WAT     H167103   3.595   6.992   9.072
22287WAT     H267104   3.557   7.024   9.227
22288WAT      O67105   1.003   3.627   7.464
22288WAT     H167106   1.089   3.595   7.424
22288WAT     H267107   0.938   3.649   7.391
22289WAT      O67108   3.186   6.854   7.973
22289WAT     H167109   3.249   6.849   8.050
22289WAT     H267110   3.133   6.769   7.967
22290WAT      O67111   7.464   6.498   5.220
22290WAT     H167112   7.458   6.423   5.286
22290WAT     H267113   7.420   6.471   5.134
22291WAT      O67114   2.044   7.496   7.553
22291WAT     H167115   2.033   7.475   7.650
22291WAT     H267116   2.082   7.417   7.505
22292WAT      O67117   7.210   6.856   3.985
22292WAT     H167118   7.193   6.787   4.054
22292WAT     H267119   7.172   6.826   3.897
22293WAT      O67120   3.556   6.202   8.434
22293WAT     H167121   3.458   6.204   8.452
22293WAT     H267122   3.597   6.123   8.478
22294WAT      O67123   7.034   6.098   8.283
22294WAT     H167124   6.951   6.079   8.335
22294WAT     H267125   7.083   6.175   8.323
22295WAT      O67126   6.615   4.511   2.593
22295WAT     H167127   6.634   4.591   2.536
22295WAT     H267128   6.614   4.429   2.537
22296WAT      O67129   8.656   6.753   9.618
22296WAT     H167130   8.730   6.752   9.551
22296WAT     H267131   8.694   6.775   9.708
22297WAT      O67132   8.948   1.964   3.218
22297WAT     H167133   8.966   1.867   3.234
22297WAT     H267134   9.009   2.019   3.277
22298WAT      O67135   7.151   8.165   4.252
22298WAT     H167136   7.141   8.154   4.351
22298WAT     H267137   7.107   8.250   4.224
22299WAT      O67138   7.595   8.025   9.194
22299WAT     H167139   7.506   8.004   9.235
22299WAT     H267140   7.602   7.983   9.104
22300WAT      O67141   8.951   7.024   1.159
22300WAT     H167142   8.885   6.958   1.194
22300WAT     H267143   9.007   7.059   1.234
22301WAT      O67144   0.891   8.845   5.224
22301WAT     H167145   0.825   8.917   5.203
22301WAT     H267146   0.921   8.854   5.319
22302WAT      O67147   8.698   1.000   8.466
22302WAT     H167148   8.604   1.029   8.480
22302WAT     H267149   8.701   0.902   8.444
22303WAT      O67150   7.515   7.840   2.814
22303WAT     H167151   7.464   7.837   2.728
22303WAT     H267152   7.506   7.751   2.860
22304WAT      O67153   8.313   4.815   5.322
22304WAT     H167154   8.270   4.905   5.331
22304WAT     H267155   8.299   4.762   5.406
22305WAT      O67156   6.714   4.681   2.772
22305WAT     H167157   6.753   4.755   2.717
22305WAT     H267158   6.688   4.605   2.713
22306WAT      O67159   4.070   1.239   0.479
22306WAT     H167160   4.166   1.260   0.496
22306WAT     H267161   4.021   1.235   0.566
22307WAT      O67162   8.279   1.191   7.046
22307WAT     H167163   8.221   1.140   7.110
22307WAT     H267164   8.230   1.203   6.960
22308WAT      O67165   5.030   6.777   7.413
22308WAT     H167166   5.124   6.747   7.400
22308WAT     H267167   4.968   6.706   7.381
22309WAT      O67168   5.072   1.617   6.779
22309WAT     H167169   5.134   1.661   6.844
22309WAT     H267170   5.121   1.544   6.731
22310WAT      O67171   5.075   2.032   4.221
22310WAT     H167172   5.075   2.071   4.129
22310WAT     H267173   5.151   1.968   4.230
22311WAT      O67174   3.634   6.161   5.759
22311WAT     H167175   3.546   6.114   5.773
22311WAT     H267176   3.698   6.099   5.714
22312WAT      O67177   0.048   1.900   6.788
22312WAT     H167178  -0.012   1.832   6.831
22312WAT     H267179   0.003   1.989   6.791
22313WAT      O67180   4.035   6.724   7.915
22313WAT     H167181   4.126   6.716   7.954
22313WAT     H267182   4.033   6.799   7.849
22314WAT      O67183   2.144   0.285   8.584
22314WAT     H167184   2.161   0.381   8.604
22314WAT     H267185   2.065   0.253   8.637
22315WAT      O67186   3.947   0.249   2.454
22315WAT     H167187   4.018   0.317   2.472
22315WAT     H267188   3.906   0.266   2.365
22316WAT      O67189   9.359   7.260   9.725
22316WAT     H167190   9.381   7.162   9.720
22316WAT     H267191   9.334   7.293   9.633
22317WAT      O67192   5.854   0.549   5.745
22317WAT     H167193   5.898   0.532   5.833
22317WAT     H267194   5.762   0.587   5.760
22318WAT      O67195   1.552   7.815   3.447
22318WAT     H167196   1.462   7.773   3.436
22318WAT     H267197   1.615   7.776   3.379
22319WAT      O67198   9.225   8.078   3.853
22319WAT     H167199   9.264   8.091   3.762
22319WAT     H267200   9.126   8.091   3.849
22320WAT      O67201   2.274   0.404   9.220
22320WAT     H167202   2.270   0.431   9.124
22320WAT     H267203   2.186   0.421   9.264
22321WAT      O67204   4.082   1.561   0.230
22321WAT     H167205   4.074   1.645   0.175
22321WAT     H267206   4.167   1.514   0.207
22322WAT      O67207   3.778   5.565   8.571
22322WAT     H167208   3.834   5.491   8.534
22322WAT     H267209   3.824   5.605   8.650
22323WAT      O67210   4.489   4.807   9.106
22323WAT     H167211   4.562   4.816   9.174
22323WAT     H267212   4.421   4.742   9.139
22324WAT      O67213   5.591   1.031   5.105
22324WAT     H167214   5.611   1.046   5.008
22324WAT     H267215   5.584   1.119   5.152
22325WAT      O67216   3.842   0.734   3.594
22325WAT     H167217   3.932   0.701   3.622
22325WAT     H267218   3.774   0.708   3.662
22326WAT      O67219   4.962   8.306   6.062
22326WAT     H167220   4.923   8.236   6.123
22326WAT     H267221   4.906   8.312   5.980
22327WAT      O67222   6.703   5.569   9.159
22327WAT     H167223   6.692   5.576   9.059
22327WAT     H267224   6.752   5.650   9.192
22328WAT      O67225   7.401   6.814   2.308
22328WAT     H167226   7.432   6.827   2.213
22328WAT     H267227   7.321   6.872   2.325
22329WAT      O67228   0.610   9.513   3.315
22329WAT     H167229   0.588   9.577   3.241
22329WAT     H267230   0.597   9.419   3.283
22330WAT      O67231   7.791   9.009   0.491
22330WAT     H167232   7.747   9.000   0.402
22330WAT     H267233   7.790   8.921   0.539
22331WAT      O67234   7.351   7.035   9.088
22331WAT     H167235   7.446   7.021   9.062
22331WAT     H267236   7.322   6.962   9.150
22332WAT      O67237   6.759   2.439   2.143
22332WAT     H167238   6.816   2.521   2.147
22332WAT     H267239   6.692   2.440   2.218
22333WAT      O67240   8.384   6.009   5.031
22333WAT     H167241   8.479   6.037   5.019
22333WAT     H267242   8.380   5.938   5.101
22334WAT      O67243   5.856   7.735   8.640
22334WAT     H167244   5.955   7.738   8.649
22334WAT     H267245   5.814   7.792   8.711
22335WAT      O67246   7.125   1.260   6.334
22335WAT     H167247   7.094   1.169   6.365
22335WAT     H267248   7.105   1.271   6.237
22336WAT      O67249   8.584   4.071   7.315
22336WAT     H167250   8.625   4.161   7.304
22336WAT     H267251   8.511   4.059   7.248
22337WAT      O67252   4.247   7.366   8.206
22337WAT     H167253   4.256   7.305   8.127
22337WAT     H267254   4.326   7.426   8.211
22338WAT      O67255   3.872   0.108   2.016
22338WAT     H167256   3.899   0.198   1.981
22338WAT     H267257   3.899   0.038   1.951
22339WAT      O67258   0.639   3.717   1.125
22339WAT     H167259   0.633   3.691   1.221
22339WAT     H267260   0.729   3.758   1.107
22340WAT      O67261   3.796   1.434   8.937
22340WAT     H167262   3.883   1.385   8.932
22340WAT     H267263   3.723   1.377   8.897
22341WAT      O67264   3.896   4.397   4.583
22341WAT     H167265   3.927   4.316   4.632
22341WAT     H267266   3.913   4.386   4.486
22342WAT      O67267   3.853   6.520   3.456
22342WAT     H167268   3.778   6.585   3.467
22342WAT     H267269   3.895   6.502   3.545
22343WAT      O67270   9.065   8.000   7.937
22343WAT     H167271   9.150   8.050   7.918
22343WAT     H267272   9.046   7.937   7.862
22344WAT      O67273   1.474   2.722   1.656
22344WAT     H167274   1.498   2.757   1.566
22344WAT     H267275   1.397   2.774   1.693
22345WAT      O67276   7.819   5.814   0.507
22345WAT     H167277   7.872   5.839   0.589
22345WAT     H267278   7.882   5.788   0.434
22346WAT      O67279   7.632   8.479   5.680
22346WAT     H167280   7.649   8.559   5.622
22346WAT     H267281   7.650   8.396   5.628
22347WAT      O67282   7.465   7.614   5.965
22347WAT     H167283   7.471   7.524   5.921
22347WAT     H267284   7.369   7.638   5.977
22348WAT      O67285   1.235   0.270   9.861
22348WAT     H167286   1.246   0.362   9.898
22348WAT     H267287   1.145   0.262   9.818
22349WAT      O67288   9.804   7.116   6.217
22349WAT     H167289   9.708   7.119   6.246
22349WAT     H267290   9.856   7.183   6.270
22350WAT      O67291   6.533   8.043   3.084
22350WAT     H167292   6.486   7.955   3.086
22350WAT     H267293   6.466   8.118   3.092
22351WAT      O67294   6.521   9.317   6.063
22351WAT     H167295   6.599   9.260   6.091
22351WAT     H267296   6.436   9.267   6.079
22352WAT      O67297   2.162   0.134   4.534
22352WAT     H167298   2.236   0.123   4.600
22352WAT     H267299   2.087   0.186   4.576
22353WAT      O67300   3.883   5.771   3.383
22353WAT     H167301   3.926   5.681   3.372
22353WAT     H267302   3.876   5.815   3.294
22354WAT      O67303   1.831   1.229   1.444
22354WAT     H167304   1.861   1.316   1.485
22354WAT     H267305   1.892   1.204   1.370
22355WAT      O67306   1.310   0.176   7.539
22355WAT     H167307   1.267   0.116   7.472
22355WAT     H267308   1.279   0.270   7.524
22356WAT      O67309   4.250   4.977   3.439
22356WAT     H167310   4.200   4.904   3.392
22356WAT     H267311   4.326   4.937   3.490
22357WAT      O67312   3.650   2.206   3.609
22357WAT     H167313   3.562   2.162   3.593
22357WAT     H267314   3.663   2.223   3.706
22358WAT      O67315   3.373   2.239   6.459
22358WAT     H167316   3.382   2.140   6.464
22358WAT     H267317   3.456   2.279   6.421
22359WAT      O67318   3.181   1.297   4.963
22359WAT     H167319   3.230   1.217   4.929
22359WAT     H267320   3.248   1.364   4.997
22360WAT      O67321   6.362   5.431   4.808
22360WAT     H167322   6.434   5.465   4.869
22360WAT     H267323   6.387   5.341   4.773
22361WAT      O67324   0.617   4.331   4.876
22361WAT     H167325   0.655   4.377   4.956
22361WAT     H267326   0.591   4.400   4.807
22362WAT      O67327   1.146   8.072   5.403
22362WAT     H167328   1.167   8.042   5.310
22362WAT     H267329   1.047   8.071   5.416
22363WAT      O67330   0.250   5.790   2.669
22363WAT     H167331   0.156   5.786   2.636
22363WAT     H267332   0.307   5.731   2.612
22364WAT      O67333   5.177   1.000   9.415
22364WAT     H167334   5.143   1.056   9.340
22364WAT     H267335   5.231   0.925   9.378
22365WAT      O67336   2.501   0.121   0.189
22365WAT     H167337   2.570   0.130   0.117
22365WAT     H267338   2.538   0.066   0.264
22366WAT      O67339   8.340   8.516   2.418
22366WAT     H167340   8.404   8.575   2.370
22366WAT     H267341   8.261   8.571   2.448
22367WAT      O67342   1.938   4.660   8.428
22367WAT     H167343   1.992   4.734   8.387
22367WAT     H267344   1.999   4.598   8.476
22368WAT      O67345   9.099   0.147   2.561
22368WAT     H167346   9.063   0.240   2.573
22368WAT     H267347   9.131   0.135   2.467
22369WAT      O67348   0.650   9.764   3.868
22369WAT     H167349   0.704   9.703   3.811
22369WAT     H267350   0.553   9.739   3.861
22370WAT      O67351   6.958   1.913   4.824
22370WAT     H167352   6.908   1.869   4.750
22370WAT     H267353   7.053   1.928   4.797
22371WAT      O67354   3.381   8.655   5.352
22371WAT     H167355   3.285   8.648   5.381
22371WAT     H267356   3.435   8.584   5.397
22372WAT      O67357   7.015   5.803   6.074
22372WAT     H167358   6.950   5.867   6.115
22372WAT     H267359   7.090   5.786   6.138
22373WAT      O67360   4.416   4.540   5.333
22373WAT     H167361   4.397   4.625   5.383
22373WAT     H267362   4.363   4.539   5.249
22374WAT      O67363   6.779   3.094   8.001
22374WAT     H167364   6.747   3.044   7.920
22374WAT     H267365   6.799   3.189   7.975
22375WAT      O67366   7.368   7.204   5.345
22375WAT     H167367   7.396   7.287   5.393
22375WAT     H267368   7.270   7.189   5.358
22376WAT      O67369   2.210   7.259   3.861
22376WAT     H167370   2.124   7.220   3.896
22376WAT     H267371   2.271   7.186   3.833
22377WAT      O67372   5.204   2.013   3.278
22377WAT     H167373   5.267   2.021   3.356
22377WAT     H267374   5.140   1.938   3.295
22378WAT      O67375   4.395   0.407   2.196
22378WAT     H167376   4.393   0.421   2.295
22378WAT     H267377   4.392   0.496   2.150
22379WAT      O67378   0.345   4.098   3.198
22379WAT     H167379   0.409   4.110   3.275
22379WAT     H267380   0.307   4.187   3.173
22380WAT      O67381   8.583   3.955   8.593
22380WAT     H167382   8.614   4.024   8.527
22380WAT     H267383   8.484   3.945   8.586
22381WAT      O67384   2.368   0.630   0.756
22381WAT     H167385   2.289   0.619   0.695
22381WAT     H267386   2.422   0.708   0.726
22382WAT      O67387   8.863   6.789   7.360
22382WAT     H167388   8.860   6.757   7.266
22382WAT     H267389   8.783   6.755   7.410
22383WAT      O67390   8.708   7.723   2.451
22383WAT     H167391   8.648   7.699   2.527
22383WAT     H267392   8.653   7.753   2.374
22384WAT      O67393   1.056   5.024   8.415
22384WAT     H167394   0.982   4.967   8.450
22384WAT     H267395   1.132   4.966   8.386
22385WAT      O67396   6.306   6.314   5.675
22385WAT     H167397   6.371   6.258   5.727
22385WAT     H267398   6.323   6.302   5.577
22386WAT      O67399   2.259   5.159   1.393
22386WAT     H167400   2.241   5.082   1.454
22386WAT     H267401   2.356   5.162   1.369
22387WAT      O67402   4.111   0.263   6.134
22387WAT     H167403   4.124   0.362   6.131
22387WAT     H267404   4.018   0.243   6.168
22388WAT      O67405   5.257   7.186   4.800
22388WAT     H167406   5.268   7.130   4.718
22388WAT     H267407   5.227   7.278   4.774
22389WAT      O67408   9.673   3.118   5.481
22389WAT     H167409   9.750   3.092   5.540
22389WAT     H267410   9.610   3.041   5.473
22390WAT      O67411   6.703   5.982   7.068
22390WAT     H167412   6.609   5.996   7.035
22390WAT     H267413   6.722   6.048   7.141
22391WAT      O67414   0.274   1.767   6.738
22391WAT     H167415   0.317   1.797   6.823
22391WAT     H267416   0.182   1.805   6.732
22392WAT      O67417   0.544   1.128   2.759
22392WAT     H167418   0.527   1.137   2.661
22392WAT     H267419   0.532   1.217   2.803
22393WAT      O67420   1.990   8.278   4.937
22393WAT     H167421   2.032   8.285   5.027
22393WAT     H267422   1.998   8.366   4.889
22394WAT      O67423   8.572   0.638   5.448
22394WAT     H167424   8.657   0.604   5.408
22394WAT     H267425   8.587   0.659   5.545
22395WAT      O67426   3.117   0.165   4.167
22395WAT     H167427   3.162   0.217   4.094
22395WAT     H267428   3.056   0.224   4.219
22396WAT      O67429   4.057   1.611   5.433
22396WAT     H167430   4.047   1.678   5.360
22396WAT     H267431   3.999   1.638   5.511
22397WAT      O67432   2.296   7.164   7.545
22397WAT     H167433   2.211   7.175   7.598
22397WAT     H267434   2.274   7.131   7.454
22398WAT      O67435   5.614   5.728   6.116
22398WAT     H167436   5.592   5.802   6.053
22398WAT     H267437   5.712   5.730   6.138
22399WAT      O67438   3.851   9.691   6.424
22399WAT     H167439   3.889   9.602   6.449
22399WAT     H267440   3.892   9.721   6.338
22400WAT      O67441   1.955   7.156   6.371
22400WAT     H167442   2.048   7.128   6.349
22400WAT     H267443   1.951   7.190   6.465
22401WAT      O67444   3.519   7.777   6.250
22401WAT     H167445   3.559   7.846   6.191
22401WAT     H267446   3.419   7.787   6.251
22402WAT      O67447   0.044   2.101   5.576
22402WAT     H167448   0.037   2.001   5.571
22402WAT     H267449  -0.047   2.141   5.588
22403WAT      O67450   4.995   5.091   8.683
22403WAT     H167451   5.049   5.056   8.607
22403WAT     H267452   4.923   5.025   8.706
22404WAT      O67453   0.852   3.868   1.083
22404WAT     H167454   0.951   3.869   1.066
22404WAT     H267455   0.827   3.952   1.130
22405WAT      O67456   4.997   5.116   6.623
22405WAT     H167457   4.994   5.216   6.631
22405WAT     H267458   5.079   5.089   6.573
22406WAT      O67459   6.750   2.253   4.505
22406WAT     H167460   6.803   2.321   4.456
22406WAT     H267461   6.652   2.267   4.488
22407WAT      O67462   0.439   3.951   7.825
22407WAT     H167463   0.497   3.995   7.757
22407WAT     H267464   0.449   3.998   7.912
22408WAT      O67465   8.021   4.523   1.353
22408WAT     H167466   8.115   4.490   1.344
22408WAT     H267467   8.013   4.614   1.312
22409WAT      O67468   5.254   3.047   3.268
22409WAT     H167469   5.277   3.139   3.235
22409WAT     H267470   5.228   2.990   3.190
22410WAT      O67471   5.033   7.247   4.029
22410WAT     H167472   5.076   7.191   4.099
22410WAT     H267473   5.030   7.197   3.942
22411WAT      O67474   7.135   0.764   8.227
22411WAT     H167475   7.172   0.822   8.299
22411WAT     H267476   7.170   0.794   8.139
22412WAT      O67477   7.571   3.394   3.450
22412WAT     H167478   7.552   3.372   3.354
22412WAT     H267479   7.605   3.487   3.456
22413WAT      O67480   8.830   3.729   8.867
22413WAT     H167481   8.876   3.721   8.955
22413WAT     H267482   8.732   3.741   8.881
22414WAT      O67483   0.950   2.809   1.546
22414WAT     H167484   0.952   2.891   1.489
22414WAT     H267485   0.860   2.801   1.590
22415WAT      O67486   0.465   5.893   1.164
22415WAT     H167487   0.476   5.986   1.128
22415WAT     H267488   0.406   5.895   1.244
22416WAT      O67489   9.770   0.707   0.132
22416WAT     H167490   9.868   0.704   0.114
22416WAT     H267491   9.743   0.627   0.185
22417WAT      O67492   1.644   8.500   3.399
22417WAT     H167493   1.738   8.485   3.368
22417WAT     H267494   1.584   8.432   3.357
22418WAT      O67495   6.458   6.497   6.871
22418WAT     H167496   6.417   6.522   6.783
22418WAT     H267497   6.495   6.579   6.916
22419WAT      O67498   7.542   9.510   2.622
22419WAT     H167499   7.532   9.610   2.629
22419WAT     H267500   7.454   9.467   2.637
22420WAT      O67501   5.924   0.186   2.492
22420WAT     H167502   5.889   0.094   2.475
22420WAT     H267503   5.965   0.189   2.583
22421WAT      O67504   7.747   9.609   8.706
22421WAT     H167505   7.673   9.542   8.711
22421WAT     H267506   7.713   9.694   8.666
22422WAT      O67507   0.631   4.578   2.032
22422WAT     H167508   0.702   4.563   1.964
22422WAT     H267509   0.671   4.570   2.124
22423WAT      O67510   4.194   7.169   0.305
22423WAT     H167511   4.235   7.256   0.280
22423WAT     H267512   4.176   7.167   0.403
22424WAT      O67513   7.493   9.304   5.110
22424WAT     H167514   7.415   9.359   5.141
22424WAT     H267515   7.532   9.346   5.028
22425WAT      O67516   9.366   4.605   1.506
22425WAT     H167517   9.377   4.513   1.544
22425WAT     H267518   9.440   4.664   1.537
22426WAT      O67519   8.459   0.603   4.964
22426WAT     H167520   8.400   0.671   4.921
22426WAT     H267521   8.437   0.596   5.062
22427WAT      O67522   0.650   5.158   7.142
22427WAT     H167523   0.656   5.072   7.090
22427WAT     H267524   0.564   5.159   7.194
22428WAT      O67525   2.356   3.460   3.231
22428WAT     H167526   2.434   3.475   3.171
22428WAT     H267527   2.365   3.518   3.312
22429WAT      O67528   6.053   6.355   0.433
22429WAT     H167529   6.148   6.384   0.419
22429WAT     H267530   6.021   6.389   0.521
22430WAT      O67531   2.203   8.988   1.429
22430WAT     H167532   2.164   8.920   1.367
22430WAT     H267533   2.148   8.992   1.512
22431WAT      O67534   6.323   7.694   9.442
22431WAT     H167535   6.233   7.656   9.418
22431WAT     H267536   6.394   7.636   9.402
22432WAT      O67537   5.083   8.026   1.092
22432WAT     H167538   5.029   8.011   1.009
22432WAT     H267539   5.022   8.038   1.170
22433WAT      O67540   7.698   4.178   1.200
22433WAT     H167541   7.781   4.230   1.220
22433WAT     H267542   7.618   4.237   1.211
22434WAT      O67543   2.862   5.434   0.146
22434WAT     H167544   2.907   5.522   0.163
22434WAT     H267545   2.867   5.413   0.049
22435WAT      O67546   7.492   9.237   8.445
22435WAT     H167547   7.423   9.310   8.447
22435WAT     H267548   7.575   9.271   8.402
22436WAT      O67549   1.933   7.114   5.323
22436WAT     H167550   1.860   7.100   5.257
22436WAT     H267551   1.942   7.033   5.380
22437WAT      O67552   1.951   2.741   0.926
22437WAT     H167553   2.046   2.756   0.951
22437WAT     H267554   1.946   2.702   0.834
22438WAT      O67555   6.182   4.206   8.667
22438WAT     H167556   6.113   4.260   8.619
22438WAT     H267557   6.234   4.265   8.728
22439WAT      O67558   3.015   0.209   7.882
22439WAT     H167559   3.087   0.278   7.894
22439WAT     H267560   2.932   0.239   7.930
22440WAT      O67561   3.241   3.273   2.929
22440WAT     H167562   3.289   3.321   2.856
22440WAT     H267563   3.254   3.175   2.918
22441WAT      O67564   5.093   3.825   7.999
22441WAT     H167565   5.028   3.844   7.925
22441WAT     H267566   5.104   3.726   8.009
22442WAT      O67567   7.169   3.971   6.430
22442WAT     H167568   7.214   3.985   6.342
22442WAT     H267569   7.234   3.931   6.495
22443WAT      O67570   0.053   4.206   7.995
22443WAT     H167571   0.088   4.264   7.921
22443WAT     H267572   0.100   4.118   7.993
22444WAT      O67573   0.861   3.213   6.807
22444WAT     H167574   0.905   3.300   6.784
22444WAT     H267575   0.887   3.144   6.739
22445WAT      O67576   6.759   3.352   6.522
22445WAT     H167577   6.717   3.438   6.552
22445WAT     H267578   6.844   3.373   6.474
22446WAT      O67579   4.348   9.148   0.174
22446WAT     H167580   4.367   9.245   0.160
22446WAT     H267581   4.249   9.132   0.168
22447WAT      O67582   4.799   7.374   6.661
22447WAT     H167583   4.874   7.426   6.702
22447WAT     H267584   4.738   7.340   6.732
22448WAT      O67585   4.127   1.582   1.663
22448WAT     H167586   4.211   1.633   1.644
22448WAT     H267587   4.117   1.508   1.597
22449WAT      O67588   1.991   3.094   6.577
22449WAT     H167589   1.911   3.107   6.634
22449WAT     H267590   2.062   3.160   6.602
22450WAT      O67591   3.006   6.012   6.168
22450WAT     H167592   2.931   6.078   6.179
22450WAT     H267593   3.093   6.061   6.166
22451WAT      O67594   6.937   2.944   0.305
22451WAT     H167595   6.995   3.019   0.339
22451WAT     H267596   6.957   2.861   0.356
22452WAT      O67597   2.218   6.676   2.443
22452WAT     H167598   2.306   6.695   2.486
22452WAT     H267599   2.206   6.577   2.435
22453WAT      O67600   0.932   3.194   4.540
22453WAT     H167601   1.008   3.130   4.529
22453WAT     H267602   0.967   3.281   4.575
22454WAT      O67603   3.596   3.542   7.049
22454WAT     H167604   3.635   3.590   6.970
22454WAT     H267605   3.500   3.565   7.057
22455WAT      O67606   1.338   4.870   2.055
22455WAT     H167607   1.310   4.963   2.079
22455WAT     H267608   1.419   4.873   1.996
22456WAT      O67609   3.520   8.658   0.814
22456WAT     H167610   3.605   8.670   0.762
22456WAT     H267611   3.513   8.729   0.883
22457WAT      O67612   0.769   5.024   3.114
22457WAT     H167613   0.701   5.097   3.123
22457WAT     H267614   0.723   4.935   3.116
22458WAT      O67615   4.599   0.515   8.892
22458WAT     H167616   4.693   0.499   8.861
22458WAT     H267617   4.601   0.569   8.976
22459WAT      O67618   4.740   3.429   2.723
22459WAT     H167619   4.839   3.432   2.709
22459WAT     H267620   4.694   3.416   2.635
22460WAT      O67621   1.692   1.946   3.047
22460WAT     H167622   1.649   2.032   3.020
22460WAT     H267623   1.777   1.933   2.996
22461WAT      O67624   2.015   6.936   2.155
22461WAT     H167625   2.111   6.928   2.127
22461WAT     H267626   1.996   7.031   2.179
22462WAT      O67627   0.061   5.076   0.283
22462WAT     H167628   0.046   5.132   0.365
22462WAT     H267629   0.009   5.115   0.207
22463WAT      O67630   7.178   0.008   9.659
22463WAT     H167631   7.121  -0.009   9.740
22463WAT     H267632   7.211  -0.079   9.623
22464WAT      O67633   6.134   2.731   8.689
22464WAT     H167634   6.188   2.814   8.700
22464WAT     H267635   6.044   2.755   8.653
22465WAT      O67636   4.623   1.611   1.709
22465WAT     H167637   4.723   1.605   1.719
22465WAT     H267638   4.580   1.591   1.796
22466WAT      O67639   0.750   0.380   5.288
22466WAT     H167640   0.817   0.447   5.319
22466WAT     H267641   0.757   0.297   5.343
22467WAT      O67642   9.080   3.749   3.047
22467WAT     H167643   9.022   3.796   2.980
22467WAT     H267644   9.176   3.765   3.025
22468WAT      O67645   2.025   5.011   8.111
22468WAT     H167646   2.056   4.941   8.048
22468WAT     H267647   1.935   5.045   8.082
22469WAT      O67648   2.653   9.174   0.072
22469WAT     H167649   2.665   9.110   0.147
22469WAT     H267650   2.619   9.261   0.108
22470WAT      O67651   7.014   7.732   1.737
22470WAT     H167652   6.971   7.658   1.790
22470WAT     H267653   7.092   7.768   1.789
22471WAT      O67654   8.896   1.648   6.613
22471WAT     H167655   8.914   1.743   6.638
22471WAT     H267656   8.873   1.596   6.696
22472WAT      O67657   0.153   0.563   2.078
22472WAT     H167658   0.086   0.585   2.148
22472WAT     H267659   0.138   0.622   1.998
22473WAT      O67660   1.216   2.355   6.032
22473WAT     H167661   1.213   2.289   5.957
22473WAT     H267662   1.126   2.397   6.044
22474WAT      O67663   9.122   3.741   6.945
22474WAT     H167664   9.060   3.679   6.993
22474WAT     H267665   9.168   3.692   6.871
22475WAT      O67666   3.017   1.235   6.726
22475WAT     H167667   2.920   1.247   6.703
22475WAT     H267668   3.046   1.307   6.789
22476WAT      O67669   3.970   9.256   9.170
22476WAT     H167670   3.929   9.177   9.124
22476WAT     H267671   3.992   9.326   9.102
22477WAT      O67672   1.101   2.227   0.390
22477WAT     H167673   1.135   2.208   0.298
22477WAT     H267674   1.025   2.166   0.412
22478WAT      O67675   7.551   1.263   5.707
22478WAT     H167676   7.507   1.353   5.699
22478WAT     H267677   7.637   1.273   5.758
22479WAT      O67678   7.131   8.460   0.381
22479WAT     H167679   7.047   8.501   0.345
22479WAT     H267680   7.108   8.375   0.429
22480WAT      O67681   4.060   5.812   8.607
22480WAT     H167682   4.000   5.738   8.639
22480WAT     H267683   4.110   5.781   8.526
22481WAT      O67684   1.527   6.604   8.083
22481WAT     H167685   1.607   6.548   8.061
22481WAT     H267686   1.548   6.700   8.066
22482WAT      O67687   0.141   4.407   4.963
22482WAT     H167688   0.061   4.438   5.015
22482WAT     H267689   0.197   4.485   4.939
22483WAT      O67690   1.359   1.415   0.568
22483WAT     H167691   1.442   1.381   0.612
22483WAT     H267692   1.284   1.419   0.634
22484WAT      O67693   6.543   6.860   4.446
22484WAT     H167694   6.525   6.773   4.491
22484WAT     H267695   6.604   6.915   4.503
22485WAT      O67696   6.898   0.691   9.640
22485WAT     H167697   6.809   0.646   9.648
22485WAT     H267698   6.965   0.644   9.697
22486WAT      O67699   6.497   5.984   1.042
22486WAT     H167700   6.505   6.025   1.133
22486WAT     H267701   6.402   5.990   1.011
22487WAT      O67702   5.398   5.273   8.071
22487WAT     H167703   5.443   5.356   8.036
22487WAT     H267704   5.373   5.287   8.167
22488WAT      O67705   5.361   1.605   4.325
22488WAT     H167706   5.374   1.509   4.301
22488WAT     H267707   5.373   1.617   4.423
22489WAT      O67708   2.759   5.066   7.853
22489WAT     H167709   2.668   5.100   7.828
22489WAT     H267710   2.810   5.138   7.899
22490WAT      O67711   9.533   9.410   4.624
22490WAT     H167712   9.563   9.466   4.546
22490WAT     H267713   9.512   9.317   4.592
22491WAT      O67714   7.147   9.549   0.454
22491WAT     H167715   7.192   9.635   0.478
22491WAT     H267716   7.212   9.473   0.464
22492WAT      O67717   6.545   3.123   8.160
22492WAT     H167718   6.639   3.118   8.127
22492WAT     H267719   6.532   3.059   8.236
22493WAT      O67720   8.083   4.096   3.517
22493WAT     H167721   8.026   4.062   3.591
22493WAT     H267722   8.056   4.053   3.431
22494WAT      O67723   2.398   4.257   1.704
22494WAT     H167724   2.381   4.258   1.803
22494WAT     H267725   2.444   4.342   1.678
22495WAT      O67726   0.363   0.957   3.779
22495WAT     H167727   0.353   0.995   3.870
22495WAT     H267728   0.274   0.926   3.746
22496WAT      O67729   4.935   1.151   6.102
22496WAT     H167730   4.908   1.054   6.105
22496WAT     H267731   4.879   1.203   6.167
22497WAT      O67732   4.097   1.773   2.304
22497WAT     H167733   4.085   1.831   2.224
22497WAT     H267734   4.115   1.829   2.385
22498WAT      O67735   5.453   6.912   2.821
22498WAT     H167736   5.470   6.828   2.872
22498WAT     H267737   5.484   6.990   2.875
22499WAT      O67738   2.074   9.386   4.697
22499WAT     H167739   2.105   9.299   4.660
22499WAT     H267740   1.975   9.394   4.686
22500WAT      O67741   0.694   1.264   4.361
22500WAT     H167742   0.672   1.360   4.380
22500WAT     H267743   0.711   1.216   4.448
22501WAT      O67744   5.254   9.313   7.059
22501WAT     H167745   5.173   9.371   7.045
22501WAT     H267746   5.260   9.287   7.155
22502WAT      O67747   1.434   8.327   2.594
22502WAT     H167748   1.363   8.296   2.656
22502WAT     H267749   1.521   8.333   2.644
22503WAT      O67750   9.845   3.157   3.460
22503WAT     H167751   9.820   3.247   3.424
22503WAT     H267752   9.939   3.135   3.432
22504WAT      O67753   0.337   3.683   0.470
22504WAT     H167754   0.375   3.650   0.383
22504WAT     H267755   0.412   3.703   0.533
22505WAT      O67756   1.149   6.790   3.000
22505WAT     H167757   1.061   6.798   3.046
22505WAT     H267758   1.217   6.756   3.064
22506WAT      O67759   3.898   5.299   4.257
22506WAT     H167760   3.949   5.363   4.199
22506WAT     H267761   3.803   5.330   4.265
22507WAT      O67762   6.257   2.667   1.963
22507WAT     H167763   6.229   2.571   1.955
22507WAT     H267764   6.220   2.719   1.886
22508WAT      O67765   0.207   4.972   8.050
22508WAT     H167766   0.269   4.915   7.996
22508WAT     H267767   0.184   5.055   7.999
22509WAT      O67768   5.525   3.084   6.249
22509WAT     H167769   5.471   3.070   6.332
22509WAT     H267770   5.618   3.111   6.275
22510WAT      O67771   5.819   5.561   7.302
22510WAT     H167772   5.793   5.476   7.256
22510WAT     H267773   5.872   5.539   7.384
22511WAT      O67774   1.080   3.836   8.858
22511WAT     H167775   1.168   3.873   8.826
22511WAT     H267776   1.027   3.909   8.901
22512WAT      O67777   5.971   5.107   0.571
22512WAT     H167778   5.983   5.190   0.624
22512WAT     H267779   5.989   5.126   0.474
22513WAT      O67780   0.877   0.128   2.802
22513WAT     H167781   0.901   0.211   2.852
22513WAT     H267782   0.820   0.069   2.861
22514WAT      O67783   0.858   6.518   9.657
22514WAT     H167784   0.861   6.608   9.701
22514WAT     H267785   0.770   6.474   9.676
22515WAT      O67786   5.164   4.710   3.155
22515WAT     H167787   5.249   4.760   3.171
22515WAT     H267788   5.128   4.731   3.064
22516WAT      O67789   4.283   6.116   2.126
22516WAT     H167790   4.305   6.025   2.161
22516WAT     H267791   4.229   6.108   2.043
22517WAT      O67792   4.863   8.561   6.048
22517WAT     H167793   4.836   8.608   6.132
22517WAT     H267794   4.910   8.476   6.071
22518WAT      O67795   6.225   9.407   1.262
22518WAT     H167796   6.323   9.421   1.248
22518WAT     H267797   6.176   9.490   1.234
22519WAT      O67798   8.341   2.765   1.582
22519WAT     H167799   8.341   2.840   1.516
22519WAT     H267800   8.261   2.773   1.642
22520WAT      O67801   4.685   0.344   4.248
22520WAT     H167802   4.640   0.351   4.337
22520WAT     H267803   4.635   0.280   4.190
22521WAT      O67804   0.830   8.902   0.472
22521WAT     H167805   0.818   8.888   0.570
22521WAT     H267806   0.755   8.859   0.422
22522WAT      O67807   0.597   6.937   6.212
22522WAT     H167808   0.663   6.960   6.284
22522WAT     H267809   0.537   6.864   6.245
22523WAT      O67810   8.396   9.571   1.789
22523WAT     H167811   8.353   9.484   1.763
22523WAT     H267812   8.441   9.610   1.709
22524WAT      O67813   7.798   9.257   0.912
22524WAT     H167814   7.769   9.224   0.823
22524WAT     H267815   7.729   9.319   0.950
22525WAT      O67816   8.996   2.870   2.738
22525WAT     H167817   9.022   2.956   2.780
22525WAT     H267818   9.073   2.807   2.740
22526WAT      O67819   3.335   7.920   4.174
22526WAT     H167820   3.409   7.984   4.193
22526WAT     H267821   3.340   7.892   4.077
22527WAT      O67822   4.324   2.261   0.430
22527WAT     H167823   4.253   2.227   0.369
22527WAT     H267824   4.411   2.218   0.409
22528WAT      O67825   5.073   6.000   1.749
22528WAT     H167826   5.143   5.998   1.820
22528WAT     H267827   4.986   6.027   1.790
22529WAT      O67828   0.864   7.094   7.811
22529WAT     H167829   0.951   7.055   7.841
22529WAT     H267830   0.877   7.141   7.724
22530WAT      O67831   5.244   3.178   2.724
22530WAT     H167832   5.199   3.119   2.656
22530WAT     H267833   5.185   3.188   2.804
22531WAT      O67834   1.424   8.773   4.198
22531WAT     H167835   1.442   8.785   4.100
22531WAT     H267836   1.426   8.863   4.243
22532WAT      O67837   9.431   0.236   0.818
22532WAT     H167838   9.502   0.216   0.886
22532WAT     H267839   9.341   0.221   0.858
22533WAT      O67840   4.613   3.934   5.807
22533WAT     H167841   4.559   3.983   5.739
22533WAT     H267842   4.651   3.851   5.766
22534WAT      O67843   3.098   5.110   3.429
22534WAT     H167844   3.126   5.016   3.410
22534WAT     H267845   3.042   5.112   3.511
22535WAT      O67846   1.377   8.570   2.476
22535WAT     H167847   1.412   8.494   2.531
22535WAT     H267848   1.310   8.537   2.410
22536WAT      O67849   0.255   7.589   6.331
22536WAT     H167850   0.169   7.640   6.332
22536WAT     H267851   0.331   7.652   6.315
22537WAT      O67852   5.206   8.618   2.135
22537WAT     H167853   5.243   8.691   2.191
22537WAT     H267854   5.269   8.540   2.135
22538WAT      O67855   0.898   6.661   0.696
22538WAT     H167856   0.886   6.683   0.599
22538WAT     H267857   0.853   6.575   0.716
22539WAT      O67858   4.530   8.141   3.210
22539WAT     H167859   4.551   8.222   3.264
22539WAT     H267860   4.431   8.132   3.200
22540WAT      O67861   7.439   3.047   1.804
22540WAT     H167862   7.346   3.062   1.771
22540WAT     H267863   7.455   3.103   1.885
22541WAT      O67864   3.448   3.990   2.809
22541WAT     H167865   3.425   4.081   2.775
22541WAT     H267866   3.468   3.930   2.731
22542WAT      O67867   2.232   4.367   1.317
22542WAT     H167868   2.189   4.333   1.400
22542WAT     H267869   2.237   4.294   1.249
22543WAT      O67870   7.272   6.753   1.898
22543WAT     H167871   7.307   6.667   1.861
22543WAT     H267872   7.224   6.735   1.984
22544WAT      O67873   2.661   9.148   8.038
22544WAT     H167874   2.719   9.196   8.103
22544WAT     H267875   2.565   9.175   8.052
22545WAT      O67876   0.114   2.761   3.911
22545WAT     H167877   0.131   2.857   3.931
22545WAT     H267878   0.039   2.727   3.968
22546WAT      O67879   9.842   6.177   6.461
22546WAT     H167880   9.829   6.176   6.560
22546WAT     H267881   9.754   6.160   6.416
22547WAT      O67882   1.560   7.971   8.852
22547WAT     H167883   1.485   7.930   8.904
22547WAT     H267884   1.642   7.915   8.865
22548WAT      O67885   2.127   0.476   1.506
22548WAT     H167886   2.091   0.536   1.434
22548WAT     H267887   2.062   0.472   1.582
22549WAT      O67888   7.331   7.616   7.248
22549WAT     H167889   7.421   7.578   7.224
22549WAT     H267890   7.314   7.600   7.345
22550WAT      O67891   5.922   2.473   2.458
22550WAT     H167892   5.955   2.550   2.405
22550WAT     H267893   5.839   2.436   2.415
22551WAT      O67894   6.051   8.976   3.520
22551WAT     H167895   6.073   8.895   3.465
22551WAT     H267896   6.064   9.058   3.465
22552WAT      O67897   5.765   2.328   2.778
22552WAT     H167898   5.838   2.298   2.717
22552WAT     H267899   5.761   2.268   2.858
22553WAT      O67900   3.945   8.594   6.206
22553WAT     H167901   3.979   8.602   6.300
22553WAT     H267902   3.847   8.609   6.205
22554WAT      O67903   8.040   8.682   6.928
22554WAT     H167904   7.978   8.606   6.909
22554WAT     H267905   8.031   8.709   7.024
22555WAT      O67906   6.437   6.168   6.082
22555WAT     H167907   6.507   6.235   6.108
22555WAT     H267908   6.428   6.100   6.154
22556WAT      O67909   0.059   0.784   5.413
22556WAT     H167910   0.087   0.781   5.509
22556WAT     H267911   0.118   0.848   5.363
22557WAT      O67912   5.760   6.416   2.227
22557WAT     H167913   5.825   6.391   2.300
22557WAT     H267914   5.804   6.479   2.164
22558WAT      O67915   6.148   5.124   6.788
22558WAT     H167916   6.099   5.089   6.709
22558WAT     H267917   6.197   5.208   6.763
22559WAT      O67918   7.789   8.305   4.769
22559WAT     H167919   7.777   8.378   4.702
22559WAT     H267920   7.882   8.308   4.806
22560WAT      O67921   3.763   0.557   4.936
22560WAT     H167922   3.825   0.613   4.991
22560WAT     H267923   3.815   0.511   4.864
22561WAT      O67924   9.706   8.800   7.019
22561WAT     H167925   9.805   8.805   7.031
22561WAT     H267926   9.661   8.812   7.107
22562WAT      O67927   6.246   6.231   7.196
22562WAT     H167928   6.267   6.197   7.288
22562WAT     H267929   6.330   6.261   7.151
22563WAT      O67930   2.841   9.740   2.138
22563WAT     H167931   2.816   9.729   2.042
22563WAT     H267932   2.768   9.704   2.196
22564WAT      O67933   4.175   0.637   9.453
22564WAT     H167934   4.271   0.626   9.426
22564WAT     H267935   4.171   0.667   9.548
22565WAT      O67936   6.279   0.723   2.566
22565WAT     H167937   6.199   0.760   2.613
22565WAT     H267938   6.356   0.719   2.630
22566WAT      O67939   6.087   0.693   1.489
22566WAT     H167940   6.021   0.623   1.460
22566WAT     H267941   6.113   0.675   1.584
22567WAT      O67942   6.814   0.336   3.782
22567WAT     H167943   6.779   0.252   3.823
22567WAT     H267944   6.748   0.410   3.795
22568WAT      O67945   0.011   4.127   8.251
22568WAT     H167946  -0.083   4.091   8.257
22568WAT     H267947   0.028   4.160   8.158
22569WAT      O67948   7.600   4.247   6.140
22569WAT     H167949   7.523   4.226   6.080
22569WAT     H267950   7.682   4.200   6.106
22570WAT      O67951   4.740   3.390   8.969
22570WAT     H167952   4.827   3.428   8.939
22570WAT     H267953   4.682   3.371   8.890
22571WAT      O67954   7.370   7.599   9.222
22571WAT     H167955   7.294   7.544   9.188
22571WAT     H267956   7.389   7.576   9.317
22572WAT      O67957   1.300   8.823   0.760
22572WAT     H167958   1.229   8.832   0.691
22572WAT     H267959   1.372   8.761   0.727
22573WAT      O67960   6.504   2.649   5.924
22573WAT     H167961   6.523   2.747   5.936
22573WAT     H267962   6.426   2.624   5.981
22574WAT      O67963   3.914   8.213   0.774
22574WAT     H167964   4.011   8.203   0.799
22574WAT     H267965   3.857   8.201   0.855
22575WAT      O67966   7.244   3.740   3.307
22575WAT     H167967   7.226   3.833   3.337
22575WAT     H267968   7.307   3.695   3.370
22576WAT      O67969   3.547   6.341   7.901
22576WAT     H167970   3.537   6.365   7.804
22576WAT     H267971   3.484   6.397   7.955
22577WAT      O67972   6.587   6.790   3.891
22577WAT     H167973   6.667   6.787   3.952
22577WAT     H267974   6.521   6.856   3.927
22578WAT      O67975   4.326   1.559   5.496
22578WAT     H167976   4.242   1.595   5.455
22578WAT     H267977   4.348   1.613   5.578
22579WAT      O67978   7.397   8.954   7.424
22579WAT     H167979   7.494   8.977   7.427
22579WAT     H267980   7.343   9.035   7.450
22580WAT      O67981   3.779   4.192   6.201
22580WAT     H167982   3.694   4.243   6.197
22580WAT     H267983   3.778   4.120   6.131
22581WAT      O67984   9.158   0.899   7.837
22581WAT     H167985   9.243   0.947   7.816
22581WAT     H267986   9.101   0.956   7.896
22582WAT      O67987   4.148   3.052   4.184
22582WAT     H167988   4.162   2.963   4.139
22582WAT     H267989   4.061   3.051   4.233
22583WAT      O67990   3.349   1.614   3.151
22583WAT     H167991   3.274   1.606   3.217
22583WAT     H267992   3.370   1.711   3.136
22584WAT      O67993   7.779   3.936   2.467
22584WAT     H167994   7.857   3.926   2.528
22584WAT     H267995   7.804   3.995   2.390
22585WAT      O67996   2.197   9.796   5.759
22585WAT     H167997   2.199   9.704   5.721
22585WAT     H267998   2.235   9.861   5.694
22586WAT      O67999   1.182   8.754   8.630
22586WAT     H168000   1.112   8.727   8.564
22586WAT     H268001   1.197   8.852   8.625
22587WAT      O68002   4.845   0.164   0.651
22587WAT     H168003   4.759   0.114   0.656
22587WAT     H268004   4.849   0.230   0.726
22588WAT      O68005   6.062   7.837   1.799
22588WAT     H168006   6.114   7.790   1.727
22588WAT     H268007   6.125   7.888   1.858
22589WAT      O68008   2.334   4.081   1.520
22589WAT     H168009   2.295   4.018   1.588
22589WAT     H268010   2.364   4.164   1.566
22590WAT      O68011   1.804   5.861   6.393
22590WAT     H168012   1.750   5.941   6.367
22590WAT     H268013   1.851   5.880   6.480
22591WAT      O68014   2.932   0.661   3.694
22591WAT     H168015   2.980   0.709   3.620
22591WAT     H268016   2.891   0.728   3.756
22592WAT      O68017   6.912   2.168   1.251
22592WAT     H168018   6.917   2.220   1.336
22592WAT     H268019   6.997   2.178   1.201
22593WAT      O68020   9.641   4.813   6.309
22593WAT     H168021   9.666   4.716   6.304
22593WAT     H268022   9.547   4.821   6.341
22594WAT      O68023   9.036   7.505   9.865
22594WAT     H168024   9.108   7.573   9.877
22594WAT     H268025   9.066   7.417   9.903
22595WAT      O68026   2.230   6.718   9.266
22595WAT     H168027   2.207   6.620   9.262
22595WAT     H268028   2.191   6.757   9.350
22596WAT      O68029   4.976   5.593   4.646
22596WAT     H168030   4.912   5.573   4.720
22596WAT     H268031   5.009   5.507   4.606
22597WAT      O68032   2.548   4.407   6.045
22597WAT     H168033   2.627   4.427   5.987
22597WAT     H268034   2.469   4.460   6.015
22598WAT      O68035   0.881   2.739   5.817
22598WAT     H168036   0.934   2.755   5.734
22598WAT     H268037   0.929   2.781   5.895
22599WAT      O68038   7.677   1.399   3.609
22599WAT     H168039   7.602   1.422   3.671
22599WAT     H268040   7.743   1.474   3.607
22600WAT      O68041   3.733   6.797   3.098
22600WAT     H168042   3.707   6.873   3.157
22600WAT     H268043   3.796   6.736   3.147
22601WAT      O68044   3.393   1.223   5.582
22601WAT     H168045   3.349   1.171   5.509
22601WAT     H268046   3.486   1.248   5.555
22602WAT      O68047   5.516   6.391   2.142
22602WAT     H168048   5.611   6.390   2.174
22602WAT     H268049   5.515   6.393   2.042
22603WAT      O68050   9.001   6.544   0.571
22603WAT     H168051   9.080   6.595   0.538
22603WAT     H268052   8.917   6.593   0.546
22604WAT      O68053   8.447   1.732   4.222
22604WAT     H168054   8.347   1.740   4.228
22604WAT     H268055   8.474   1.721   4.127
22605WAT      O68056   1.451   6.758   0.720
22605WAT     H168057   1.409   6.838   0.676
22605WAT     H268058   1.423   6.754   0.816
22606WAT      O68059   1.055   4.833   0.305
22606WAT     H168060   1.116   4.826   0.384
22606WAT     H268061   1.085   4.907   0.245
22607WAT      O68062   9.498   4.549   4.619
22607WAT     H168063   9.457   4.640   4.616
22607WAT     H268064   9.460   4.493   4.545
22608WAT      O68065   8.807   9.754   4.481
22608WAT     H168066   8.737   9.759   4.552
22608WAT     H268067   8.798   9.668   4.431
22609WAT      O68068   6.618   9.174   2.579
22609WAT     H168069   6.668   9.244   2.631
22609WAT     H268070   6.673   9.146   2.501
22610WAT      O68071   3.086   3.938   3.818
22610WAT     H168072   3.133   3.889   3.891
22610WAT     H268073   3.008   3.987   3.855
22611WAT      O68074   6.681   8.760   7.847
22611WAT     H168075   6.719   8.822   7.915
22611WAT     H268076   6.740   8.759   7.766
22612WAT      O68077   5.952   5.213   4.902
22612WAT     H168078   6.043   5.208   4.943
22612WAT     H268079   5.900   5.286   4.945
22613WAT      O68080   7.403   5.583   8.311
22613WAT     H168081   7.337   5.627   8.370
22613WAT     H268082   7.482   5.553   8.365
22614WAT      O68083   3.857   6.321   1.938
22614WAT     H168084   3.793   6.327   2.015
22614WAT     H268085   3.846   6.401   1.880
22615WAT      O68086   2.976   5.673   0.144
22615WAT     H168087   3.055   5.707   0.094
22615WAT     H268088   2.896   5.731   0.126
22616WAT      O68089   8.090   6.690   1.466
22616WAT     H168090   7.998   6.663   1.438
22616WAT     H268091   8.103   6.668   1.563
22617WAT      O68092   1.771   5.690   9.261
22617WAT     H168093   1.766   5.727   9.354
22617WAT     H268094   1.682   5.653   9.234
22618WAT      O68095   1.908   6.771   7.331
22618WAT     H168096   1.860   6.698   7.381
22618WAT     H268097   1.924   6.741   7.236
22619WAT      O68098   5.663   1.104   8.809
22619WAT     H168099   5.615   1.034   8.861
22619WAT     H268100   5.715   1.061   8.735
22620WAT      O68101   4.145   7.882   8.102
22620WAT     H168102   4.121   7.799   8.052
22620WAT     H268103   4.245   7.888   8.109
22621WAT      O68104   6.381   3.603   3.645
22621WAT     H168105   6.384   3.703   3.637
22621WAT     H268106   6.470   3.570   3.677
22622WAT      O68107   9.674   1.413   9.161
22622WAT     H168108   9.667   1.456   9.071
22622WAT     H268109   9.600   1.446   9.219
22623WAT      O68110   2.280   3.158   5.026
22623WAT     H168111   2.190   3.128   5.058
22623WAT     H268112   2.328   3.205   5.099
22624WAT      O68113   8.675   2.512   3.268
22624WAT     H168114   8.629   2.476   3.187
22624WAT     H268115   8.769   2.477   3.271
22625WAT      O68116   5.707   3.034   0.160
22625WAT     H168117   5.729   3.107   0.095
22625WAT     H268118   5.735   2.946   0.122
22626WAT      O68119   6.974   2.220   0.633
22626WAT     H168120   6.988   2.149   0.565
22626WAT     H268121   6.972   2.179   0.724
22627WAT      O68122   7.690   4.895   2.491
22627WAT     H168123   7.729   4.823   2.549
22627WAT     H268124   7.764   4.940   2.440
22628WAT      O68125   2.248   1.609   4.859
22628WAT     H168126   2.297   1.665   4.791
22628WAT     H268127   2.293   1.520   4.867
22629WAT      O68128   4.831   3.194   3.021
22629WAT     H168129   4.828   3.166   3.117
22629WAT     H268130   4.745   3.239   2.996
22630WAT      O68131   3.165   6.155   3.368
22630WAT     H168132   3.115   6.197   3.292
22630WAT     H268133   3.154   6.211   3.450
22631WAT      O68134   0.202   4.918   1.825
22631WAT     H168135   0.109   4.900   1.856
22631WAT     H268136   0.220   5.017   1.830
22632WAT      O68137   0.877   3.698   8.714
22632WAT     H168138   0.803   3.764   8.698
22632WAT     H268139   0.953   3.744   8.760
22633WAT      O68140   8.220   7.676   1.031
22633WAT     H168141   8.305   7.625   1.046
22633WAT     H268142   8.186   7.711   1.118
22634WAT      O68143   8.597   0.377   4.518
22634WAT     H168144   8.655   0.450   4.555
22634WAT     H268145   8.654   0.312   4.467
22635WAT      O68146   1.966   8.279   3.667
22635WAT     H168147   1.870   8.280   3.640
22635WAT     H268148   1.978   8.332   3.751
22636WAT      O68149   4.116   7.723   5.771
22636WAT     H168150   4.131   7.627   5.749
22636WAT     H268151   4.203   7.764   5.801
22637WAT      O68152   0.279   4.720   1.674
22637WAT     H168153   0.245   4.796   1.729
22637WAT     H268154   0.347   4.753   1.608
22638WAT      O68155   9.042   4.363   6.098
22638WAT     H168156   8.955   4.328   6.063
22638WAT     H268157   9.116   4.304   6.068
22639WAT      O68158   5.579   2.444   4.018
22639WAT     H168159   5.570   2.468   4.114
22639WAT     H268160   5.506   2.489   3.966
22640WAT      O68161   4.868   9.682   7.090
22640WAT     H168162   4.778   9.652   7.060
22640WAT     H268163   4.882   9.777   7.064
22641WAT      O68164   9.527   3.722   5.396
22641WAT     H168165   9.493   3.755   5.484
22641WAT     H268166   9.580   3.794   5.351
22642WAT      O68167   6.210   9.254   0.575
22642WAT     H168168   6.147   9.217   0.507
22642WAT     H268169   6.274   9.182   0.603
22643WAT      O68170   5.448   2.326   4.964
22643WAT     H168171   5.400   2.389   5.025
22643WAT     H268172   5.383   2.289   4.897
22644WAT      O68173   3.852   0.578   3.921
22644WAT     H168174   3.936   0.586   3.867
22644WAT     H268175   3.775   0.610   3.866
22645WAT      O68176   6.827   6.259   5.068
22645WAT     H168177   6.892   6.195   5.109
22645WAT     H268178   6.766   6.295   5.139
22646WAT      O68179   4.568   8.201   6.477
22646WAT     H168180   4.597   8.111   6.510
22646WAT     H268181   4.524   8.191   6.387
22647WAT      O68182   7.589   0.345   6.843
22647WAT     H168183   7.685   0.320   6.828
22647WAT     H268184   7.553   0.294   6.922
22648WAT      O68185   1.987   2.170   9.076
22648WAT     H168186   2.081   2.162   9.111
22648WAT     H268187   1.984   2.144   8.980
22649WAT      O68188   5.489   9.407   0.733
22649WAT     H168189   5.577   9.450   0.751
22649WAT     H268190   5.427   9.474   0.692
22650WAT      O68191   9.561   1.324   5.013
22650WAT     H168192   9.511   1.384   4.951
22650WAT     H268193   9.585   1.239   4.966
22651WAT      O68194   1.058   4.619   6.644
22651WAT     H168195   1.141   4.666   6.613
22651WAT     H268196   1.083   4.538   6.696
22652WAT      O68197   0.924   5.154   8.209
22652WAT     H168198   0.980   5.094   8.265
22652WAT     H268199   0.828   5.126   8.216
22653WAT      O68200   8.016   4.336   2.611
22653WAT     H168201   7.987   4.323   2.706
22653WAT     H268202   8.014   4.434   2.589
22654WAT      O68203   1.651   1.425   4.735
22654WAT     H168204   1.603   1.505   4.698
22654WAT     H268205   1.699   1.451   4.819
22655WAT      O68206   0.040   8.732   8.313
22655WAT     H168207   0.021   8.703   8.219
22655WAT     H268208  -0.042   8.775   8.352
22656WAT      O68209   9.772   0.145   9.556
22656WAT     H168210   9.791   0.092   9.474
22656WAT     H268211   9.845   0.213   9.570
22657WAT      O68212   9.460   8.395   7.448
22657WAT     H168213   9.469   8.467   7.517
22657WAT     H268214   9.533   8.405   7.381
22658WAT      O68215   8.432   3.643   9.618
22658WAT     H168216   8.406   3.594   9.535
22658WAT     H268217   8.529   3.626   9.637
22659WAT      O68218   8.562   7.373   4.207
22659WAT     H168219   8.601   7.310   4.140
22659WAT     H268220   8.503   7.439   4.161
22660WAT      O68221   2.083   6.786   9.491
22660WAT     H168222   1.988   6.776   9.459
22660WAT     H268223   2.090   6.750   9.584
22661WAT      O68224   3.917   0.489   3.127
22661WAT     H168225   3.967   0.516   3.045
22661WAT     H268226   3.946   0.544   3.204
22662WAT      O68227   9.157   4.574   2.778
22662WAT     H168228   9.104   4.539   2.854
22662WAT     H268229   9.105   4.645   2.730
22663WAT      O68230   4.053   2.596   1.097
22663WAT     H168231   4.142   2.602   1.052
22663WAT     H268232   4.056   2.649   1.182
22664WAT      O68233   6.266   8.836   0.932
22664WAT     H168234   6.257   8.845   0.833
22664WAT     H268235   6.200   8.768   0.965
22665WAT      O68236   5.200   2.962   4.626
22665WAT     H168237   5.282   2.969   4.570
22665WAT     H268238   5.207   3.025   4.704
22666WAT      O68239   5.545   0.317   2.143
22666WAT     H168240   5.555   0.364   2.056
22666WAT     H268241   5.554   0.382   2.218
22667WAT      O68242   5.959   9.399   1.996
22667WAT     H168243   5.897   9.407   2.074
22667WAT     H268244   6.019   9.479   1.993
22668WAT      O68245   4.738   7.117   3.811
22668WAT     H168246   4.672   7.179   3.853
22668WAT     H268247   4.756   7.146   3.717
22669WAT      O68248   2.127   5.505   2.486
22669WAT     H168249   2.033   5.495   2.451
22669WAT     H268250   2.144   5.436   2.556
22670WAT      O68251   6.040   4.824   9.754
22670WAT     H168252   6.134   4.792   9.738
22670WAT     H268253   6.042   4.903   9.814
22671WAT      O68254   3.811   6.516   1.063
22671WAT     H168255   3.762   6.558   0.987
22671WAT     H268256   3.753   6.447   1.106
22672WAT      O68257   0.695   1.490   8.818
22672WAT     H168258   0.690   1.390   8.826
22672WAT     H268259   0.626   1.532   8.877
22673WAT      O68260   4.189   5.290   5.664
22673WAT     H168261   4.111   5.268   5.721
22673WAT     H268262   4.202   5.218   5.596
22674WAT      O68263   0.811   0.844   9.003
22674WAT     H168264   0.762   0.791   8.933
22674WAT     H268265   0.882   0.899   8.959
22675WAT      O68266   7.948   4.043   6.259
22675WAT     H168267   7.886   4.052   6.337
22675WAT     H268268   7.900   4.072   6.176
22676WAT      O68269   0.442   5.176   4.941
22676WAT     H168270   0.481   5.235   5.012
22676WAT     H268271   0.393   5.233   4.874
22677WAT      O68272   7.577   8.362   0.296
22677WAT     H168273   7.507   8.410   0.349
22677WAT     H268274   7.666   8.405   0.313
22678WAT      O68275   0.176   7.261   3.829
22678WAT     H168276   0.207   7.221   3.916
22678WAT     H268277   0.118   7.341   3.848
22679WAT      O68278   0.175   0.691   6.780
22679WAT     H168279   0.090   0.734   6.810
22679WAT     H268280   0.244   0.702   6.851
22680WAT      O68281   1.169   0.687   6.502
22680WAT     H168282   1.114   0.724   6.427
22680WAT     H268283   1.204   0.597   6.476
22681WAT      O68284   3.869   1.103   7.599
22681WAT     H168285   3.931   1.087   7.676
22681WAT     H268286   3.783   1.142   7.633
22682WAT      O68287   4.817   7.723   3.232
22682WAT     H168288   4.890   7.682   3.286
22682WAT     H268289   4.797   7.665   3.153
22683WAT      O68290   8.801   7.176   2.903
22683WAT     H168291   8.894   7.193   2.938
22683WAT     H268292   8.807   7.122   2.819
22684WAT      O68293   6.194   6.899   9.128
22684WAT     H168294   6.105   6.856   9.142
22684WAT     H268295   6.230   6.872   9.038
22685WAT      O68296   2.363   9.356   0.968
22685WAT     H168297   2.412   9.298   1.032
22685WAT     H268298   2.265   9.353   0.989
22686WAT      O68299   7.851   4.042   9.661
22686WAT     H168300   7.785   3.997   9.722
22686WAT     H268301   7.802   4.087   9.587
22687WAT      O68302   0.188   1.026   5.614
22687WAT     H168303   0.270   1.070   5.578
22687WAT     H268304   0.202   1.002   5.710
22688WAT      O68305   2.215   8.663   8.350
22688WAT     H168306   2.256   8.753   8.337
22688WAT     H268307   2.116   8.673   8.360
22689WAT      O68308   6.589   4.715   4.890
22689WAT     H168309   6.626   4.739   4.980
22689WAT     H268310   6.588   4.796   4.832
22690WAT      O68311   1.514   1.175   0.356
22690WAT     H168312   1.493   1.119   0.436
22690WAT     H268313   1.432   1.188   0.301
22691WAT      O68314   6.385   4.165   5.568
22691WAT     H168315   6.351   4.077   5.604
22691WAT     H268316   6.410   4.154   5.472
22692WAT      O68317   9.756   8.144   2.910
22692WAT     H168318   9.855   8.155   2.902
22692WAT     H268319   9.733   8.122   3.005
22693WAT      O68320   6.117   8.688   0.469
22693WAT     H168321   6.035   8.741   0.448
22693WAT     H268322   6.094   8.591   0.471
22694WAT      O68323   8.176   6.611   6.523
22694WAT     H168324   8.157   6.516   6.500
22694WAT     H268325   8.100   6.669   6.495
22695WAT      O68326   5.911   8.313   7.969
22695WAT     H168327   5.920   8.335   8.066
22695WAT     H268328   5.851   8.233   7.959
22696WAT      O68329   7.786   1.271   4.705
22696WAT     H168330   7.858   1.318   4.656
22696WAT     H268331   7.808   1.174   4.712
22697WAT      O68332   0.487   7.562   6.715
22697WAT     H168333   0.484   7.565   6.815
22697WAT     H268334   0.539   7.641   6.681
22698WAT      O68335   0.865   2.578   2.448
22698WAT     H168336   0.803   2.517   2.400
22698WAT     H268337   0.838   2.585   2.544
22699WAT      O68338   4.210   3.965   9.453
22699WAT     H168339   4.127   4.021   9.458
22699WAT     H268340   4.212   3.904   9.532
22700WAT      O68341   3.581   0.276   0.760
22700WAT     H168342   3.538   0.238   0.842
22700WAT     H268343   3.644   0.208   0.721
22701WAT      O68344   0.250   8.627   5.719
22701WAT     H168345   0.169   8.585   5.678
22701WAT     H268346   0.275   8.709   5.668
22702WAT      O68347   1.353   2.539   2.208
22702WAT     H168348   1.354   2.515   2.111
22702WAT     H268349   1.259   2.534   2.242
22703WAT      O68350   4.098   7.819   9.525
22703WAT     H168351   4.030   7.839   9.455
22703WAT     H268352   4.097   7.721   9.545
22704WAT      O68353   8.958   5.296   3.822
22704WAT     H168354   9.009   5.343   3.750
22704WAT     H268355   8.884   5.243   3.781
22705WAT      O68356   7.245   5.091   3.208
22705WAT     H168357   7.169   5.072   3.269
22705WAT     H268358   7.313   5.148   3.254
22706WAT      O68359   1.972   8.127   0.236
22706WAT     H168360   2.070   8.111   0.245
22706WAT     H268361   1.957   8.221   0.204
22707WAT      O68362   2.811   6.198   6.186
22707WAT     H168363   2.816   6.203   6.285
22707WAT     H268364   2.735   6.254   6.153
22708WAT      O68365   2.142   2.661   4.117
22708WAT     H168366   2.154   2.758   4.135
22708WAT     H268367   2.130   2.647   4.019
22709WAT      O68368   2.486   6.315   0.289
22709WAT     H168369   2.478   6.334   0.191
22709WAT     H268370   2.529   6.226   0.301
22710WAT      O68371   7.041   0.891   6.633
22710WAT     H168372   7.036   0.921   6.538
22710WAT     H268373   6.982   0.949   6.689
22711WAT      O68374   8.938   5.294   1.671
22711WAT     H168375   8.937   5.212   1.614
22711WAT     H268376   8.895   5.369   1.621
22712WAT      O68377   5.390   1.984   6.288
22712WAT     H168378   5.453   1.907   6.281
22712WAT     H268379   5.299   1.956   6.256
22713WAT      O68380   2.407   7.557   1.238
22713WAT     H168381   2.408   7.632   1.304
22713WAT     H268382   2.315   7.545   1.202
22714WAT      O68383   7.718   4.828   3.273
22714WAT     H168384   7.638   4.780   3.310
22714WAT     H268385   7.797   4.768   3.274
22715WAT      O68386   2.586   9.390   5.127
22715WAT     H168387   2.615   9.404   5.222
22715WAT     H268388   2.635   9.454   5.068
22716WAT      O68389   5.929   1.556   4.195
22716WAT     H168390   5.936   1.620   4.273
22716WAT     H268391   5.833   1.534   4.178
22717WAT      O68392   4.519   4.618   1.607
22717WAT     H168393   4.499   4.535   1.555
22717WAT     H268394   4.617   4.622   1.627
22718WAT      O68395   8.913   6.294   5.742
22718WAT     H168396   8.982   6.279   5.813
22718WAT     H268397   8.885   6.206   5.704
22719WAT      O68398   8.797   0.924   2.319
22719WAT     H168399   8.840   1.013   2.306
22719WAT     H268400   8.836   0.879   2.399
22720WAT      O68401   8.620   3.429   0.519
22720WAT     H168402   8.678   3.430   0.600
22720WAT     H268403   8.538   3.375   0.537
22721WAT      O68404   7.180   6.704   8.438
22721WAT     H168405   7.178   6.698   8.538
22721WAT     H268406   7.238   6.780   8.409
22722WAT      O68407   8.745   7.582   4.471
22722WAT     H168408   8.669   7.628   4.424
22722WAT     H268409   8.747   7.486   4.444
22723WAT      O68410   1.892   5.762   8.997
22723WAT     H168411   1.833   5.817   8.938
22723WAT     H268412   1.841   5.736   9.080
22724WAT      O68413   5.297   6.017   3.024
22724WAT     H168414   5.244   6.099   3.000
22724WAT     H268415   5.235   5.943   3.049
22725WAT      O68416   5.102   9.482   6.124
22725WAT     H168417   5.072   9.557   6.065
22725WAT     H268418   5.082   9.504   6.220
22726WAT      O68419   5.956   4.439   5.940
22726WAT     H168420   5.945   4.346   5.974
22726WAT     H268421   5.899   4.451   5.858
22727WAT      O68422   2.637   5.659   1.060
22727WAT     H168423   2.599   5.611   1.139
22727WAT     H268424   2.724   5.702   1.085
22728WAT      O68425   6.129   2.774   7.025
22728WAT     H168426   6.129   2.807   6.930
22728WAT     H268427   6.038   2.738   7.048
22729WAT      O68428   5.592   3.821   0.337
22729WAT     H168429   5.587   3.822   0.437
22729WAT     H268430   5.501   3.834   0.299
22730WAT      O68431   8.531   0.421   0.745
22730WAT     H168432   8.582   0.478   0.681
22730WAT     H268433   8.436   0.453   0.750
22731WAT      O68434   4.295   7.927   0.579
22731WAT     H168435   4.307   7.881   0.492
22731WAT     H268436   4.374   7.986   0.597
22732WAT      O68437   6.529   7.043   0.276
22732WAT     H168438   6.477   7.120   0.238
22732WAT     H268439   6.502   7.029   0.372
22733WAT      O68440   1.735   1.428   4.027
22733WAT     H168441   1.757   1.393   4.118
22733WAT     H268442   1.639   1.409   4.007
22734WAT      O68443   6.018   0.562   5.521
22734WAT     H168444   6.033   0.661   5.514
22734WAT     H268445   5.988   0.539   5.614
22735WAT      O68446   5.225   7.817   1.746
22735WAT     H168447   5.170   7.891   1.784
22735WAT     H268448   5.167   7.754   1.694
22736WAT      O68449   1.974   4.487   0.280
22736WAT     H168450   2.014   4.569   0.241
22736WAT     H268451   2.046   4.425   0.309
22737WAT      O68452   0.001   0.564   4.529
22737WAT     H168453   0.026   0.525   4.617
22737WAT     H268454   0.083   0.593   4.480
22738WAT      O68455   1.668   6.158   5.229
22738WAT     H168456   1.699   6.183   5.321
22738WAT     H268457   1.627   6.066   5.232
22739WAT      O68458   9.554   7.782   5.816
22739WAT     H168459   9.634   7.737   5.853
22739WAT     H268460   9.550   7.767   5.717
22740WAT      O68461   8.601   5.864   1.655
22740WAT     H168462   8.508   5.899   1.663
22740WAT     H268463   8.599   5.771   1.619
22741WAT      O68464   4.083   0.664   3.728
22741WAT     H168465   4.136   0.672   3.812
22741WAT     H268466   4.136   0.616   3.659
22742WAT      O68467   5.650   5.014   7.138
22742WAT     H168468   5.646   5.058   7.048
22742WAT     H268469   5.568   4.959   7.152
22743WAT      O68470   6.756   5.571   2.143
22743WAT     H168471   6.704   5.655   2.156
22743WAT     H268472   6.854   5.593   2.138
22744WAT      O68473   8.256   6.649   7.786
22744WAT     H168474   8.340   6.703   7.778
22744WAT     H268475   8.273   6.570   7.845
22745WAT      O68476   6.060   4.620   6.126
22745WAT     H168477   6.012   4.563   6.058
22745WAT     H268478   6.098   4.561   6.197
22746WAT      O68479   2.133   5.094   3.089
22746WAT     H168480   2.133   5.114   2.991
22746WAT     H268481   2.140   4.996   3.104
22747WAT      O68482   8.761   6.525   5.677
22747WAT     H168483   8.775   6.517   5.579
22747WAT     H268484   8.791   6.441   5.722
22748WAT      O68485   4.192   0.112   1.508
22748WAT     H168486   4.106   0.117   1.559
22748WAT     H268487   4.256   0.053   1.556
22749WAT      O68488   2.770   9.812   5.109
22749WAT     H168489   2.747   9.908   5.125
22749WAT     H268490   2.775   9.764   5.196
22750WAT      O68491   5.212   4.729   8.680
22750WAT     H168492   5.249   4.766   8.765
22750WAT     H268493   5.271   4.656   8.647
22751WAT      O68494   1.024   9.411   7.375
22751WAT     H168495   0.987   9.433   7.465
22751WAT     H268496   1.018   9.313   7.360
22752WAT      O68497   8.188   8.151   6.397
22752WAT     H168498   8.103   8.193   6.363
22752WAT     H268499   8.236   8.109   6.321
22753WAT      O68500   8.044   9.539   6.368
22753WAT     H168501   8.122   9.476   6.366
22753WAT     H268502   8.038   9.588   6.281
22754WAT      O68503   3.156   8.388   1.561
22754WAT     H168504   3.233   8.419   1.617
22754WAT     H268505   3.140   8.291   1.578
22755WAT      O68506   8.155   3.000   1.315
22755WAT     H168507   8.253   3.019   1.307
22755WAT     H268508   8.118   3.049   1.394
22756WAT      O68509   6.369   9.055   0.670
22756WAT     H168510   6.318   8.971   0.684
22756WAT     H268511   6.453   9.053   0.725
22757WAT      O68512   1.615   1.916   1.353
22757WAT     H168513   1.621   1.868   1.266
22757WAT     H268514   1.581   2.009   1.338
22758WAT      O68515   3.733   7.309   4.062
22758WAT     H168516   3.633   7.302   4.063
22758WAT     H268517   3.761   7.380   3.999
22759WAT      O68518   2.847   1.183   2.967
22759WAT     H168519   2.909   1.251   3.008
22759WAT     H268520   2.771   1.230   2.923
22760WAT      O68521   0.947   3.171   8.161
22760WAT     H168522   1.016   3.186   8.091
22760WAT     H268523   0.982   3.199   8.250
22761WAT      O68524   5.953   2.762   6.210
22761WAT     H168525   5.855   2.746   6.210
22761WAT     H268526   5.998   2.697   6.150
22762WAT      O68527   6.363   4.301   9.593
22762WAT     H168528   6.303   4.378   9.570
22762WAT     H268529   6.448   4.336   9.634
22763WAT      O68530   7.644   4.808   8.679
22763WAT     H168531   7.631   4.715   8.643
22763WAT     H268532   7.683   4.866   8.608
22764WAT      O68533   5.641   5.959   1.824
22764WAT     H168534   5.735   5.984   1.802
22764WAT     H268535   5.642   5.883   1.890
22765WAT      O68536   7.785   4.563   4.995
22765WAT     H168537   7.759   4.539   4.902
22765WAT     H268538   7.717   4.528   5.059
22766WAT      O68539   7.875   7.120   6.854
22766WAT     H168540   7.808   7.045   6.846
22766WAT     H268541   7.846   7.183   6.925
22767WAT      O68542   5.166   7.042   0.324
22767WAT     H168543   5.189   7.081   0.413
22767WAT     H268544   5.243   7.055   0.261
22768WAT      O68545   2.550   3.078   4.433
22768WAT     H168546   2.465   3.037   4.400
22768WAT     H268547   2.544   3.178   4.425
22769WAT      O68548   2.389   2.313   0.563
22769WAT     H168549   2.428   2.405   0.554
22769WAT     H268550   2.312   2.304   0.501
22770WAT      O68551   4.027   3.623   2.923
22770WAT     H168552   4.030   3.626   2.823
22770WAT     H268553   3.938   3.656   2.954
22771WAT      O68554   3.880   8.261   9.629
22771WAT     H168555   3.862   8.353   9.663
22771WAT     H268556   3.942   8.213   9.692
22772WAT      O68557   0.611   9.527   2.634
22772WAT     H168558   0.649   9.612   2.669
22772WAT     H268559   0.524   9.546   2.588
22773WAT      O68560   3.060   0.173   1.331
22773WAT     H168561   3.035   0.104   1.399
22773WAT     H268562   3.045   0.136   1.239
22774WAT      O68563   1.519   7.833   9.260
22774WAT     H168564   1.495   7.929   9.275
22774WAT     H268565   1.481   7.803   9.172
22775WAT      O68566   0.849   1.337   8.323
22775WAT     H168567   0.829   1.348   8.421
22775WAT     H268568   0.814   1.416   8.273
22776WAT      O68569   9.874   4.163   6.219
22776WAT     H168570   9.836   4.114   6.141
22776WAT     H268571   9.833   4.129   6.304
22777WAT      O68572   4.589   5.472   1.650
22777WAT     H168573   4.545   5.555   1.685
22777WAT     H268574   4.583   5.400   1.720
22778WAT      O68575   2.968   2.645   7.387
22778WAT     H168576   2.917   2.690   7.461
22778WAT     H268577   2.998   2.714   7.322
22779WAT      O68578   4.952   7.646   5.606
22779WAT     H168579   4.970   7.558   5.562
22779WAT     H268580   4.900   7.704   5.543
22780WAT      O68581   8.846   0.332   7.893
22780WAT     H168582   8.879   0.420   7.926
22780WAT     H268583   8.754   0.315   7.929
22781WAT      O68584   5.362   9.601   3.618
22781WAT     H168585   5.301   9.534   3.659
22781WAT     H268586   5.379   9.676   3.683
22782WAT      O68587   0.027   7.018   1.423
22782WAT     H168588   0.055   6.924   1.439
22782WAT     H268589   0.096   7.080   1.461
22783WAT      O68590   7.511   1.808   3.441
22783WAT     H168591   7.496   1.712   3.415
22783WAT     H268592   7.483   1.821   3.536
22784WAT      O68593   2.348   8.525   8.160
22784WAT     H168594   2.279   8.455   8.144
22784WAT     H268595   2.312   8.593   8.223
22785WAT      O68596   0.911   1.834   1.148
22785WAT     H168597   0.978   1.793   1.086
22785WAT     H268598   0.884   1.768   1.218
22786WAT      O68599   1.961   5.768   3.241
22786WAT     H168600   1.915   5.780   3.152
22786WAT     H268601   1.928   5.684   3.284
22787WAT      O68602   0.378   9.025   8.774
22787WAT     H168603   0.448   9.088   8.740
22787WAT     H268604   0.413   8.978   8.855
22788WAT      O68605   8.154   5.810   3.636
22788WAT     H168606   8.116   5.769   3.719
22788WAT     H268607   8.251   5.830   3.649
22789WAT      O68608   2.254   9.631   3.493
22789WAT     H168609   2.339   9.616   3.543
22789WAT     H268610   2.199   9.548   3.494
22790WAT      O68611   0.146   5.476   1.365
22790WAT     H168612   0.194   5.477   1.277
22790WAT     H268613   0.191   5.541   1.427
22791WAT      O68614   9.794   9.806   6.555
22791WAT     H168615   9.866   9.873   6.573
22791WAT     H268616   9.827   9.714   6.579
22792WAT      O68617   0.318   4.325   4.688
22792WAT     H168618   0.276   4.366   4.607
22792WAT     H268619   0.247   4.294   4.751
22793WAT      O68620   6.607   7.137   7.149
22793WAT     H168621   6.540   7.177   7.211
22793WAT     H268622   6.630   7.204   7.078
22794WAT      O68623   2.281   2.024   9.728
22794WAT     H168624   2.308   2.091   9.797
22794WAT     H268625   2.362   1.987   9.683
22795WAT      O68626   0.255   4.449   7.084
22795WAT     H168627   0.169   4.399   7.087
22795WAT     H268628   0.288   4.452   6.989
22796WAT      O68629   6.799   0.122   8.904
22796WAT     H168630   6.713   0.140   8.858
22796WAT     H268631   6.849   0.050   8.856
22797WAT      O68632   1.842   7.170   7.905
22797WAT     H168633   1.749   7.144   7.879
22797WAT     H268634   1.892   7.089   7.936
22798WAT      O68635   5.542   2.601   8.611
22798WAT     H168636   5.457   2.600   8.559
22798WAT     H268637   5.539   2.530   8.681
22799WAT      O68638   6.731   0.653   3.938
22799WAT     H168639   6.636   0.622   3.935
22799WAT     H268640   6.768   0.658   3.845
22800WAT      O68641   3.952   1.190   1.652
22800WAT     H168642   3.874   1.221   1.706
22800WAT     H268643   3.962   1.249   1.572
22801WAT      O68644   1.836   6.011   8.567
22801WAT     H168645   1.756   6.055   8.609
22801WAT     H268646   1.815   5.915   8.550
22802WAT      O68647   4.147   7.962   9.002
22802WAT     H168648   4.222   8.027   9.011
22802WAT     H268649   4.169   7.878   9.052
22803WAT      O68650   2.371   7.207   7.906
22803WAT     H168651   2.446   7.208   7.972
22803WAT     H268652   2.362   7.298   7.864
22804WAT      O68653   4.604   7.181   1.165
22804WAT     H168654   4.573   7.272   1.139
22804WAT     H268655   4.704   7.176   1.159
22805WAT      O68656   9.360   0.596   2.339
22805WAT     H168657   9.322   0.683   2.370
22805WAT     H268658   9.360   0.531   2.415
22806WAT      O68659   2.712   7.864   0.793
22806WAT     H168660   2.756   7.936   0.740
22806WAT     H268661   2.752   7.862   0.885
22807WAT      O68662   8.488   9.511   6.312
22807WAT     H168663   8.495   9.414   6.337
22807WAT     H268664   8.425   9.557   6.374
22808WAT      O68665   7.636   3.157   3.912
22808WAT     H168666   7.614   3.234   3.852
22808WAT     H268667   7.563   3.089   3.906
22809WAT      O68668   3.068   3.902   6.678
22809WAT     H168669   3.004   3.963   6.726
22809WAT     H268670   3.141   3.956   6.636
22810WAT      O68671   7.992   2.071   8.537
22810WAT     H168672   8.074   2.033   8.495
22810WAT     H268673   7.952   2.140   8.476
22811WAT      O68674   0.646   7.470   0.256
22811WAT     H168675   0.673   7.436   0.167
22811WAT     H268676   0.719   7.527   0.294
22812WAT      O68677   2.510   8.646   1.556
22812WAT     H168678   2.513   8.635   1.457
22812WAT     H268679   2.486   8.559   1.599
22813WAT      O68680   2.042   7.245   9.684
22813WAT     H168681   2.065   7.164   9.629
22813WAT     H268682   2.053   7.223   9.781
22814WAT      O68683   6.406   3.028   4.918
22814WAT     H168684   6.351   3.051   4.998
22814WAT     H268685   6.413   3.107   4.858
22815WAT      O68686   9.597   1.558   6.729
22815WAT     H168687   9.539   1.613   6.669
22815WAT     H268688   9.689   1.553   6.691
22816WAT      O68689   3.212   2.559   2.604
22816WAT     H168690   3.265   2.544   2.688
22816WAT     H268691   3.271   2.598   2.534
22817WAT      O68692   0.265   7.483   8.579
22817WAT     H168693   0.360   7.500   8.605
22817WAT     H268694   0.255   7.390   8.545
22818WAT      O68695   1.592   9.427   1.102
22818WAT     H168696   1.691   9.421   1.089
22818WAT     H268697   1.571   9.430   1.200
22819WAT      O68698   6.981   4.766   3.837
22819WAT     H168699   7.047   4.819   3.783
22819WAT     H268700   6.944   4.824   3.910
22820WAT      O68701   1.598   3.531   1.542
22820WAT     H168702   1.606   3.455   1.606
22820WAT     H268703   1.652   3.608   1.574
22821WAT      O68704   5.633   0.849   8.387
22821WAT     H168705   5.659   0.766   8.337
22821WAT     H268706   5.615   0.923   8.322
22822WAT      O68707   5.502   0.403   5.782
22822WAT     H168708   5.436   0.348   5.729
22822WAT     H268709   5.536   0.477   5.724
22823WAT      O68710   4.392   3.312   8.634
22823WAT     H168711   4.434   3.222   8.630
22823WAT     H268712   4.404   3.359   8.547
22824WAT      O68713   4.082   7.384   0.106
22824WAT     H168714   4.099   7.331   0.022
22824WAT     H268715   4.159   7.374   0.168
22825WAT      O68716   3.960   4.683   4.002
22825WAT     H168717   3.940   4.778   3.978
22825WAT     H268718   3.889   4.624   3.965
22826WAT      O68719   2.053   0.683   5.017
22826WAT     H168720   2.109   0.704   4.936
22826WAT     H268721   1.971   0.632   4.988
22827WAT      O68722   7.026   8.773   6.948
22827WAT     H168723   7.080   8.746   6.867
22827WAT     H268724   6.998   8.868   6.939
22828WAT      O68725   4.535   4.409   8.225
22828WAT     H168726   4.604   4.370   8.164
22828WAT     H268727   4.456   4.349   8.229
22829WAT      O68728   7.333   3.472   4.742
22829WAT     H168729   7.322   3.524   4.658
22829WAT     H268730   7.400   3.400   4.729
22830WAT      O68731   9.268   9.814   5.370
22830WAT     H168732   9.187   9.806   5.311
22830WAT     H268733   9.317   9.727   5.369
22831WAT      O68734   3.059   5.800   3.786
22831WAT     H168735   2.986   5.819   3.852
22831WAT     H268736   3.027   5.819   3.693
22832WAT      O68737   6.070   3.192   7.525
22832WAT     H168738   6.050   3.148   7.612
22832WAT     H268739   6.095   3.123   7.457
22833WAT      O68740   6.382   9.378   0.221
22833WAT     H168741   6.451   9.435   0.176
22833WAT     H268742   6.391   9.386   0.320
22834WAT      O68743   4.452   7.639   6.200
22834WAT     H168744   4.445   7.602   6.107
22834WAT     H268745   4.515   7.717   6.200
22835WAT      O68746   9.513   3.280   1.881
22835WAT     H168747   9.446   3.227   1.829
22835WAT     H268748   9.469   3.318   1.962
22836WAT      O68749   3.989   6.509   7.066
22836WAT     H168750   3.943   6.586   7.022
22836WAT     H268751   3.948   6.423   7.035
22837WAT      O68752   5.111   7.624   1.582
22837WAT     H168753   5.146   7.536   1.550
22837WAT     H268754   5.038   7.654   1.520
22838WAT      O68755   8.998   4.320   9.851
22838WAT     H168756   8.949   4.406   9.867
22838WAT     H268757   8.985   4.259   9.930
22839WAT      O68758   6.184   9.536   6.146
22839WAT     H168759   6.144   9.570   6.231
22839WAT     H268760   6.283   9.524   6.159
22840WAT      O68761   6.323   9.810   7.130
22840WAT     H168762   6.328   9.790   7.032
22840WAT     H268763   6.276   9.898   7.143
22841WAT      O68764   1.539   9.694   8.827
22841WAT     H168765   1.483   9.755   8.771
22841WAT     H268766   1.533   9.721   8.923
22842WAT      O68767   4.059   7.780   1.094
22842WAT     H168768   4.099   7.689   1.100
22842WAT     H268769   4.086   7.822   1.007
22843WAT      O68770   5.550   3.146   2.025
22843WAT     H168771   5.545   3.245   2.038
22843WAT     H268772   5.610   3.106   2.094
22844WAT      O68773   1.507   0.444   9.584
22844WAT     H168774   1.507   0.354   9.628
22844WAT     H268775   1.446   0.442   9.504
22845WAT      O68776   8.125   9.056   4.496
22845WAT     H168777   8.143   8.959   4.479
22845WAT     H268778   8.027   9.071   4.508
22846WAT      O68779   3.199   4.316   1.932
22846WAT     H168780   3.293   4.323   1.900
22846WAT     H268781   3.198   4.306   2.031
22847WAT      O68782   0.817   1.975   8.201
22847WAT     H168783   0.902   1.985   8.150
22847WAT     H268784   0.833   1.993   8.298
22848WAT      O68785   6.089   4.996   0.091
22848WAT     H168786   6.059   5.066   0.156
22848WAT     H268787   6.188   4.995   0.086
22849WAT      O68788   6.569   7.033   5.737
22849WAT     H168789   6.488   7.070   5.692
22849WAT     H268790   6.638   7.105   5.747
22850WAT      O68791   6.413   0.481   2.762
22850WAT     H168792   6.313   0.478   2.771
22850WAT     H268793   6.454   0.484   2.853
22851WAT      O68794   7.286   0.809   3.867
22851WAT     H168795   7.194   0.780   3.895
22851WAT     H268796   7.354   0.769   3.928
22852WAT      O68797   5.097   7.738   0.489
22852WAT     H168798   5.006   7.749   0.448
22852WAT     H268799   5.153   7.679   0.432
22853WAT      O68800   9.523   6.029   0.288
22853WAT     H168801   9.456   6.070   0.350
22853WAT     H268802   9.479   5.962   0.230
22854WAT      O68803   9.265   3.840   1.724
22854WAT     H168804   9.307   3.784   1.652
22854WAT     H268805   9.177   3.800   1.749
22855WAT      O68806   8.139   5.683   5.055
22855WAT     H168807   8.081   5.605   5.031
22855WAT     H268808   8.118   5.760   4.995
22856WAT      O68809   1.662   5.153   5.860
22856WAT     H168810   1.655   5.228   5.795
22856WAT     H268811   1.614   5.178   5.944
22857WAT      O68812   5.035   2.004   0.587
22857WAT     H168813   5.128   2.005   0.624
22857WAT     H268814   4.974   2.053   0.649
22858WAT      O68815   0.097   0.160   6.530
22858WAT     H168816   0.132   0.149   6.437
22858WAT     H268817   0.049   0.248   6.537
22859WAT      O68818   9.525   8.824   2.044
22859WAT     H168819   9.600   8.832   2.110
22859WAT     H268820   9.454   8.890   2.066
22860WAT      O68821   5.045   6.796   8.911
22860WAT     H168822   5.099   6.846   8.979
22860WAT     H268823   4.976   6.857   8.872
22861WAT      O68824   4.249   8.567   5.818
22861WAT     H168825   4.333   8.517   5.798
22861WAT     H268826   4.179   8.543   5.750
22862WAT      O68827   5.448   8.665   3.986
22862WAT     H168828   5.422   8.630   3.896
22862WAT     H268829   5.417   8.760   3.994
22863WAT      O68830   8.670   6.893   8.196
22863WAT     H168831   8.677   6.845   8.284
22863WAT     H268832   8.595   6.958   8.199
22864WAT      O68833   9.571   4.332   8.737
22864WAT     H168834   9.503   4.394   8.776
22864WAT     H268835   9.651   4.385   8.707
22865WAT      O68836   6.191   0.488   8.478
22865WAT     H168837   6.280   0.479   8.433
22865WAT     H268838   6.193   0.441   8.566
22866WAT      O68839   5.193   8.510   5.781
22866WAT     H168840   5.219   8.434   5.840
22866WAT     H268841   5.132   8.572   5.830
22867WAT      O68842   4.067   5.125   3.246
22867WAT     H168843   4.125   5.052   3.209
22867WAT     H268844   4.072   5.124   3.346
22868WAT      O68845   2.917   4.813   3.731
22868WAT     H168846   2.893   4.761   3.649
22868WAT     H268847   2.858   4.785   3.807
22869WAT      O68848   2.116   2.438   3.682
22869WAT     H168849   2.042   2.371   3.688
22869WAT     H268850   2.190   2.411   3.743
22870WAT      O68851   6.380   8.678   7.511
22870WAT     H168852   6.294   8.710   7.552
22870WAT     H268853   6.400   8.731   7.429
22871WAT      O68854   2.240   8.260   7.903
22871WAT     H168855   2.336   8.286   7.911
22871WAT     H268856   2.190   8.332   7.856
22872WAT      O68857   8.821   5.416   9.467
22872WAT     H168858   8.913   5.389   9.437
22872WAT     H268859   8.753   5.363   9.415
22873WAT      O68860   5.117   3.691   3.009
22873WAT     H168861   5.064   3.635   3.072
22873WAT     H268862   5.055   3.740   2.948
22874WAT      O68863   6.052   7.699   8.131
22874WAT     H168864   5.960   7.674   8.101
22874WAT     H268865   6.078   7.641   8.209
22875WAT      O68866   4.296   0.188   8.667
22875WAT     H168867   4.273   0.103   8.620
22875WAT     H268868   4.313   0.169   8.764
22876WAT      O68869   1.980   0.095   6.392
22876WAT     H168870   2.019   0.158   6.458
22876WAT     H268871   2.036   0.095   6.309
22877WAT      O68872   6.296   1.081   1.658
22877WAT     H168873   6.292   1.094   1.559
22877WAT     H268874   6.390   1.096   1.689
22878WAT      O68875   6.864   2.573   6.669
22878WAT     H168876   6.854   2.534   6.760
22878WAT     H268877   6.920   2.514   6.612
22879WAT      O68878   6.099   5.542   3.784
22879WAT     H168879   6.032   5.615   3.782
22879WAT     H268880   6.053   5.453   3.790
22880WAT      O68881   5.670   1.399   9.398
22880WAT     H168882   5.641   1.307   9.371
22880WAT     H268883   5.680   1.456   9.316
22881WAT      O68884   2.827   4.345   0.148
22881WAT     H168885   2.825   4.296   0.061
22881WAT     H268886   2.855   4.440   0.133
22882WAT      O68887   9.509   3.302   4.350
22882WAT     H168888   9.521   3.395   4.316
22882WAT     H268889   9.431   3.259   4.305
22883WAT      O68890   3.049   2.808   7.882
22883WAT     H168891   3.119   2.790   7.813
22883WAT     H268892   3.072   2.891   7.933
22884WAT      O68893   9.860   8.411   3.139
22884WAT     H168894   9.856   8.386   3.235
22884WAT     H268895   9.949   8.387   3.102
22885WAT      O68896   6.795   7.114   3.815
22885WAT     H168897   6.752   7.131   3.903
22885WAT     H268898   6.779   7.192   3.754
22886WAT      O68899   8.823   6.506   7.629
22886WAT     H168900   8.916   6.477   7.608
22886WAT     H268901   8.799   6.478   7.722
22887WAT      O68902   4.925   7.753   7.307
22887WAT     H168903   4.943   7.852   7.310
22887WAT     H268904   5.012   7.704   7.302
22888WAT      O68905   2.397   3.029   2.844
22888WAT     H168906   2.469   2.970   2.810
22888WAT     H268907   2.348   2.983   2.918
22889WAT      O68908   3.534   5.452   0.239
22889WAT     H168909   3.442   5.485   0.262
22889WAT     H268910   3.598   5.478   0.311
22890WAT      O68911   9.201   4.057   9.523
22890WAT     H168912   9.293   4.095   9.533
22890WAT     H268913   9.133   4.129   9.537
22891WAT      O68914   4.232   5.387   9.000
22891WAT     H168915   4.168   5.314   8.977
22891WAT     H268916   4.234   5.400   9.099
22892WAT      O68917   3.151   5.284   6.915
22892WAT     H168918   3.210   5.257   6.839
22892WAT     H268919   3.194   5.260   7.002
22893WAT      O68920   2.234   3.635   0.527
22893WAT     H168921   2.264   3.689   0.447
22893WAT     H268922   2.280   3.547   0.526
22894WAT      O68923   5.367   1.036   6.682
22894WAT     H168924   5.443   1.057   6.621
22894WAT     H268925   5.309   0.966   6.640
22895WAT      O68926   2.283   6.936   5.630
22895WAT     H168927   2.188   6.936   5.599
22895WAT     H268928   2.344   6.949   5.551
22896WAT      O68929   1.580   0.171   4.492
22896WAT     H168930   1.648   0.110   4.451
22896WAT     H268931   1.493   0.122   4.501
22897WAT      O68932   6.199   6.108   0.013
22897WAT     H168933   6.164   6.202   0.005
22897WAT     H268934   6.253   6.101   0.097
22898WAT      O68935   1.074   2.235   8.829
22898WAT     H168936   1.017   2.192   8.900
22898WAT     H268937   1.154   2.178   8.811
22899WAT      O68938   0.779   4.937   1.386
22899WAT     H168939   0.807   4.853   1.340
22899WAT     H268940   0.812   5.016   1.335
22900WAT      O68941   0.359   1.596   0.781
22900WAT     H168942   0.272   1.554   0.754
22900WAT     H268943   0.356   1.619   0.878
22901WAT      O68944   4.731   4.025   8.306
22901WAT     H168945   4.820   4.033   8.262
22901WAT     H268946   4.717   4.103   8.367
22902WAT      O68947   6.349   9.436   4.741
22902WAT     H168948   6.260   9.481   4.730
22902WAT     H268949   6.336   9.337   4.739
22903WAT      O68950   9.823   8.247   5.312
22903WAT     H168951   9.884   8.316   5.350
22903WAT     H268952   9.862   8.156   5.327
22904WAT      O68953   1.392   3.254   6.117
22904WAT     H168954   1.459   3.181   6.134
22904WAT     H268955   1.367   3.297   6.204
22905WAT      O68956   9.694   3.208   2.510
22905WAT     H168957   9.689   3.149   2.591
22905WAT     H268958   9.728   3.155   2.432
22906WAT      O68959   3.818   4.971   0.801
22906WAT     H168960   3.891   4.994   0.737
22906WAT     H268961   3.854   4.970   0.894
22907WAT      O68962   0.233   9.421   0.962
22907WAT     H168963   0.206   9.501   1.015
22907WAT     H268964   0.157   9.392   0.904
22908WAT      O68965   1.951   1.481   8.685
22908WAT     H168966   2.027   1.416   8.689
22908WAT     H268967   1.987   1.572   8.664
22909WAT      O68968   3.950   4.767   9.511
22909WAT     H168969   3.925   4.846   9.454
22909WAT     H268970   3.868   4.726   9.549
22910WAT      O68971   5.828   0.900   3.022
22910WAT     H168972   5.824   0.966   2.948
22910WAT     H268973   5.746   0.843   3.021
22911WAT      O68974   1.062   7.527   5.938
22911WAT     H168975   1.072   7.438   5.982
22911WAT     H268976   0.990   7.522   5.869
22912WAT      O68977   0.304   6.968   4.612
22912WAT     H168978   0.263   7.038   4.671
22912WAT     H268979   0.254   6.882   4.624
22913WAT      O68980   6.578   6.241   8.453
22913WAT     H168981   6.514   6.189   8.511
22913WAT     H268982   6.526   6.296   8.388
22914WAT      O68983   7.555   8.450   0.656
22914WAT     H168984   7.590   8.498   0.737
22914WAT     H268985   7.625   8.452   0.584
22915WAT      O68986   5.720   3.098   7.979
22915WAT     H168987   5.790   3.083   8.049
22915WAT     H268988   5.746   3.051   7.894
22916WAT      O68989   1.406   1.443   0.254
22916WAT     H168990   1.412   1.383   0.334
22916WAT     H268991   1.440   1.534   0.278
22917WAT      O68992   0.840   4.684   7.555
22917WAT     H168993   0.909   4.670   7.484
22917WAT     H268994   0.848   4.777   7.590
22918WAT      O68995   9.437   3.274   2.358
22918WAT     H168996   9.364   3.301   2.296
22918WAT     H268997   9.473   3.355   2.404
22919WAT      O68998   5.467   8.016   1.310
22919WAT     H168999   5.415   8.077   1.370
22919WAT     H269000   5.460   7.922   1.345
22920WAT      O69001   4.354   1.290   9.064
22920WAT     H169002   4.429   1.234   9.031
22920WAT     H269003   4.366   1.384   9.031
22921WAT      O69004   8.431   2.082   6.161
22921WAT     H169005   8.455   2.046   6.071
22921WAT     H269006   8.373   2.015   6.208
22922WAT      O69007   0.646   8.822   0.252
22922WAT     H169008   0.574   8.887   0.276
22922WAT     H269009   0.662   8.825   0.153
22923WAT      O69010   2.229   1.532   7.042
22923WAT     H169011   2.144   1.553   7.090
22923WAT     H269012   2.294   1.607   7.056
22924WAT      O69013   0.658   3.213   0.627
22924WAT     H169014   0.704   3.160   0.556
22924WAT     H269015   0.564   3.233   0.598
22925WAT      O69016   8.047   4.144   4.703
22925WAT     H169017   8.008   4.053   4.697
22925WAT     H269018   8.006   4.194   4.779
22926WAT      O69019   2.145   7.305   3.234
22926WAT     H169020   2.166   7.396   3.269
22926WAT     H269021   2.141   7.240   3.309
22927WAT      O69022   9.270   1.750   3.876
22927WAT     H169023   9.185   1.718   3.834
22927WAT     H269024   9.344   1.687   3.854
22928WAT      O69025   8.126   5.439   2.249
22928WAT     H169026   8.218   5.470   2.224
22928WAT     H269027   8.132   5.363   2.314
22929WAT      O69028   2.935   6.848   0.845
22929WAT     H169029   2.983   6.847   0.932
22929WAT     H269030   2.932   6.755   0.808
22930WAT      O69031   0.849   7.226   5.142
22930WAT     H169032   0.911   7.204   5.067
22930WAT     H269033   0.901   7.242   5.226
22931WAT      O69034   2.617   6.042   0.060
22931WAT     H169035   2.673   5.959   0.058
22931WAT     H269036   2.581   6.055   0.152
22932WAT      O69037   5.530   5.850   0.217
22932WAT     H169038   5.575   5.773   0.262
22932WAT     H269039   5.593   5.927   0.213
22933WAT      O69040   9.011   8.922   7.716
22933WAT     H169041   9.058   8.898   7.800
22933WAT     H269042   9.039   8.861   7.642
22934WAT      O69043   2.230   6.973   1.974
22934WAT     H169044   2.209   6.914   1.897
22934WAT     H269045   2.316   6.945   2.016
22935WAT      O69046   5.705   5.649   6.459
22935WAT     H169047   5.749   5.559   6.458
22935WAT     H269048   5.773   5.720   6.442
22936WAT      O69049   0.507   7.743   9.331
22936WAT     H169050   0.477   7.770   9.240
22936WAT     H269051   0.566   7.814   9.369
22937WAT      O69052   8.523   0.219   8.239
22937WAT     H169053   8.437   0.254   8.275
22937WAT     H269054   8.594   0.228   8.309
22938WAT      O69055   4.073   3.578   8.798
22938WAT     H169056   4.070   3.666   8.845
22938WAT     H269057   4.168   3.548   8.791
22939WAT      O69058   1.114   3.253   7.523
22939WAT     H169059   1.164   3.335   7.495
22939WAT     H269060   1.094   3.258   7.621
22940WAT      O69061   5.454   5.302   4.100
22940WAT     H169062   5.479   5.237   4.171
22940WAT     H269063   5.449   5.255   4.012
22941WAT      O69064   2.330   9.148   3.884
22941WAT     H169065   2.411   9.203   3.864
22941WAT     H269066   2.260   9.167   3.815
22942WAT      O69067   1.649   3.073   7.678
22942WAT     H169068   1.616   3.052   7.586
22942WAT     H269069   1.735   3.123   7.672
22943WAT      O69070   4.626   0.851   7.016
22943WAT     H169071   4.703   0.872   6.955
22943WAT     H269072   4.634   0.756   7.047
22944WAT      O69073   1.325   8.379   4.224
22944WAT     H169074   1.368   8.442   4.288
22944WAT     H269075   1.279   8.305   4.274
22945WAT      O69076   1.971   2.053   5.204
22945WAT     H169077   1.884   2.034   5.157
22945WAT     H269078   1.996   1.974   5.260
22946WAT      O69079   7.720   7.191   1.940
22946WAT     H169080   7.712   7.290   1.929
22946WAT     H269081   7.680   7.164   2.028
22947WAT      O69082   8.006   9.356   5.764
22947WAT     H169083   7.932   9.334   5.701
22947WAT     H269084   7.972   9.354   5.858
22948WAT      O69085   9.168   1.113   0.941
22948WAT     H169086   9.230   1.169   0.886
22948WAT     H269087   9.149   1.027   0.893
22949WAT      O69088   0.707   2.256   5.899
22949WAT     H169089   0.802   2.275   5.924
22949WAT     H269090   0.695   2.273   5.801
22950WAT      O69091   6.461   4.715   6.784
22950WAT     H169092   6.434   4.630   6.828
22950WAT     H269093   6.550   4.704   6.741
22951WAT      O69094   3.106   6.798   0.112
22951WAT     H169095   3.165   6.733   0.063
22951WAT     H269096   3.088   6.763   0.204
22952WAT      O69097   6.177   5.562   9.555
22952WAT     H169098   6.210   5.530   9.643
22952WAT     H269099   6.236   5.526   9.482
22953WAT      O69100   0.702   2.161   7.590
22953WAT     H169101   0.721   2.091   7.521
22953WAT     H269102   0.656   2.119   7.668
22954WAT      O69103   0.612   2.964   1.759
22954WAT     H169104   0.526   2.975   1.809
22954WAT     H269105   0.689   2.985   1.819
22955WAT      O69106   7.566   6.675   0.004
22955WAT     H169107   7.636   6.666  -0.066
22955WAT     H269108   7.601   6.641   0.092
22956WAT      O69109   8.482   4.500   5.445
22956WAT     H169110   8.417   4.556   5.496
22956WAT     H269111   8.507   4.547   5.360
22957WAT      O69112   1.110   6.119   3.074
22957WAT     H169113   1.137   6.092   3.166
22957WAT     H269114   1.043   6.055   3.038
22958WAT      O69115   1.903   4.707   5.696
22958WAT     H169116   1.924   4.803   5.676
22958WAT     H269117   1.940   4.649   5.623
22959WAT      O69118   7.677   3.033   5.001
22959WAT     H169119   7.597   2.991   5.044
22959WAT     H269120   7.717   3.100   5.064
22960WAT      O69121   3.664   4.322   7.037
22960WAT     H169122   3.576   4.293   7.000
22960WAT     H269123   3.699   4.399   6.984
22961WAT      O69124   3.242   2.781   3.411
22961WAT     H169125   3.267   2.853   3.347
22961WAT     H269126   3.147   2.795   3.441
22962WAT      O69127   8.003   8.646   1.094
22962WAT     H169128   8.000   8.550   1.121
22962WAT     H269129   8.044   8.700   1.168
22963WAT      O69130   3.858   9.174   4.470
22963WAT     H169131   3.811   9.182   4.382
22963WAT     H269132   3.807   9.225   4.540
22964WAT      O69133   3.370   8.864   7.204
22964WAT     H169134   3.374   8.780   7.258
22964WAT     H269135   3.400   8.845   7.111
22965WAT      O69136   3.529   6.459   9.122
22965WAT     H169137   3.558   6.509   9.041
22965WAT     H269138   3.434   6.479   9.142
22966WAT      O69139   8.219   7.357   5.850
22966WAT     H169140   8.140   7.316   5.804
22966WAT     H269141   8.296   7.294   5.848
22967WAT      O69142   4.228   0.398   5.797
22967WAT     H169143   4.260   0.492   5.814
22967WAT     H269144   4.137   0.387   5.835
22968WAT      O69145   6.151   4.214   5.126
22968WAT     H169146   6.202   4.137   5.089
22968WAT     H269147   6.053   4.201   5.110
22969WAT      O69148   6.163   5.839   8.985
22969WAT     H169149   6.078   5.806   9.027
22969WAT     H269150   6.189   5.778   8.910
22970WAT      O69151   9.188   1.778   9.175
22970WAT     H169152   9.128   1.703   9.201
22970WAT     H269153   9.162   1.861   9.225
22971WAT      O69154   6.058   8.851   1.497
22971WAT     H169155   5.969   8.883   1.465
22971WAT     H269156   6.129   8.917   1.472
22972WAT      O69157   1.862   8.315   1.893
22972WAT     H169158   1.909   8.306   1.981
22972WAT     H269159   1.772   8.271   1.898
22973WAT      O69160   1.920   4.805   7.819
22973WAT     H169161   1.838   4.857   7.796
22973WAT     H269162   1.894   4.716   7.857
22974WAT      O69163   2.572   3.111   0.954
22974WAT     H169164   2.494   3.121   1.016
22974WAT     H269165   2.656   3.134   1.003
22975WAT      O69166   4.387   3.513   5.410
22975WAT     H169167   4.380   3.609   5.382
22975WAT     H269168   4.363   3.506   5.507
22976WAT      O69169   2.360   0.472   2.586
22976WAT     H169170   2.277   0.436   2.545
22976WAT     H269171   2.351   0.571   2.598
22977WAT      O69172   0.276   6.450   7.846
22977WAT     H169173   0.361   6.404   7.822
22977WAT     H269174   0.278   6.543   7.811
22978WAT      O69175   0.665   6.650   3.459
22978WAT     H169176   0.649   6.691   3.370
22978WAT     H269177   0.598   6.685   3.525
22979WAT      O69178   5.035   4.375   4.157
22979WAT     H169179   5.035   4.288   4.107
22979WAT     H269180   4.984   4.444   4.104
22980WAT      O69181   2.107   7.779   9.232
22980WAT     H169182   2.194   7.803   9.277
22980WAT     H269183   2.031   7.813   9.287
22981WAT      O69184   3.710   4.018   3.205
22981WAT     H169185   3.797   4.067   3.215
22981WAT     H269186   3.688   4.007   3.108
22982WAT      O69187   1.102   3.592   9.555
22982WAT     H169188   1.056   3.666   9.506
22982WAT     H269189   1.198   3.616   9.568
22983WAT      O69190   4.925   3.390   3.753
22983WAT     H169191   4.910   3.398   3.851
22983WAT     H269192   4.902   3.297   3.723
22984WAT      O69193   6.466   2.764   1.416
22984WAT     H169194   6.432   2.727   1.503
22984WAT     H269195   6.456   2.696   1.344
22985WAT      O69196   2.145   0.354   2.428
22985WAT     H169197   2.092   0.295   2.488
22985WAT     H269198   2.168   0.304   2.344
22986WAT      O69199   7.083   4.054   0.542
22986WAT     H169200   7.031   4.030   0.460
22986WAT     H269201   7.019   4.066   0.619
22987WAT      O69202   7.776   5.848   5.976
22987WAT     H169203   7.776   5.754   5.941
22987WAT     H269204   7.747   5.848   6.072
22988WAT      O69205   6.484   3.397   3.883
22988WAT     H169206   6.424   3.468   3.921
22988WAT     H269207   6.542   3.360   3.955
22989WAT      O69208   5.455   5.887   4.883
22989WAT     H169209   5.392   5.950   4.928
22989WAT     H269210   5.545   5.930   4.875
22990WAT      O69211   6.541   6.900   4.944
22990WAT     H169212   6.476   6.967   4.908
22990WAT     H269213   6.520   6.810   4.907
22991WAT      O69214   5.023   4.200   8.433
22991WAT     H169215   5.002   4.104   8.444
22991WAT     H269216   5.117   4.217   8.463
22992WAT      O69217   1.086   2.875   4.904
22992WAT     H169218   1.049   2.814   4.835
22992WAT     H269219   1.057   2.969   4.885
22993WAT      O69220   1.681   8.024   4.144
22993WAT     H169221   1.641   7.950   4.198
22993WAT     H269222   1.734   8.084   4.203
22994WAT      O69223   4.418   1.836   1.916
22994WAT     H169224   4.513   1.859   1.934
22994WAT     H269225   4.383   1.777   1.988
22995WAT      O69226   8.090   4.301   6.680
22995WAT     H169227   8.116   4.358   6.758
22995WAT     H269228   8.000   4.328   6.647
22996WAT      O69229   0.856   5.086   1.147
22996WAT     H169230   0.948   5.122   1.160
22996WAT     H269231   0.860   4.994   1.110
22997WAT      O69232   3.213   0.161   8.810
22997WAT     H169233   3.115   0.166   8.830
22997WAT     H269234   3.227   0.145   8.713
22998WAT      O69235   1.375   4.466   0.129
22998WAT     H169236   1.333   4.405   0.195
22998WAT     H269237   1.310   4.538   0.104
22999WAT      O69238   2.383   0.926   3.749
22999WAT     H169239   2.319   0.988   3.704
22999WAT     H269240   2.336   0.839   3.769
23000WAT      O69241   2.161   4.722   0.602
23000WAT     H169242   2.078   4.777   0.587
23000WAT     H269243   2.156   4.638   0.548
23001WAT      O69244   8.007   2.661   9.137
23001WAT     H169245   7.923   2.691   9.183
23001WAT     H269246   8.044   2.581   9.184
23002WAT      O69247   5.396   1.174   6.250
23002WAT     H169248   5.369   1.251   6.191
23002WAT     H269249   5.342   1.093   6.226
23003WAT      O69250   3.421   7.328   9.081
23003WAT     H169251   3.430   7.273   9.164
23003WAT     H269252   3.324   7.342   9.060
23004WAT      O69253   0.861   3.904   5.248
23004WAT     H169254   0.902   3.960   5.320
23004WAT     H269255   0.902   3.928   5.160
23005WAT      O69256   3.777   5.259   5.821
23005WAT     H169257   3.874   5.247   5.838
23005WAT     H269258   3.733   5.169   5.815
23006WAT      O69259   0.192   4.816   6.153
23006WAT     H169260   0.190   4.873   6.071
23006WAT     H269261   0.126   4.853   6.220
23007WAT      O69262   0.275   6.304   1.197
23007WAT     H169263   0.336   6.306   1.276
23007WAT     H269264   0.215   6.224   1.204
23008WAT      O69265   8.141   5.668   7.566
23008WAT     H169266   8.142   5.716   7.653
23008WAT     H269267   8.152   5.734   7.491
23009WAT      O69268   6.822   0.651   3.122
23009WAT     H169269   6.729   0.631   3.091
23009WAT     H269270   6.823   0.739   3.170
23010WAT      O69271   3.559   1.859   4.741
23010WAT     H169272   3.605   1.853   4.830
23010WAT     H269273   3.605   1.800   4.675
23011WAT      O69274   2.929   8.827   7.184
23011WAT     H169275   3.013   8.881   7.193
23011WAT     H269276   2.855   8.874   7.232
23012WAT      O69277   2.177   5.611   1.882
23012WAT     H169278   2.106   5.681   1.874
23012WAT     H269279   2.230   5.607   1.797
23013WAT      O69280   8.246   9.453   7.691
23013WAT     H169281   8.343   9.446   7.668
23013WAT     H269282   8.218   9.549   7.685
23014WAT      O69283   3.340   5.703   5.580
23014WAT     H169284   3.308   5.721   5.487
23014WAT     H269285   3.262   5.705   5.643
23015WAT      O69286   5.830   7.633   9.206
23015WAT     H169287   5.805   7.603   9.298
23015WAT     H269288   5.847   7.553   9.149
23016WAT      O69289   6.708   6.178   3.921
23016WAT     H169290   6.729   6.274   3.901
23016WAT     H269291   6.767   6.146   3.995
23017WAT      O69292   8.051   5.901   1.155
23017WAT     H169293   8.027   5.833   1.086
23017WAT     H269294   8.139   5.943   1.132
23018WAT      O69295   6.442   7.393   7.538
23018WAT     H169296   6.535   7.373   7.508
23018WAT     H269297   6.394   7.442   7.465
23019WAT      O69298   8.645   6.488   9.009
23019WAT     H169299   8.712   6.509   8.938
23019WAT     H269300   8.682   6.513   9.098
23020WAT      O69301   0.756   3.532   3.476
23020WAT     H169302   0.845   3.554   3.514
23020WAT     H269303   0.720   3.611   3.426
23021WAT      O69304   2.433   3.036   1.313
23021WAT     H169305   2.532   3.033   1.329
23021WAT     H269306   2.414   3.098   1.237
23022WAT      O69307   3.495   2.341   7.649
23022WAT     H169308   3.549   2.396   7.712
23022WAT     H269309   3.550   2.319   7.569
23023WAT      O69310   5.810   2.148   8.220
23023WAT     H169311   5.904   2.177   8.209
23023WAT     H269312   5.799   2.054   8.186
23024WAT      O69313   6.254   6.304   0.923
23024WAT     H169314   6.167   6.354   0.929
23024WAT     H269315   6.304   6.333   0.841
23025WAT      O69316   6.903   9.533   1.936
23025WAT     H169317   6.879   9.464   2.005
23025WAT     H269318   6.928   9.618   1.982
23026WAT      O69319   1.417   8.008   2.328
23026WAT     H169320   1.455   7.940   2.264
23026WAT     H269321   1.492   8.061   2.368
23027WAT      O69322   4.597   9.674   5.031
23027WAT     H169323   4.682   9.714   4.998
23027WAT     H269324   4.606   9.650   5.128
23028WAT      O69325   5.828   3.524   8.945
23028WAT     H169326   5.835   3.529   8.845
23028WAT     H269327   5.797   3.433   8.972
23029WAT      O69328   5.239   8.970   6.044
23029WAT     H169329   5.146   8.985   6.079
23029WAT     H269330   5.304   9.020   6.100
23030WAT      O69331   7.030   3.053   1.373
23030WAT     H169332   7.077   2.978   1.326
23030WAT     H269333   6.982   3.017   1.453
23031WAT      O69334   1.899   2.478   9.761
23031WAT     H169335   1.822   2.414   9.768
23031WAT     H269336   1.974   2.434   9.712
23032WAT      O69337   4.412   3.047   6.507
23032WAT     H169338   4.434   2.950   6.494
23032WAT     H269339   4.494   3.102   6.493
23033WAT      O69340   6.748   7.406   6.476
23033WAT     H169341   6.841   7.439   6.460
23033WAT     H269342   6.687   7.443   6.406
23034WAT      O69343   2.712   4.240   1.582
23034WAT     H169344   2.615   4.214   1.576
23034WAT     H269345   2.724   4.303   1.658
23035WAT      O69346   2.225   3.997   1.279
23035WAT     H169347   2.230   4.064   1.205
23035WAT     H269348   2.268   4.034   1.361
23036WAT      O69349   2.699   4.073   1.048
23036WAT     H169350   2.613   4.022   1.052
23036WAT     H269351   2.748   4.052   0.964
23037WAT      O69352   5.161   2.621   6.976
23037WAT     H169353   5.067   2.588   6.974
23037WAT     H269354   5.224   2.544   6.969
23038WAT      O69355   9.723   9.535   5.563
23038WAT     H169356   9.708   9.631   5.539
23038WAT     H269357   9.781   9.529   5.644
23039WAT      O69358   1.534   8.579   9.384
23039WAT     H169359   1.506   8.626   9.300
23039WAT     H269360   1.488   8.490   9.388
23040WAT      O69361   5.972   6.033   3.554
23040WAT     H169362   6.028   6.090   3.614
23040WAT     H269363   5.893   5.998   3.605
23041WAT      O69364   8.284   3.229   3.461
23041WAT     H169365   8.214   3.164   3.490
23041WAT     H269366   8.254   3.322   3.483
23042WAT      O69367   2.662   6.067   5.243
23042WAT     H169368   2.743   6.123   5.262
23042WAT     H269369   2.667   6.032   5.149
23043WAT      O69370   3.204   0.918   8.182
23043WAT     H169371   3.276   0.853   8.157
23043WAT     H269372   3.244   1.010   8.190
23044WAT      O69373   6.675   4.098   0.515
23044WAT     H169374   6.635   4.014   0.477
23044WAT     H269375   6.631   4.178   0.474
23045WAT      O69376   6.921   1.993   8.899
23045WAT     H169377   6.849   2.017   8.963
23045WAT     H269378   7.009   2.024   8.936
23046WAT      O69379   2.984   4.489   0.446
23046WAT     H169380   2.984   4.396   0.484
23046WAT     H269381   2.890   4.522   0.440
23047WAT      O69382   3.873   1.280   9.201
23047WAT     H169383   3.941   1.277   9.274
23047WAT     H269384   3.918   1.298   9.114
23048WAT      O69385   4.946   6.455   1.740
23048WAT     H169386   4.881   6.436   1.666
23048WAT     H269387   5.036   6.417   1.716
23049WAT      O69388   1.893   9.641   1.148
23049WAT     H169389   1.820   9.709   1.153
23049WAT     H269390   1.853   9.551   1.131
23050WAT      O69391   2.964   0.130   5.898
23050WAT     H169392   3.029   0.076   5.952
23050WAT     H269393   2.942   0.081   5.814
23051WAT      O69394   9.026   0.702   6.984
23051WAT     H169395   9.115   0.727   7.023
23051WAT     H269396   9.039   0.648   6.901
23052WAT      O69397   2.301   8.227   3.306
23052WAT     H169398   2.295   8.297   3.377
23052WAT     H269399   2.209   8.202   3.276
23053WAT      O69400   7.043   6.486   6.802
23053WAT     H169401   6.955   6.533   6.814
23053WAT     H269402   7.029   6.388   6.812
23054WAT      O69403   7.186   0.844   4.711
23054WAT     H169404   7.235   0.923   4.749
23054WAT     H269405   7.168   0.777   4.783
23055WAT      O69406   2.754   7.375   5.769
23055WAT     H169407   2.821   7.428   5.821
23055WAT     H269408   2.663   7.415   5.783
23056WAT      O69409   3.628   5.044   3.589
23056WAT     H169410   3.577   5.130   3.585
23056WAT     H269411   3.624   5.007   3.681
23057WAT      O69412   2.483   3.937   1.822
23057WAT     H169413   2.414   3.932   1.894
23057WAT     H269414   2.538   4.019   1.834
23058WAT      O69415   8.573   0.238   7.636
23058WAT     H169416   8.580   0.255   7.537
23058WAT     H269417   8.665   0.244   7.676
23059WAT      O69418   2.452   2.557   6.291
23059WAT     H169419   2.396   2.636   6.314
23059WAT     H269420   2.520   2.583   6.223
23060WAT      O69421   4.668   2.702   6.278
23060WAT     H169422   4.692   2.799   6.286
23060WAT     H269423   4.738   2.656   6.224
23061WAT      O69424   6.253   7.305   0.433
23061WAT     H169425   6.220   7.233   0.494
23061WAT     H269426   6.343   7.336   0.464
23062WAT      O69427   1.284   6.307   2.191
23062WAT     H169428   1.340   6.383   2.226
23062WAT     H269429   1.344   6.236   2.155
23063WAT      O69430   7.646   2.547   5.886
23063WAT     H169431   7.696   2.550   5.973
23063WAT     H269432   7.549   2.535   5.904
23064WAT      O69433   4.524   9.169   0.562
23064WAT     H169434   4.431   9.172   0.526
23064WAT     H269435   4.531   9.096   0.630
23065WAT      O69436   1.138   5.723   9.659
23065WAT     H169437   1.051   5.723   9.708
23065WAT     H269438   1.121   5.730   9.561
23066WAT      O69439   2.220   2.921   3.047
23066WAT     H169440   2.168   2.888   3.125
23066WAT     H269441   2.176   3.003   3.010
23067WAT      O69442   9.595   0.697   3.935
23067WAT     H169443   9.527   0.661   3.871
23067WAT     H269444   9.641   0.621   3.981
23068WAT      O69445   7.277   9.611   1.978
23068WAT     H169446   7.335   9.685   1.944
23068WAT     H269447   7.295   9.597   2.076
23069WAT      O69448   5.140   9.103   5.077
23069WAT     H169449   5.150   9.087   4.979
23069WAT     H269450   5.051   9.146   5.095
23070WAT      O69451   6.246   9.669   3.419
23070WAT     H169452   6.226   9.703   3.327
23070WAT     H269453   6.207   9.731   3.487
23071WAT      O69454   9.019   1.647   5.908
23071WAT     H169455   8.958   1.583   5.956
23071WAT     H269456   8.982   1.740   5.916
23072WAT      O69457   7.437   0.981   7.487
23072WAT     H169458   7.473   1.046   7.420
23072WAT     H269459   7.475   1.001   7.577
23073WAT      O69460   9.721   5.827   5.774
23073WAT     H169461   9.814   5.802   5.800
23073WAT     H269462   9.704   5.797   5.680
23074WAT      O69463   3.162   1.567   6.754
23074WAT     H169464   3.159   1.663   6.783
23074WAT     H269465   3.225   1.516   6.813
23075WAT      O69466   4.028   1.978   5.260
23075WAT     H169467   4.029   2.030   5.175
23075WAT     H269468   4.121   1.945   5.279
23076WAT      O69469   8.450   1.658   9.101
23076WAT     H169470   8.391   1.580   9.120
23076WAT     H269471   8.522   1.663   9.170
23077WAT      O69472   8.407   1.770   1.421
23077WAT     H169473   8.368   1.837   1.358
23077WAT     H269474   8.486   1.809   1.467
23078WAT      O69475   7.451   2.701   1.598
23078WAT     H169476   7.540   2.695   1.643
23078WAT     H269477   7.379   2.711   1.668
23079WAT      O69478   7.497   7.582   4.740
23079WAT     H169479   7.499   7.555   4.836
23079WAT     H269480   7.419   7.643   4.724
23080WAT      O69481   2.346   6.884   6.420
23080WAT     H169482   2.332   6.968   6.368
23080WAT     H269483   2.264   6.864   6.474
23081WAT      O69484   5.512   0.884   2.491
23081WAT     H169485   5.459   0.834   2.423
23081WAT     H269486   5.590   0.928   2.448
23082WAT      O69487   8.215   3.704   4.212
23082WAT     H169488   8.247   3.627   4.156
23082WAT     H269489   8.174   3.773   4.152
23083WAT      O69490   1.811   8.895   9.389
23083WAT     H169491   1.766   8.870   9.475
23083WAT     H269492   1.747   8.883   9.313
23084WAT      O69493   1.633   8.598   1.590
23084WAT     H169494   1.696   8.584   1.666
23084WAT     H269495   1.553   8.539   1.603
23085WAT      O69496   5.709   1.316   0.561
23085WAT     H169497   5.688   1.364   0.647
23085WAT     H269498   5.634   1.254   0.539
23086WAT      O69499   2.514   1.359   8.263
23086WAT     H169500   2.572   1.417   8.319
23086WAT     H269501   2.456   1.302   8.322
23087WAT      O69502   7.682   8.267   6.760
23087WAT     H169503   7.598   8.229   6.721
23087WAT     H269504   7.681   8.367   6.752
23088WAT      O69505   1.708   6.739   5.332
23088WAT     H169506   1.663   6.787   5.407
23088WAT     H269507   1.796   6.782   5.313
23089WAT      O69508   3.826   2.831   5.750
23089WAT     H169509   3.727   2.837   5.754
23089WAT     H269510   3.854   2.783   5.667
23090WAT      O69511   9.407   8.811   2.467
23090WAT     H169512   9.485   8.861   2.503
23090WAT     H269513   9.327   8.825   2.526
23091WAT      O69514   4.408   0.195   7.779
23091WAT     H169515   4.342   0.191   7.853
23091WAT     H269516   4.361   0.193   7.691
23092WAT      O69517   8.776   5.328   7.784
23092WAT     H169518   8.829   5.251   7.821
23092WAT     H269519   8.742   5.304   7.693
23093WAT      O69520   6.548   4.311   6.110
23093WAT     H169521   6.524   4.341   6.018
23093WAT     H269522   6.563   4.392   6.168
23094WAT      O69523   8.605   7.640   3.236
23094WAT     H169524   8.533   7.587   3.190
23094WAT     H269525   8.691   7.589   3.235
23095WAT      O69526   3.862   5.193   0.172
23095WAT     H169527   3.892   5.288   0.173
23095WAT     H269528   3.778   5.185   0.118
23096WAT      O69529   7.298   4.976   8.467
23096WAT     H169530   7.304   5.069   8.433
23096WAT     H269531   7.289   4.978   8.567
23097WAT      O69532   5.013   3.866   3.813
23097WAT     H169533   5.042   3.948   3.862
23097WAT     H269534   4.916   3.852   3.827
23098WAT      O69535   7.069   0.799   8.757
23098WAT     H169536   6.980   0.754   8.756
23098WAT     H269537   7.141   0.733   8.779
23099WAT      O69538   8.197   8.407   5.833
23099WAT     H169539   8.267   8.412   5.904
23099WAT     H269540   8.118   8.461   5.860
23100WAT      O69541   8.531   9.378   6.801
23100WAT     H169542   8.618   9.352   6.758
23100WAT     H269543   8.472   9.297   6.809
23101WAT      O69544   7.737   4.270   6.593
23101WAT     H169545   7.643   4.272   6.627
23101WAT     H269546   7.773   4.363   6.586
23102WAT      O69547   2.659   6.920   9.098
23102WAT     H169548   2.725   6.853   9.062
23102WAT     H269549   2.572   6.875   9.115
23103WAT      O69550   5.602   5.133   1.147
23103WAT     H169551   5.620   5.067   1.074
23103WAT     H269552   5.571   5.084   1.229
23104WAT      O69553   4.566   1.443   5.053
23104WAT     H169554   4.524   1.432   5.143
23104WAT     H269555   4.496   1.436   4.982
23105WAT      O69556   0.515   0.784   8.054
23105WAT     H169557   0.569   0.771   7.971
23105WAT     H269558   0.419   0.766   8.034
23106WAT      O69559   5.986   7.235   1.270
23106WAT     H169560   5.975   7.238   1.170
23106WAT     H269561   6.048   7.161   1.295
23107WAT      O69562   6.769   4.752   0.293
23107WAT     H169563   6.844   4.807   0.328
23107WAT     H269564   6.741   4.787   0.203
23108WAT      O69565   7.111   1.171   9.148
23108WAT     H169566   7.060   1.173   9.062
23108WAT     H269567   7.173   1.093   9.148
23109WAT      O69568   7.076   0.884   9.540
23109WAT     H169569   7.006   0.821   9.572
23109WAT     H269570   7.033   0.963   9.496
23110WAT      O69571   8.797   8.313   0.191
23110WAT     H169572   8.860   8.354   0.257
23110WAT     H269573   8.716   8.371   0.181
23111WAT      O69574   0.532   3.861   9.845
23111WAT     H169575   0.468   3.884   9.918
23111WAT     H269576   0.585   3.780   9.871
23112WAT      O69577   7.925   0.844   1.581
23112WAT     H169578   7.936   0.928   1.528
23112WAT     H269579   8.013   0.818   1.621
23113WAT      O69580   4.111   8.284   5.299
23113WAT     H169581   4.199   8.289   5.252
23113WAT     H269582   4.039   8.262   5.232
23114WAT      O69583   6.916   0.350   6.921
23114WAT     H169584   6.996   0.296   6.895
23114WAT     H269585   6.838   0.323   6.865
23115WAT      O69586   2.274   1.899   6.206
23115WAT     H169587   2.297   1.992   6.235
23115WAT     H269588   2.190   1.901   6.152
23116WAT      O69589   7.820   2.222   0.350
23116WAT     H169590   7.726   2.230   0.317
23116WAT     H269591   7.854   2.130   0.333
23117WAT      O69592   2.920   7.620   6.527
23117WAT     H169593   2.984   7.576   6.463
23117WAT     H269594   2.831   7.574   6.521
23118WAT      O69595   2.228   5.849   9.731
23118WAT     H169596   2.198   5.790   9.807
23118WAT     H269597   2.290   5.919   9.765
23119WAT      O69598   4.874   0.309   0.916
23119WAT     H169599   4.777   0.321   0.896
23119WAT     H269600   4.921   0.397   0.906
23120WAT      O69601   4.961   3.212   8.324
23120WAT     H169602   4.927   3.122   8.353
23120WAT     H269603   4.903   3.247   8.251
23121WAT      O69604   8.335   1.016   4.665
23121WAT     H169605   8.336   1.074   4.746
23121WAT     H269606   8.427   0.980   4.648
23122WAT      O69607   2.343   7.052   2.965
23122WAT     H169608   2.389   7.138   2.943
23122WAT     H269609   2.412   6.979   2.974
23123WAT      O69610   5.559   1.085   2.938
23123WAT     H169611   5.576   1.072   2.841
23123WAT     H269612   5.552   0.996   2.983
23124WAT      O69613   7.756   1.781   1.428
23124WAT     H169614   7.722   1.688   1.439
23124WAT     H269615   7.844   1.780   1.380
23125WAT      O69616   9.578   5.695   5.976
23125WAT     H169617   9.482   5.720   5.965
23125WAT     H269618   9.633   5.741   5.907
23126WAT      O69619   7.198   4.075   0.875
23126WAT     H169620   7.160   4.070   0.968
23126WAT     H269621   7.124   4.060   0.809
23127WAT      O69622   5.262   5.789   6.513
23127WAT     H169623   5.284   5.732   6.592
23127WAT     H269624   5.179   5.842   6.532
23128WAT      O69625   7.874   2.390   5.821
23128WAT     H169626   7.829   2.479   5.827
23128WAT     H269627   7.813   2.319   5.854
23129WAT      O69628   6.310   3.704   2.168
23129WAT     H169629   6.319   3.799   2.137
23129WAT     H269630   6.213   3.683   2.181
23130WAT      O69631   9.721   9.068   4.157
23130WAT     H169632   9.711   9.058   4.057
23130WAT     H269633   9.695   8.982   4.201
23131WAT      O69634   5.882   4.876   5.931
23131WAT     H169635   5.828   4.792   5.931
23131WAT     H269636   5.872   4.922   6.019
23132WAT      O69637   6.122   2.859   9.001
23132WAT     H169638   6.177   2.939   9.026
23132WAT     H269639   6.174   2.776   9.015
23133WAT      O69640   5.026   9.477   2.125
23133WAT     H169641   5.110   9.487   2.179
23133WAT     H269642   5.036   9.526   2.038
23134WAT      O69643   1.247   6.575   4.265
23134WAT     H169644   1.315   6.505   4.284
23134WAT     H269645   1.284   6.641   4.200
23135WAT      O69646   3.400   9.416   2.785
23135WAT     H169647   3.320   9.358   2.798
23135WAT     H269648   3.376   9.493   2.726
23136WAT      O69649   7.208   5.748   1.052
23136WAT     H169650   7.150   5.826   1.029
23136WAT     H269651   7.164   5.694   1.124
23137WAT      O69652   0.150   4.972   4.456
23137WAT     H169653   0.159   5.022   4.541
23137WAT     H269654   0.055   4.974   4.425
23138WAT      O69655   5.292   4.180   6.727
23138WAT     H169656   5.331   4.108   6.669
23138WAT     H269657   5.302   4.155   6.823
23139WAT      O69658   2.088   4.110   8.397
23139WAT     H169659   2.012   4.049   8.374
23139WAT     H269660   2.174   4.062   8.383
23140WAT      O69661   0.933   4.374   8.392
23140WAT     H169662   0.901   4.321   8.313
23140WAT     H269663   0.981   4.313   8.456
23141WAT      O69664   1.135   1.265   2.992
23141WAT     H169665   1.054   1.209   2.975
23141WAT     H269666   1.210   1.207   3.024
23142WAT      O69667   2.124   8.756   8.772
23142WAT     H169668   2.066   8.814   8.829
23142WAT     H269669   2.174   8.812   8.707
23143WAT      O69670   7.851   3.644   0.750
23143WAT     H169671   7.938   3.613   0.711
23143WAT     H269672   7.797   3.564   0.777
23144WAT      O69673   0.533   2.813   7.886
23144WAT     H169674   0.558   2.841   7.794
23144WAT     H269675   0.456   2.868   7.918
23145WAT      O69676   6.162   6.487   7.302
23145WAT     H169677   6.106   6.554   7.253
23145WAT     H269678   6.190   6.414   7.239
23146WAT      O69679   0.475   1.629   1.744
23146WAT     H169680   0.489   1.649   1.841
23146WAT     H269681   0.527   1.546   1.720
23147WAT      O69682   3.962   9.756   6.177
23147WAT     H169683   4.047   9.752   6.126
23147WAT     H269684   3.925   9.849   6.173
23148WAT      O69685   0.365   4.353   0.836
23148WAT     H169686   0.355   4.265   0.882
23148WAT     H269687   0.461   4.378   0.831
23149WAT      O69688   2.761   3.713   4.831
23149WAT     H169689   2.674   3.696   4.785
23149WAT     H269690   2.794   3.629   4.873
23150WAT      O69691   2.640   3.218   7.922
23150WAT     H169692   2.707   3.233   7.994
23150WAT     H269693   2.667   3.268   7.840
23151WAT      O69694   3.565   1.746   6.975
23151WAT     H169695   3.547   1.738   6.877
23151WAT     H269696   3.482   1.722   7.026
23152WAT      O69697   7.430   8.526   6.431
23152WAT     H169698   7.478   8.581   6.499
23152WAT     H269699   7.444   8.429   6.450
23153WAT      O69700   6.108   1.147   6.975
23153WAT     H169701   6.026   1.132   7.030
23153WAT     H269702   6.189   1.134   7.031
23154WAT      O69703   7.617   5.661   5.257
23154WAT     H169704   7.660   5.624   5.339
23154WAT     H269705   7.593   5.586   5.195
23155WAT      O69706   1.821   7.837   3.744
23155WAT     H169707   1.845   7.866   3.837
23155WAT     H269708   1.726   7.860   3.726
23156WAT      O69709   3.688   7.041   3.793
23156WAT     H169710   3.635   6.984   3.857
23156WAT     H269711   3.639   7.126   3.776
23157WAT      O69712   7.768   0.804   4.388
23157WAT     H169713   7.725   0.763   4.307
23157WAT     H269714   7.819   0.733   4.437
23158WAT      O69715   3.462   3.710   0.850
23158WAT     H169716   3.449   3.620   0.893
23158WAT     H269717   3.555   3.717   0.815
23159WAT      O69718   7.414   4.734   7.620
23159WAT     H169719   7.414   4.731   7.720
23159WAT     H269720   7.500   4.773   7.588
23160WAT      O69721   4.282   5.768   8.752
23160WAT     H169722   4.349   5.840   8.734
23160WAT     H269723   4.206   5.777   8.689
23161WAT      O69724   0.472   0.738   0.042
23161WAT     H169725   0.478   0.834   0.070
23161WAT     H269726   0.418   0.687   0.110
23162WAT      O69727   1.077   9.282   1.156
23162WAT     H169728   1.171   9.267   1.188
23162WAT     H269729   1.014   9.230   1.214
23163WAT      O69730   3.428   0.214   3.877
23163WAT     H169731   3.507   0.274   3.888
23163WAT     H269732   3.457   0.119   3.874
23164WAT      O69733   3.468   7.628   8.993
23164WAT     H169734   3.467   7.529   8.987
23164WAT     H269735   3.537   7.657   9.059
23165WAT      O69736   6.506   9.491   7.798
23165WAT     H169737   6.528   9.431   7.722
23165WAT     H269738   6.448   9.442   7.863
23166WAT      O69739   8.005   9.585   8.269
23166WAT     H169740   8.098   9.549   8.275
23166WAT     H269741   7.961   9.550   8.187
23167WAT      O69742   8.538   2.479   4.328
23167WAT     H169743   8.491   2.396   4.299
23167WAT     H269744   8.635   2.472   4.305
23168WAT      O69745   9.681   8.236   3.852
23168WAT     H169746   9.766   8.287   3.870
23168WAT     H269747   9.616   8.295   3.805
23169WAT      O69748   6.179   4.068   5.357
23169WAT     H169749   6.155   4.133   5.285
23169WAT     H269750   6.143   4.100   5.445
23170WAT      O69751   2.898   6.232   0.131
23170WAT     H169752   2.960   6.252   0.055
23170WAT     H269753   2.837   6.157   0.105
23171WAT      O69754   3.677   4.741   9.571
23171WAT     H169755   3.681   4.773   9.477
23171WAT     H269756   3.668   4.819   9.633
23172WAT      O69757   2.545   0.813   7.610
23172WAT     H169758   2.467   0.863   7.649
23172WAT     H269759   2.629   0.842   7.656
23173WAT      O69760   7.217   0.523   3.781
23173WAT     H169761   7.143   0.567   3.833
23173WAT     H269762   7.188   0.434   3.749
23174WAT      O69763   4.019   2.162   5.038
23174WAT     H169764   4.008   2.142   4.941
23174WAT     H269765   4.082   2.240   5.048
23175WAT      O69766   9.176   8.800   9.359
23175WAT     H169767   9.102   8.757   9.307
23175WAT     H269768   9.244   8.836   9.296
23176WAT      O69769   3.187   2.951   7.457
23176WAT     H169770   3.174   3.036   7.405
23176WAT     H269771   3.274   2.955   7.506
23177WAT      O69772   6.127   8.535   8.072
23177WAT     H169773   6.115   8.534   8.172
23177WAT     H269774   6.078   8.458   8.032
23178WAT      O69775   1.545   1.505   0.959
23178WAT     H169776   1.491   1.581   0.924
23178WAT     H269777   1.609   1.539   1.029
23179WAT      O69778   8.044   9.670   0.598
23179WAT     H169779   8.077   9.753   0.553
23179WAT     H269780   8.053   9.680   0.697
23180WAT      O69781   1.308   8.280   9.177
23180WAT     H169782   1.374   8.208   9.197
23180WAT     H269783   1.251   8.253   9.099
23181WAT      O69784   0.275   6.881   5.922
23181WAT     H169785   0.369   6.857   5.898
23181WAT     H269786   0.213   6.814   5.883
23182WAT      O69787   2.607   1.159   8.821
23182WAT     H169788   2.616   1.245   8.770
23182WAT     H269789   2.574   1.177   8.913
23183WAT      O69790   6.206   3.884   9.312
23183WAT     H169791   6.159   3.939   9.381
23183WAT     H269792   6.256   3.810   9.356
23184WAT      O69793   8.530   8.075   4.133
23184WAT     H169794   8.530   8.160   4.186
23184WAT     H269795   8.532   8.097   4.036
23185WAT      O69796   6.592   4.183   8.915
23185WAT     H169797   6.525   4.113   8.891
23185WAT     H269798   6.559   4.236   8.993
23186WAT      O69799   1.884   4.009   1.358
23186WAT     H169800   1.890   3.966   1.268
23186WAT     H269801   1.976   4.021   1.395
23187WAT      O69802   9.389   2.115   9.070
23187WAT     H169803   9.365   2.211   9.083
23187WAT     H269804   9.395   2.069   9.159
23188WAT      O69805   0.525   7.033   7.524
23188WAT     H169806   0.554   6.991   7.438
23188WAT     H269807   0.440   6.991   7.555
23189WAT      O69808   6.551   6.947   8.846
23189WAT     H169809   6.607   7.028   8.866
23189WAT     H269810   6.610   6.867   8.839
23190WAT      O69811   6.764   7.460   3.350
23190WAT     H169812   6.798   7.519   3.277
23190WAT     H269813   6.687   7.406   3.317
23191WAT      O69814   7.838   5.088   2.943
23191WAT     H169815   7.874   5.099   3.036
23191WAT     H269816   7.767   5.017   2.943
23192WAT      O69817   1.667   8.337   2.222
23192WAT     H169818   1.646   8.435   2.223
23192WAT     H269819   1.622   8.292   2.298
23193WAT      O69820   7.918   8.598   7.395
23193WAT     H169821   7.898   8.559   7.486
23193WAT     H269822   7.878   8.539   7.325
23194WAT      O69823   7.352   1.648   9.652
23194WAT     H169824   7.435   1.592   9.641
23194WAT     H269825   7.375   1.744   9.636
23195WAT      O69826   7.848   3.224   7.897
23195WAT     H169827   7.809   3.284   7.827
23195WAT     H269828   7.894   3.280   7.966
23196WAT      O69829   3.474   9.424   2.432
23196WAT     H169830   3.462   9.374   2.346
23196WAT     H269831   3.566   9.464   2.434
23197WAT      O69832   7.724   4.168   9.436
23197WAT     H169833   7.732   4.127   9.346
23197WAT     H269834   7.796   4.237   9.449
23198WAT      O69835   9.645   6.232   8.850
23198WAT     H169836   9.698   6.271   8.924
23198WAT     H269837   9.580   6.165   8.887
23199WAT      O69838   8.629   2.441   1.683
23199WAT     H169839   8.689   2.485   1.617
23199WAT     H269840   8.535   2.440   1.649
23200WAT      O69841   5.420   2.154   6.993
23200WAT     H169842   5.453   2.073   7.040
23200WAT     H269843   5.479   2.175   6.915
23201WAT      O69844   6.847   0.191   1.083
23201WAT     H169845   6.919   0.131   1.047
23201WAT     H269846   6.878   0.286   1.078
23202WAT      O69847   2.831   7.575   5.954
23202WAT     H169848   2.925   7.550   5.976
23202WAT     H269849   2.819   7.674   5.967
23203WAT      O69850   2.366   2.105   0.085
23203WAT     H169851   2.274   2.078   0.115
23203WAT     H269852   2.368   2.204   0.071
23204WAT      O69853   0.758   2.549   9.584
23204WAT     H169854   0.800   2.461   9.609
23204WAT     H269855   0.782   2.618   9.652
23205WAT      O69856   1.786   7.961   2.290
23205WAT     H169857   1.839   7.969   2.205
23205WAT     H269858   1.737   8.046   2.307
23206WAT      O69859   4.861   2.077   9.404
23206WAT     H169860   4.825   2.045   9.316
23206WAT     H269861   4.954   2.112   9.390
23207WAT      O69862   4.981   5.387   8.594
23207WAT     H169863   4.910   5.393   8.524
23207WAT     H269864   5.005   5.292   8.610
23208WAT      O69865   3.568   6.629   2.407
23208WAT     H169866   3.584   6.531   2.421
23208WAT     H269867   3.647   6.670   2.362
23209WAT      O69868   4.749   8.890   7.339
23209WAT     H169869   4.663   8.839   7.327
23209WAT     H269870   4.781   8.881   7.433
23210WAT      O69871   6.741   7.775   6.027
23210WAT     H169872   6.676   7.701   6.046
23210WAT     H269873   6.761   7.778   5.929
23211WAT      O69874   4.421   0.242   3.654
23211WAT     H169875   4.360   0.317   3.678
23211WAT     H269876   4.497   0.277   3.599
23212WAT      O69877   0.135   0.295   2.751
23212WAT     H169878   0.116   0.369   2.687
23212WAT     H269879   0.062   0.291   2.820
23213WAT      O69880   6.557   1.116   3.707
23213WAT     H169881   6.498   1.153   3.779
23213WAT     H269882   6.555   1.177   3.628
23214WAT      O69883   0.103   9.634   2.145
23214WAT     H169884   0.050   9.570   2.089
23214WAT     H269885   0.092   9.611   2.242
23215WAT      O69886   9.284   3.373   5.014
23215WAT     H169887   9.215   3.352   5.083
23215WAT     H269888   9.375   3.371   5.056
23216WAT      O69889   4.102   8.893   8.119
23216WAT     H169890   4.150   8.958   8.059
23216WAT     H269891   4.119   8.918   8.214
23217WAT      O69892   6.470   3.347   5.168
23217WAT     H169893   6.411   3.276   5.128
23217WAT     H269894   6.560   3.343   5.125
23218WAT      O69895   5.508   0.734   0.885
23218WAT     H169896   5.589   0.758   0.939
23218WAT     H269897   5.435   0.799   0.905
23219WAT      O69898   9.143   6.434   2.852
23219WAT     H169899   9.098   6.520   2.878
23219WAT     H269900   9.076   6.374   2.809
23220WAT      O69901   0.557   6.371   6.477
23220WAT     H169902   0.467   6.416   6.474
23220WAT     H269903   0.628   6.437   6.456
23221WAT      O69904   4.133   6.176   5.530
23221WAT     H169905   4.056   6.178   5.466
23221WAT     H269906   4.178   6.265   5.530
23222WAT      O69907   9.376   0.014   1.993
23222WAT     H169908   9.409  -0.080   2.002
23222WAT     H269909   9.305   0.032   2.062
23223WAT      O69910   0.566   4.092   7.643
23223WAT     H169911   0.563   4.151   7.562
23223WAT     H269912   0.661   4.071   7.665
23224WAT      O69913   4.248   1.458   6.775
23224WAT     H169914   4.178   1.504   6.830
23224WAT     H269915   4.241   1.359   6.787
23225WAT      O69916   1.306   2.836   2.960
23225WAT     H169917   1.313   2.869   3.054
23225WAT     H269918   1.223   2.782   2.951
23226WAT      O69919   4.328   6.801   6.521
23226WAT     H169920   4.369   6.888   6.548
23226WAT     H269921   4.271   6.815   6.440
23227WAT      O69922   5.955   6.056   8.500
23227WAT     H169923   6.018   6.128   8.472
23227WAT     H269924   5.942   5.992   8.424
23228WAT      O69925   6.718   2.939   1.502
23228WAT     H169926   6.657   2.873   1.547
23228WAT     H269927   6.800   2.951   1.557
23229WAT      O69928   6.297   5.108   4.247
23229WAT     H169929   6.317   5.197   4.206
23229WAT     H269930   6.345   5.037   4.196
23230WAT      O69931   1.704   5.675   0.701
23230WAT     H169932   1.637   5.674   0.775
23230WAT     H269933   1.795   5.656   0.738
23231WAT      O69934   4.741   8.895   9.766
23231WAT     H169935   4.680   8.922   9.840
23231WAT     H269936   4.788   8.810   9.790
23232WAT      O69937   9.823   3.616   0.257
23232WAT     H169938   9.811   3.698   0.313
23232WAT     H269939   9.880   3.551   0.306
23233WAT      O69940   4.360   6.085   1.215
23233WAT     H169941   4.362   6.170   1.267
23233WAT     H269942   4.434   6.025   1.247
23234WAT      O69943   2.601   9.361   0.632
23234WAT     H169944   2.605   9.447   0.582
23234WAT     H269945   2.507   9.326   0.631
23235WAT      O69946   5.684   5.670   4.984
23235WAT     H169947   5.609   5.618   4.942
23235WAT     H269948   5.660   5.767   4.986
23236WAT      O69949   6.930   6.545   0.795
23236WAT     H169950   7.014   6.495   0.771
23236WAT     H269951   6.930   6.633   0.749
23237WAT      O69952   1.158   3.083   8.592
23237WAT     H169953   1.099   3.096   8.671
23237WAT     H269954   1.234   3.023   8.616
23238WAT      O69955   6.297   7.905   8.992
23238WAT     H169956   6.348   7.904   9.078
23238WAT     H269957   6.205   7.869   9.006
23239WAT      O69958   0.755   9.339   1.883
23239WAT     H169959   0.712   9.425   1.911
23239WAT     H269960   0.799   9.296   1.961
23240WAT      O69961   9.025   1.245   3.221
23240WAT     H169962   8.989   1.285   3.137
23240WAT     H269963   8.996   1.299   3.300
23241WAT      O69964   8.349   0.798   5.800
23241WAT     H169965   8.281   0.857   5.844
23241WAT     H269966   8.440   0.822   5.832
23242WAT      O69967   3.666   3.405   9.331
23242WAT     H169968   3.600   3.363   9.394
23242WAT     H269969   3.682   3.344   9.253
23243WAT      O69970   1.917   9.757   6.111
23243WAT     H169971   2.007   9.714   6.104
23243WAT     H269972   1.867   9.744   6.025
23244WAT      O69973   5.865   7.284   6.120
23244WAT     H169974   5.937   7.339   6.161
23244WAT     H269975   5.892   7.256   6.028
23245WAT      O69976   7.838   4.404   5.290
23245WAT     H169977   7.914   4.458   5.253
23245WAT     H269978   7.803   4.343   5.219
23246WAT      O69979   6.711   5.597   7.693
23246WAT     H169980   6.804   5.563   7.674
23246WAT     H269981   6.716   5.693   7.718
23247WAT      O69982   1.163   9.117   5.889
23247WAT     H169983   1.151   9.126   5.988
23247WAT     H269984   1.189   9.023   5.867
23248WAT      O69985   5.192   0.291   1.879
23248WAT     H169986   5.234   0.202   1.901
23248WAT     H269987   5.101   0.296   1.920
23249WAT      O69988   3.079   1.204   1.379
23249WAT     H169989   3.054   1.115   1.340
23249WAT     H269990   3.173   1.201   1.413
23250WAT      O69991   0.196   8.380   3.016
23250WAT     H169992   0.233   8.459   2.968
23250WAT     H269993   0.206   8.298   2.960
23251WAT      O69994   2.429   7.118   9.127
23251WAT     H169995   2.386   7.167   9.204
23251WAT     H269996   2.505   7.063   9.161
23252WAT      O69997   1.402   2.200   4.240
23252WAT     H169998   1.342   2.120   4.235
23252WAT     H269999   1.489   2.174   4.283
23253WAT      O70000   6.487   3.549   7.586
23253WAT     H170001   6.563   3.596   7.541
23253WAT     H270002   6.466   3.596   7.672
23254WAT      O70003   4.750   8.640   4.658
23254WAT     H170004   4.751   8.690   4.572
23254WAT     H270005   4.666   8.586   4.664
23255WAT      O70006   5.435   8.797   4.801
23255WAT     H170007   5.393   8.872   4.851
23255WAT     H270008   5.367   8.727   4.782
23256WAT      O70009   7.623   4.130   0.100
23256WAT     H170010   7.579   4.068   0.035
23256WAT     H270011   7.710   4.091   0.130
23257WAT      O70012   3.905   3.506   0.179
23257WAT     H170013   3.930   3.546   0.090
23257WAT     H270014   3.862   3.417   0.164
23258WAT      O70015   7.236   6.182   5.215
23258WAT     H170016   7.157   6.121   5.223
23258WAT     H270017   7.299   6.145   5.147
23259WAT      O70018   6.410   0.780   9.501
23259WAT     H170019   6.462   0.839   9.562
23259WAT     H270020   6.418   0.685   9.531
23260WAT      O70021   7.045   5.946   7.634
23260WAT     H170022   7.054   5.987   7.543
23260WAT     H270023   7.134   5.915   7.665
23261WAT      O70024   9.444   8.820   0.299
23261WAT     H170025   9.374   8.891   0.304
23261WAT     H270026   9.528   8.853   0.343
23262WAT      O70027   5.324   3.202   4.313
23262WAT     H170028   5.289   3.179   4.222
23262WAT     H270029   5.259   3.262   4.359
23263WAT      O70030   7.752   5.252   0.615
23263WAT     H170031   7.740   5.319   0.542
23263WAT     H270032   7.704   5.168   0.592
23264WAT      O70033   8.342   5.590   2.933
23264WAT     H170034   8.407   5.561   2.864
23264WAT     H270035   8.253   5.608   2.891
23265WAT      O70036   2.625   6.830   3.677
23265WAT     H170037   2.562   6.841   3.600
23265WAT     H270038   2.664   6.919   3.701
23266WAT      O70039   6.020   6.987   1.591
23266WAT     H170040   5.932   7.033   1.593
23266WAT     H270041   6.094   7.055   1.594
23267WAT      O70042   8.926   9.429   8.557
23267WAT     H170043   8.968   9.451   8.645
23267WAT     H270044   8.993   9.382   8.499
23268WAT      O70045   7.296   2.681   0.220
23268WAT     H170046   7.371   2.655   0.160
23268WAT     H270047   7.236   2.746   0.172
23269WAT      O70048   4.678   3.760   4.071
23269WAT     H170049   4.632   3.676   4.044
23269WAT     H270050   4.611   3.826   4.106
23270WAT      O70051   8.172   4.639   9.364
23270WAT     H170052   8.108   4.714   9.349
23270WAT     H270053   8.266   4.672   9.355
23271WAT      O70054   2.914   5.073   3.664
23271WAT     H170055   2.929   4.977   3.688
23271WAT     H270056   2.844   5.112   3.723
23272WAT      O70057   4.444   1.012   5.561
23272WAT     H170058   4.458   1.110   5.545
23272WAT     H270059   4.532   0.965   5.557
23273WAT      O70060   5.481   3.403   2.427
23273WAT     H170061   5.552   3.445   2.484
23273WAT     H270062   5.478   3.305   2.443
23274WAT      O70063   0.769   7.211   3.073
23274WAT     H170064   0.791   7.220   2.976
23274WAT     H270065   0.684   7.261   3.092
23275WAT      O70066   1.423   1.227   1.587
23275WAT     H170067   1.354   1.171   1.540
23275WAT     H270068   1.482   1.270   1.519
23276WAT      O70069   3.776   5.569   5.778
23276WAT     H170070   3.757   5.471   5.772
23276WAT     H270071   3.853   5.585   5.839
23277WAT      O70072   2.532   0.329   3.572
23277WAT     H170073   2.535   0.283   3.484
23277WAT     H270074   2.625   0.357   3.598
23278WAT      O70075   3.986   0.730   6.487
23278WAT     H170076   3.954   0.637   6.474
23278WAT     H270077   3.917   0.784   6.535
23279WAT      O70078   3.547   1.480   0.454
23279WAT     H170079   3.622   1.509   0.514
23279WAT     H270080   3.572   1.498   0.359
23280WAT      O70081   4.011   5.916   8.232
23280WAT     H170082   4.095   5.905   8.285
23280WAT     H270083   3.944   5.848   8.262
23281WAT      O70084   0.873   5.994   2.972
23281WAT     H170085   0.800   6.061   2.978
23281WAT     H270086   0.928   6.011   2.891
23282WAT      O70087   6.647   8.199   1.854
23282WAT     H170088   6.692   8.138   1.919
23282WAT     H270089   6.636   8.289   1.895
23283WAT      O70090   6.043   3.550   4.300
23283WAT     H170091   5.958   3.558   4.247
23283WAT     H270092   6.078   3.456   4.292
23284WAT      O70093   4.967   4.233   9.628
23284WAT     H170094   4.874   4.269   9.621
23284WAT     H270095   5.028   4.286   9.569
23285WAT      O70096   8.941   9.764   0.478
23285WAT     H170097   8.903   9.803   0.561
23285WAT     H270098   8.956   9.836   0.410
23286WAT      O70099   7.772   6.758   2.050
23286WAT     H170100   7.759   6.783   2.146
23286WAT     H270101   7.813   6.668   2.044
23287WAT      O70102   9.819   0.557   4.886
23287WAT     H170103   9.741   0.616   4.903
23287WAT     H270104   9.894   0.582   4.947
23288WAT      O70105   1.485   4.150   7.006
23288WAT     H170106   1.531   4.148   7.094
23288WAT     H270107   1.509   4.233   6.957
23289WAT      O70108   1.122   9.065   9.238
23289WAT     H170109   1.131   9.164   9.228
23289WAT     H270110   1.054   9.045   9.309
23290WAT      O70111   8.350   4.761   6.068
23290WAT     H170112   8.357   4.847   6.018
23290WAT     H270113   8.414   4.695   6.030
23291WAT      O70114   9.045   5.475   1.883
23291WAT     H170115   9.136   5.443   1.908
23291WAT     H270116   9.015   5.428   1.799
23292WAT      O70117   2.154   3.234   1.434
23292WAT     H170118   2.066   3.267   1.470
23292WAT     H270119   2.146   3.217   1.336
23293WAT      O70120   4.840   8.018   0.604
23293WAT     H170121   4.875   8.041   0.513
23293WAT     H270122   4.747   7.982   0.595
23294WAT      O70123   6.742   2.159   9.893
23294WAT     H170124   6.749   2.133   9.797
23294WAT     H270125   6.683   2.240   9.902
23295WAT      O70126   2.343   3.776   3.133
23295WAT     H170127   2.396   3.720   3.069
23295WAT     H270128   2.251   3.789   3.097
23296WAT      O70129   1.038   5.530   6.557
23296WAT     H170130   1.102   5.512   6.482
23296WAT     H270131   1.013   5.443   6.600
23297WAT      O70132   5.396   3.771   9.069
23297WAT     H170133   5.326   3.709   9.033
23297WAT     H270134   5.483   3.754   9.024
23298WAT      O70135   5.015   6.417   2.886
23298WAT     H170136   4.980   6.399   2.978
23298WAT     H270137   4.938   6.433   2.824
23299WAT      O70138   9.713   0.463   1.539
23299WAT     H170139   9.810   0.484   1.546
23299WAT     H270140   9.679   0.437   1.630
23300WAT      O70141   4.547   4.721   5.781
23300WAT     H170142   4.590   4.648   5.728
23300WAT     H270143   4.497   4.681   5.858
23301WAT      O70144   9.045   4.176   9.042
23301WAT     H170145   9.089   4.240   8.979
23301WAT     H270146   8.951   4.159   9.012
23302WAT      O70147   4.798   7.186   8.477
23302WAT     H170148   4.705   7.161   8.449
23302WAT     H270149   4.831   7.260   8.418
23303WAT      O70150   2.949   6.164   8.452
23303WAT     H170151   3.043   6.142   8.425
23303WAT     H270152   2.923   6.107   8.529
23304WAT      O70153   5.198   6.810   0.993
23304WAT     H170154   5.194   6.802   1.092
23304WAT     H270155   5.250   6.733   0.955
23305WAT      O70156   6.473   0.911   0.080
23305WAT     H170157   6.433   0.874   0.164
23305WAT     H270158   6.546   0.850   0.048
23306WAT      O70159   2.903   9.252   3.562
23306WAT     H170160   2.949   9.322   3.507
23306WAT     H270161   2.959   9.169   3.563
23307WAT      O70162   5.966   1.357   6.596
23307WAT     H170163   6.014   1.388   6.514
23307WAT     H270164   5.894   1.423   6.619
23308WAT      O70165   4.127   7.204   2.454
23308WAT     H170166   4.191   7.138   2.415
23308WAT     H270167   4.103   7.177   2.547
23309WAT      O70168   5.579   2.962   6.908
23309WAT     H170169   5.640   2.965   6.987
23309WAT     H270170   5.530   2.875   6.907
23310WAT      O70171   3.662   7.578   9.404
23310WAT     H170172   3.567   7.548   9.417
23310WAT     H270173   3.675   7.667   9.448
23311WAT      O70174   2.436   1.941   5.222
23311WAT     H170175   2.379   2.013   5.262
23311WAT     H270176   2.386   1.854   5.227
23312WAT      O70177   2.938   7.756   3.827
23312WAT     H170178   2.930   7.847   3.786
23312WAT     H270179   2.893   7.689   3.767
23313WAT      O70180   6.608   1.753   2.147
23313WAT     H170181   6.701   1.722   2.129
23313WAT     H270182   6.581   1.727   2.239
23314WAT      O70183   3.870   1.762   9.521
23314WAT     H170184   3.849   1.854   9.490
23314WAT     H270185   3.786   1.718   9.554
23315WAT      O70186   0.325   4.605   3.714
23315WAT     H170187   0.291   4.616   3.621
23315WAT     H270188   0.423   4.587   3.712
23316WAT      O70189   6.825   4.477   4.426
23316WAT     H170190   6.735   4.502   4.392
23316WAT     H270191   6.864   4.404   4.369
23317WAT      O70192   3.535   7.254   3.739
23317WAT     H170193   3.508   7.260   3.835
23317WAT     H270194   3.468   7.198   3.689
23318WAT      O70195   1.426   6.286   5.167
23318WAT     H170196   1.513   6.277   5.213
23318WAT     H270197   1.352   6.257   5.227
23319WAT      O70198   0.473   1.159   3.566
23319WAT     H170199   0.449   1.094   3.637
23319WAT     H270200   0.399   1.164   3.499
23320WAT      O70201   1.611   7.392   5.757
23320WAT     H170202   1.519   7.359   5.780
23320WAT     H270203   1.637   7.462   5.823
23321WAT      O70204   7.746   3.669   7.622
23321WAT     H170205   7.772   3.725   7.701
23321WAT     H270206   7.797   3.582   7.624
23322WAT      O70207   4.702   4.152   8.726
23322WAT     H170208   4.667   4.167   8.634
23322WAT     H270209   4.670   4.064   8.760
23323WAT      O70210   5.237   7.264   9.833
23323WAT     H170211   5.294   7.334   9.790
23323WAT     H270212   5.184   7.216   9.764
23324WAT      O70213   0.341   1.231   7.700
23324WAT     H170214   0.258   1.268   7.742
23324WAT     H270215   0.330   1.231   7.601
23325WAT      O70216   5.127   6.320   8.570
23325WAT     H170217   5.072   6.343   8.650
23325WAT     H270218   5.213   6.371   8.573
23326WAT      O70219   7.557   9.391   0.088
23326WAT     H170220   7.535   9.339   0.170
23326WAT     H270221   7.532   9.487   0.101
23327WAT      O70222   7.825   7.638   6.854
23327WAT     H170223   7.830   7.710   6.923
23327WAT     H270224   7.800   7.678   6.766
23328WAT      O70225   8.736   3.981   1.745
23328WAT     H170226   8.733   3.960   1.842
23328WAT     H270227   8.732   4.081   1.732
23329WAT      O70228   6.538   9.100   4.205
23329WAT     H170229   6.588   9.049   4.135
23329WAT     H270230   6.533   9.045   4.289
23330WAT      O70231   1.584   7.852   7.764
23330WAT     H170232   1.629   7.838   7.852
23330WAT     H270233   1.636   7.805   7.692
23331WAT      O70234   3.052   7.822   5.930
23331WAT     H170235   3.008   7.776   5.853
23331WAT     H270236   2.994   7.896   5.963
23332WAT      O70237   9.191   3.382   2.622
23332WAT     H170238   9.288   3.366   2.638
23332WAT     H270239   9.156   3.312   2.560
23333WAT      O70240   9.720   2.931   8.742
23333WAT     H170241   9.678   2.841   8.750
23333WAT     H270242   9.753   2.945   8.649
23334WAT      O70243   2.730   0.373   0.201
23334WAT     H170244   2.762   0.461   0.236
23334WAT     H270245   2.765   0.360   0.108
23335WAT      O70246   0.532   8.253   2.402
23335WAT     H170247   0.583   8.253   2.488
23335WAT     H270248   0.575   8.315   2.337
23336WAT      O70249   3.131   4.352   5.050
23336WAT     H170250   3.182   4.346   5.135
23336WAT     H270251   3.165   4.429   4.996
23337WAT      O70252   9.484   0.345   9.274
23337WAT     H170253   9.438   0.428   9.242
23337WAT     H270254   9.433   0.265   9.244
23338WAT      O70255   4.310   2.115   8.839
23338WAT     H170256   4.289   2.212   8.827
23338WAT     H270257   4.226   2.063   8.853
23339WAT      O70258   0.687   4.184   8.630
23339WAT     H170259   0.740   4.265   8.655
23339WAT     H270260   0.638   4.201   8.544
23340WAT      O70261   1.244   8.645   0.959
23340WAT     H170262   1.248   8.571   0.892
23340WAT     H270263   1.258   8.732   0.913
23341WAT      O70264   6.061   5.640   8.589
23341WAT     H170265   6.113   5.602   8.513
23341WAT     H270266   6.079   5.738   8.597
23342WAT      O70267   9.850   7.246   6.462
23342WAT     H170268   9.814   7.316   6.524
23342WAT     H270269   9.871   7.164   6.515
23343WAT      O70270   7.135   0.162   2.834
23343WAT     H170271   7.159   0.166   2.737
23343WAT     H270272   7.088   0.075   2.853
23344WAT      O70273   6.351   6.669   7.418
23344WAT     H170274   6.309   6.581   7.395
23344WAT     H270275   6.303   6.710   7.495
23345WAT      O70276   5.073   3.696   1.880
23345WAT     H170277   5.047   3.791   1.899
23345WAT     H270278   5.095   3.649   1.965
23346WAT      O70279   1.545   4.370   6.867
23346WAT     H170280   1.581   4.440   6.929
23346WAT     H270281   1.616   4.344   6.801
23347WAT      O70282   9.199   3.207   0.357
23347WAT     H170283   9.108   3.166   0.360
23347WAT     H270284   9.199   3.284   0.292
23348WAT      O70285   5.909   4.327   0.591
23348WAT     H170286   5.960   4.413   0.580
23348WAT     H270287   5.965   4.251   0.561
23349WAT      O70288   8.417   0.581   6.870
23349WAT     H170289   8.414   0.489   6.831
23349WAT     H270290   8.470   0.641   6.810
23350WAT      O70291   2.892   3.302   4.177
23350WAT     H170292   2.923   3.371   4.242
23350WAT     H270293   2.924   3.327   4.085
23351WAT      O70294   1.173   0.522   7.692
23351WAT     H170295   1.101   0.462   7.657
23351WAT     H270296   1.242   0.536   7.621
23352WAT      O70297   3.946   7.793   1.327
23352WAT     H170298   4.001   7.862   1.373
23352WAT     H270299   3.981   7.778   1.235
23353WAT      O70300   3.442   4.453   2.244
23353WAT     H170301   3.377   4.506   2.190
23353WAT     H270302   3.535   4.473   2.213
23354WAT      O70303   9.204   5.617   6.938
23354WAT     H170304   9.194   5.644   6.842
23354WAT     H270305   9.301   5.611   6.961
23355WAT      O70306   2.813   1.571   2.162
23355WAT     H170307   2.870   1.642   2.204
23355WAT     H270308   2.765   1.521   2.233
23356WAT      O70309   6.210   3.715   0.159
23356WAT     H170310   6.130   3.660   0.184
23356WAT     H270311   6.290   3.655   0.150
23357WAT      O70312   2.565   8.454   4.654
23357WAT     H170313   2.564   8.470   4.752
23357WAT     H270314   2.659   8.446   4.622
23358WAT      O70315   4.520   3.186   9.548
23358WAT     H170316   4.586   3.237   9.602
23358WAT     H270317   4.460   3.250   9.500
23359WAT      O70318   9.014   1.634   0.051
23359WAT     H170319   9.106   1.641   0.089
23359WAT     H270320   8.962   1.716   0.075
23360WAT      O70321   4.162   9.391   5.118
23360WAT     H170322   4.192   9.483   5.089
23360WAT     H270323   4.076   9.399   5.169
23361WAT      O70324   2.482   5.389   3.499
23361WAT     H170325   2.471   5.467   3.561
23361WAT     H270326   2.395   5.370   3.454
23362WAT      O70327   0.529   9.037   2.022
23362WAT     H170328   0.472   9.100   2.075
23362WAT     H270329   0.600   8.999   2.081
23363WAT      O70330   8.410   7.154   8.618
23363WAT     H170331   8.332   7.099   8.647
23363WAT     H270332   8.457   7.189   8.699
23364WAT      O70333   5.315   1.008   4.718
23364WAT     H170334   5.247   1.074   4.750
23364WAT     H270335   5.401   1.023   4.766
23365WAT      O70336   0.583   6.875   7.286
23365WAT     H170337   0.642   6.839   7.213
23365WAT     H270338   0.490   6.841   7.273
23366WAT      O70339   2.209   3.701   6.176
23366WAT     H170340   2.249   3.630   6.117
23366WAT     H270341   2.279   3.768   6.200
23367WAT      O70342   3.806   4.294   7.745
23367WAT     H170343   3.732   4.321   7.807
23367WAT     H270344   3.853   4.214   7.782
23368WAT      O70345   4.602   7.949   9.464
23368WAT     H170346   4.688   7.923   9.419
23368WAT     H270347   4.526   7.930   9.402
23369WAT      O70348   1.439   5.642   3.202
23369WAT     H170349   1.401   5.565   3.150
23369WAT     H270350   1.368   5.684   3.258
23370WAT      O70351   6.031   5.762   1.055
23370WAT     H170352   6.019   5.861   1.051
23370WAT     H270353   5.942   5.717   1.040
23371WAT      O70354   1.699   6.602   5.091
23371WAT     H170355   1.662   6.654   5.013
23371WAT     H270356   1.708   6.663   5.170
23372WAT      O70357   8.790   1.810   4.111
23372WAT     H170358   8.712   1.805   4.050
23372WAT     H270359   8.781   1.889   4.172
23373WAT      O70360   7.575   7.174   0.298
23373WAT     H170361   7.594   7.119   0.379
23373WAT     H270362   7.478   7.197   0.296
23374WAT      O70363   5.487   3.184   3.086
23374WAT     H170364   5.560   3.139   3.137
23374WAT     H270365   5.444   3.254   3.143
23375WAT      O70366   8.951   9.240   1.232
23375WAT     H170367   8.887   9.304   1.275
23375WAT     H270368   8.933   9.237   1.134
23376WAT      O70369   2.683   6.462   1.327
23376WAT     H170370   2.589   6.450   1.295
23376WAT     H270371   2.737   6.380   1.304
23377WAT      O70372   8.756   6.449   7.876
23377WAT     H170373   8.816   6.396   7.936
23377WAT     H270374   8.666   6.459   7.918
23378WAT      O70375   1.699   8.388   0.531
23378WAT     H170376   1.728   8.484   0.526
23378WAT     H270377   1.707   8.355   0.625
23379WAT      O70378   5.015   0.530   0.738
23379WAT     H170379   5.084   0.491   0.799
23379WAT     H270380   5.058   0.593   0.674
23380WAT      O70381   9.654   2.780   2.132
23380WAT     H170382   9.675   2.868   2.089
23380WAT     H270383   9.586   2.731   2.077
23381WAT      O70384   1.456   8.844   1.523
23381WAT     H170385   1.423   8.763   1.572
23381WAT     H270386   1.556   8.845   1.523
23382WAT      O70387   5.342   5.765   0.528
23382WAT     H170388   5.276   5.770   0.453
23382WAT     H270389   5.295   5.782   0.614
23383WAT      O70390   7.307   4.567   6.012
23383WAT     H170391   7.344   4.641   5.957
23383WAT     H270392   7.265   4.605   6.095
23384WAT      O70393   5.992   4.766   2.440
23384WAT     H170394   6.086   4.748   2.470
23384WAT     H270395   5.935   4.687   2.458
23385WAT      O70396   4.878   5.138   9.397
23385WAT     H170397   4.941   5.066   9.367
23385WAT     H270398   4.823   5.168   9.319
23386WAT      O70399   7.926   2.663   2.638
23386WAT     H170400   7.897   2.737   2.698
23386WAT     H270401   7.901   2.684   2.544
23387WAT      O70402   3.155   9.006   7.186
23387WAT     H170403   3.179   9.102   7.205
23387WAT     H270404   3.236   8.949   7.194
23388WAT      O70405   4.476   4.450   4.853
23388WAT     H170406   4.519   4.378   4.906
23388WAT     H270407   4.428   4.512   4.915
23389WAT      O70408   3.817   5.403   3.862
23389WAT     H170409   3.855   5.399   3.769
23389WAT     H270410   3.752   5.479   3.869
23390WAT      O70411   6.790   1.178   7.760
23390WAT     H170412   6.764   1.107   7.694
23390WAT     H270413   6.872   1.226   7.728
23391WAT      O70414   6.279   9.625   7.328
23391WAT     H170415   6.290   9.676   7.243
23391WAT     H270416   6.368   9.591   7.359
23392WAT      O70417   7.966   1.451   2.917
23392WAT     H170418   7.905   1.383   2.876
23392WAT     H270419   8.060   1.418   2.915
23393WAT      O70420   0.901   9.027   6.824
23393WAT     H170421   0.832   9.076   6.878
23393WAT     H270422   0.992   9.058   6.852
23394WAT      O70423   7.249   6.232   6.067
23394WAT     H170424   7.162   6.227   6.018
23394WAT     H270425   7.243   6.176   6.150
23395WAT      O70426   6.165   8.464   4.571
23395WAT     H170427   6.125   8.375   4.592
23395WAT     H270428   6.123   8.501   4.488
23396WAT      O70429   5.417   3.642   8.643
23396WAT     H170430   5.320   3.630   8.622
23396WAT     H270431   5.438   3.739   8.653
23397WAT      O70432   1.206   4.844   8.313
23397WAT     H170433   1.167   4.754   8.292
23397WAT     H270434   1.234   4.889   8.228
23398WAT      O70435   3.913   2.514   9.160
23398WAT     H170436   3.934   2.416   9.155
23398WAT     H270437   3.947   2.551   9.246
23399WAT      O70438   4.493   3.750   4.849
23399WAT     H170439   4.568   3.689   4.826
23399WAT     H270440   4.481   3.817   4.775
23400WAT      O70441   5.489   8.059   4.424
23400WAT     H170442   5.574   8.100   4.391
23400WAT     H270443   5.415   8.081   4.360
23401WAT      O70444   7.861   7.373   6.970
23401WAT     H170445   7.788   7.319   7.013
23401WAT     H270446   7.820   7.444   6.913
23402WAT      O70447   1.274   5.859   0.402
23402WAT     H170448   1.340   5.930   0.424
23402WAT     H270449   1.313   5.769   0.425
23403WAT      O70450   2.021   4.785   3.899
23403WAT     H170451   1.947   4.846   3.929
23403WAT     H270452   2.040   4.718   3.970
23404WAT      O70453   0.378   2.140   7.742
23404WAT     H170454   0.469   2.176   7.763
23404WAT     H270455   0.380   2.040   7.746
23405WAT      O70456   9.775   1.159   0.264
23405WAT     H170457   9.812   1.067   0.281
23405WAT     H270458   9.711   1.182   0.338
23406WAT      O70459   6.860   6.989   1.340
23406WAT     H170460   6.856   6.915   1.274
23406WAT     H270461   6.769   7.007   1.377
23407WAT      O70462   4.257   2.841   7.025
23407WAT     H170463   4.314   2.887   7.093
23407WAT     H270464   4.227   2.907   6.956
23408WAT      O70465   8.539   9.832   8.048
23408WAT     H170466   8.513   9.909   8.108
23408WAT     H270467   8.457   9.799   8.001
23409WAT      O70468   0.252   9.270   4.809
23409WAT     H170469   0.203   9.200   4.861
23409WAT     H270470   0.347   9.275   4.841
23410WAT      O70471   0.492   8.263   1.373
23410WAT     H170472   0.415   8.204   1.397
23410WAT     H270473   0.485   8.350   1.422
23411WAT      O70474   5.698   0.988   0.284
23411WAT     H170475   5.657   0.923   0.219
23411WAT     H270476   5.734   1.066   0.233
23412WAT      O70477   2.067   6.188   8.619
23412WAT     H170478   2.135   6.188   8.545
23412WAT     H270479   2.012   6.105   8.614
23413WAT      O70480   1.921   9.489   0.141
23413WAT     H170481   1.997   9.426   0.125
23413WAT     H270482   1.860   9.488   0.061
23414WAT      O70483   4.395   9.376   2.753
23414WAT     H170484   4.405   9.318   2.834
23414WAT     H270485   4.319   9.342   2.697
23415WAT      O70486   7.068   7.454   5.561
23415WAT     H170487   7.079   7.536   5.505
23415WAT     H270488   7.063   7.480   5.657
23416WAT      O70489   6.410   2.819   9.195
23416WAT     H170490   6.367   2.736   9.159
23416WAT     H270491   6.419   2.810   9.294
23417WAT      O70492   0.676   5.596   5.849
23417WAT     H170493   0.656   5.517   5.791
23417WAT     H270494   0.648   5.680   5.802
23418WAT      O70495   9.474   0.515   9.871
23418WAT     H170496   9.414   0.556   9.802
23418WAT     H270497   9.456   0.558   9.960
23419WAT      O70498   4.101   8.197   7.614
23419WAT     H170499   4.177   8.262   7.621
23419WAT     H270500   4.076   8.185   7.517
23420WAT      O70501   6.413   9.216   6.451
23420WAT     H170502   6.508   9.219   6.480
23420WAT     H270503   6.353   9.221   6.531
23421WAT      O70504   8.715   4.750   3.404
23421WAT     H170505   8.719   4.837   3.355
23421WAT     H270506   8.622   4.715   3.402
23422WAT      O70507   3.240   7.674   9.153
23422WAT     H170508   3.195   7.761   9.130
23422WAT     H270509   3.320   7.662   9.093
23423WAT      O70510   2.608   5.062   1.569
23423WAT     H170511   2.626   5.062   1.667
23423WAT     H270512   2.553   4.982   1.544
23424WAT      O70513   8.153   1.531   1.821
23424WAT     H170514   8.246   1.545   1.787
23424WAT     H270515   8.145   1.439   1.860
23425WAT      O70516   9.287   5.145   4.463
23425WAT     H170517   9.309   5.220   4.401
23425WAT     H270518   9.202   5.101   4.433
23426WAT      O70519   6.875   3.410   7.170
23426WAT     H170520   6.880   3.333   7.107
23426WAT     H270521   6.967   3.434   7.201
23427WAT      O70522   7.009   1.125   9.434
23427WAT     H170523   7.053   1.131   9.344
23427WAT     H270524   7.051   1.191   9.496
23428WAT      O70525   3.248   7.061   2.589
23428WAT     H170526   3.150   7.076   2.575
23428WAT     H270527   3.295   7.065   2.501
23429WAT      O70528   4.772   6.998   2.989
23429WAT     H170529   4.839   7.031   3.057
23429WAT     H270530   4.812   7.004   2.898
23430WAT      O70531   4.537   8.282   6.080
23430WAT     H170532   4.496   8.204   6.127
23430WAT     H270533   4.477   8.361   6.087
23431WAT      O70534   6.840   5.645   6.331
23431WAT     H170535   6.930   5.690   6.336
23431WAT     H270536   6.838   5.585   6.251
23432WAT      O70537   5.614   0.429   5.393
23432WAT     H170538   5.562   0.511   5.370
23432WAT     H270539   5.561   0.348   5.366
23433WAT      O70540   1.286   5.484   8.843
23433WAT     H170541   1.213   5.418   8.862
23433WAT     H270542   1.374   5.437   8.841
23434WAT      O70543   0.739   5.910   9.118
23434WAT     H170544   0.793   5.889   9.037
23434WAT     H270545   0.801   5.932   9.194
23435WAT      O70546   2.406   6.238   4.020
23435WAT     H170547   2.327   6.293   4.046
23435WAT     H270548   2.480   6.251   4.087
23436WAT      O70549   3.223   9.428   3.673
23436WAT     H170550   3.314   9.457   3.643
23436WAT     H270551   3.232   9.362   3.747
23437WAT      O70552   4.611   8.340   3.359
23437WAT     H170553   4.563   8.286   3.428
23437WAT     H270554   4.691   8.385   3.400
23438WAT      O70555   2.528   2.205   9.646
23438WAT     H170556   2.597   2.205   9.719
23438WAT     H270557   2.507   2.111   9.621
23439WAT      O70558   5.489   3.678   0.048
23439WAT     H170559   5.448   3.644   0.133
23439WAT     H270560   5.435   3.755   0.014
23440WAT      O70561   5.868   9.318   5.012
23440WAT     H170562   5.796   9.338   5.078
23440WAT     H270563   5.956   9.350   5.047
23441WAT      O70564   8.495   3.739   6.273
23441WAT     H170565   8.406   3.759   6.231
23441WAT     H270566   8.568   3.752   6.206
23442WAT      O70567   7.269   6.576   0.954
23442WAT     H170568   7.223   6.491   0.982
23442WAT     H270569   7.324   6.559   0.872
23443WAT      O70570   0.407   2.480   9.221
23443WAT     H170571   0.351   2.489   9.139
23443WAT     H270572   0.463   2.562   9.233
23444WAT      O70573   8.599   1.525   6.043
23444WAT     H170574   8.693   1.491   6.052
23444WAT     H270575   8.554   1.480   5.966
23445WAT      O70576   7.768   1.365   1.175
23445WAT     H170577   7.782   1.370   1.274
23445WAT     H270578   7.747   1.457   1.140
23446WAT      O70579   7.676   9.831   0.423
23446WAT     H170580   7.687   9.847   0.521
23446WAT     H270581   7.730   9.897   0.372
23447WAT      O70582   6.319   3.340   8.966
23447WAT     H170583   6.410   3.374   8.943
23447WAT     H270584   6.251   3.384   8.908
23448WAT      O70585   2.206   5.190   8.259
23448WAT     H170586   2.167   5.256   8.194
23448WAT     H270587   2.191   5.097   8.224
23449WAT      O70588   2.675   0.867   6.864
23449WAT     H170589   2.592   0.850   6.812
23449WAT     H270590   2.754   0.863   6.803
23450WAT      O70591   6.664   3.112   8.729
23450WAT     H170592   6.595   3.165   8.679
23450WAT     H270593   6.645   3.014   8.719
23451WAT      O70594   0.361   6.796   5.419
23451WAT     H170595   0.370   6.781   5.320
23451WAT     H270596   0.264   6.806   5.442
23452WAT      O70597   1.680   4.235   2.766
23452WAT     H170598   1.764   4.236   2.711
23452WAT     H270599   1.698   4.190   2.854
23453WAT      O70600   4.539   4.508   2.308
23453WAT     H170601   4.526   4.607   2.308
23453WAT     H270602   4.478   4.466   2.241
23454WAT      O70603   3.320   6.741   9.818
23454WAT     H170604   3.399   6.801   9.828
23454WAT     H270605   3.246   6.790   9.771
23455WAT      O70606   5.173   2.951   0.639
23455WAT     H170607   5.235   2.979   0.566
23455WAT     H270608   5.119   3.030   0.668
23456WAT      O70609   9.135   2.722   9.560
23456WAT     H170610   9.041   2.755   9.565
23456WAT     H270611   9.178   2.730   9.650
23457WAT      O70612   1.127   1.210   0.532
23457WAT     H170613   1.123   1.295   0.584
23457WAT     H270614   1.172   1.226   0.444
23458WAT      O70615   8.173   0.885   7.457
23458WAT     H170616   8.263   0.866   7.498
23458WAT     H270617   8.103   0.837   7.509
23459WAT      O70618   1.807   3.647   0.185
23459WAT     H170619   1.868   3.574   0.217
23459WAT     H270620   1.716   3.608   0.166
23460WAT      O70621   9.594   3.602   0.126
23460WAT     H170622   9.677   3.599   0.181
23460WAT     H270623   9.563   3.696   0.118
23461WAT      O70624   8.007   4.260   1.947
23461WAT     H170625   7.958   4.174   1.958
23461WAT     H270626   8.071   4.253   1.871
23462WAT      O70627   4.128   6.646   0.837
23462WAT     H170628   4.038   6.689   0.832
23462WAT     H270629   4.127   6.578   0.910
23463WAT      O70630   1.963   6.537   2.192
23463WAT     H170631   2.029   6.540   2.267
23463WAT     H270632   2.011   6.541   2.105
23464WAT      O70633   7.122   4.042   4.405
23464WAT     H170634   7.051   4.029   4.474
23464WAT     H270635   7.148   3.953   4.367
23465WAT      O70636   2.747   3.982   4.359
23465WAT     H170637   2.763   3.892   4.401
23465WAT     H270638   2.819   4.001   4.293
23466WAT      O70639   6.864   0.154   7.842
23466WAT     H170640   6.806   0.215   7.789
23466WAT     H270641   6.929   0.109   7.780
23467WAT      O70642   2.041   1.045   7.144
23467WAT     H170643   2.134   1.081   7.146
23467WAT     H270644   2.019   1.013   7.052
23468WAT      O70645   9.180   1.793   1.429
23468WAT     H170646   9.171   1.759   1.335
23468WAT     H270647   9.196   1.716   1.491
23469WAT      O70648   5.962   7.893   2.851
23469WAT     H170649   5.878   7.935   2.886
23469WAT     H270650   5.982   7.927   2.759
23470WAT      O70651   3.166   2.842   8.871
23470WAT     H170652   3.147   2.940   8.876
23470WAT     H270653   3.264   2.828   8.855
23471WAT      O70654   5.489   9.816   7.122
23471WAT     H170655   5.476   9.767   7.208
23471WAT     H270656   5.482   9.914   7.137
23472WAT      O70657   1.472   4.190   3.569
23472WAT     H170658   1.478   4.271   3.627
23472WAT     H270659   1.377   4.166   3.554
23473WAT      O70660   2.401   8.984   1.838
23473WAT     H170661   2.408   8.993   1.739
23473WAT     H270662   2.305   8.991   1.866
23474WAT      O70663   2.874   3.576   0.566
23474WAT     H170664   2.934   3.655   0.578
23474WAT     H270665   2.853   3.565   0.469
23475WAT      O70666   9.628   4.215   5.773
23475WAT     H170667   9.682   4.296   5.797
23475WAT     H270668   9.533   4.241   5.756
23476WAT      O70669   3.770   5.484   1.648
23476WAT     H170670   3.709   5.406   1.656
23476WAT     H270671   3.761   5.542   1.730
23477WAT      O70672   4.362   0.560   6.750
23477WAT     H170673   4.419   0.604   6.680
23477WAT     H270674   4.286   0.619   6.774
23478WAT      O70675   8.083   7.172   2.080
23478WAT     H170676   8.001   7.128   2.117
23478WAT     H270677   8.101   7.136   1.989
23479WAT      O70678   6.390   5.979   9.075
23479WAT     H170679   6.436   6.011   8.992
23479WAT     H270680   6.319   5.913   9.049
23480WAT      O70681   5.779   6.275   1.456
23480WAT     H170682   5.875   6.268   1.429
23480WAT     H270683   5.742   6.184   1.474
23481WAT      O70684   0.751   9.592   6.397
23481WAT     H170685   0.680   9.552   6.455
23481WAT     H270686   0.810   9.520   6.361
23482WAT      O70687   8.188   8.195   8.381
23482WAT     H170688   8.224   8.157   8.295
23482WAT     H270689   8.212   8.292   8.388
23483WAT      O70690   1.891   5.481   7.061
23483WAT     H170691   1.866   5.575   7.035
23483WAT     H270692   1.991   5.473   7.063
23484WAT      O70693   6.201   6.523   7.681
23484WAT     H170694   6.295   6.497   7.659
23484WAT     H270695   6.141   6.445   7.667
23485WAT      O70696   2.447   9.011   9.863
23485WAT     H170697   2.521   9.066   9.902
23485WAT     H270698   2.378   8.994   9.933
23486WAT      O70699   4.352   3.348   6.612
23486WAT     H170700   4.434   3.307   6.571
23486WAT     H270701   4.326   3.429   6.560
23487WAT      O70702   8.248   5.430   9.036
23487WAT     H170703   8.179   5.497   9.062
23487WAT     H270704   8.238   5.407   8.939
23488WAT      O70705   1.749   2.002   8.923
23488WAT     H170706   1.815   1.946   8.873
23488WAT     H270707   1.755   1.980   9.021
23489WAT      O70708   5.173   5.810   8.345
23489WAT     H170709   5.141   5.900   8.375
23489WAT     H270710   5.159   5.800   8.247
23490WAT      O70711   7.726   9.050   1.934
23490WAT     H170712   7.758   9.138   1.897
23490WAT     H270713   7.659   9.010   1.872
23491WAT      O70714   6.458   7.608   3.132
23491WAT     H170715   6.414   7.697   3.119
23491WAT     H270716   6.406   7.555   3.199
23492WAT      O70717   3.119   6.703   5.156
23492WAT     H170718   3.143   6.610   5.184
23492WAT     H270719   3.188   6.737   5.092
23493WAT      O70720   0.250   4.825   4.150
23493WAT     H170721   0.168   4.827   4.094
23493WAT     H270722   0.229   4.854   4.243
23494WAT      O70723   9.217   9.344   3.006
23494WAT     H170724   9.148   9.391   2.951
23494WAT     H270725   9.299   9.400   3.012
23495WAT      O70726   3.589   4.400   7.874
23495WAT     H170727   3.546   4.446   7.796
23495WAT     H270728   3.591   4.462   7.953
23496WAT      O70729   9.259   4.081   6.277
23496WAT     H170730   9.306   4.122   6.199
23496WAT     H270731   9.200   4.149   6.321
23497WAT      O70732   8.253   5.162   3.556
23497WAT     H170733   8.170   5.112   3.534
23497WAT     H270734   8.264   5.166   3.655
23498WAT      O70735   7.614   5.149   5.795
23498WAT     H170736   7.579   5.103   5.714
23498WAT     H270737   7.637   5.081   5.865
23499WAT      O70738   4.646   9.489   4.516
23499WAT     H170739   4.567   9.440   4.479
23499WAT     H270740   4.730   9.445   4.485
23500WAT      O70741   1.640   7.005   4.153
23500WAT     H170742   1.654   6.916   4.109
23500WAT     H270743   1.661   6.998   4.250
23501WAT      O70744   9.115   1.441   3.625
23501WAT     H170745   9.163   1.378   3.687
23501WAT     H270746   9.050   1.390   3.569
23502WAT      O70747   0.901   5.573   8.900
23502WAT     H170748   0.959   5.550   8.822
23502WAT     H270749   0.805   5.563   8.873
23503WAT      O70750   4.598   4.718   0.591
23503WAT     H170751   4.624   4.747   0.499
23503WAT     H270752   4.527   4.648   0.585
23504WAT      O70753   7.066   1.412   9.303
23504WAT     H170754   7.073   1.362   9.217
23504WAT     H270755   7.087   1.508   9.288
23505WAT      O70756   9.177   6.042   2.435
23505WAT     H170757   9.198   6.014   2.341
23505WAT     H270758   9.130   6.130   2.433
23506WAT      O70759   3.470   2.527   6.566
23506WAT     H170760   3.403   2.592   6.528
23506WAT     H270761   3.498   2.464   6.494
23507WAT      O70762   8.717   7.858   7.465
23507WAT     H170763   8.680   7.803   7.540
23507WAT     H270764   8.695   7.814   7.378
23508WAT      O70765   2.277   6.928   2.311
23508WAT     H170766   2.358   6.942   2.369
23508WAT     H270767   2.229   6.845   2.340
23509WAT      O70768   1.955   2.084   2.633
23509WAT     H170769   1.978   2.089   2.730
23509WAT     H270770   1.933   2.175   2.599
23510WAT      O70771   2.066   3.101   9.750
23510WAT     H170772   2.029   3.099   9.843
23510WAT     H270773   2.131   3.177   9.741
23511WAT      O70774   3.644   6.939   5.147
23511WAT     H170775   3.575   6.926   5.217
23511WAT     H270776   3.687   7.029   5.157
23512WAT      O70777   2.911   3.779   9.655
23512WAT     H170778   2.967   3.836   9.595
23512WAT     H270779   2.941   3.684   9.647
23513WAT      O70780   1.495   4.789   5.128
23513WAT     H170781   1.478   4.693   5.109
23513WAT     H270782   1.591   4.802   5.155
23514WAT      O70783   4.816   2.109   1.752
23514WAT     H170784   4.729   2.150   1.778
23514WAT     H270785   4.817   2.090   1.654
23515WAT      O70786   0.738   0.675   8.792
23515WAT     H170787   0.760   0.581   8.818
23515WAT     H270788   0.736   0.683   8.692
23516WAT      O70789   7.328   0.734   7.042
23516WAT     H170790   7.338   0.829   7.012
23516WAT     H270791   7.418   0.690   7.039
23517WAT      O70792   6.970   1.508   1.868
23517WAT     H170793   6.910   1.429   1.880
23517WAT     H270794   7.013   1.503   1.778
23518WAT      O70795   6.063   1.452   6.111
23518WAT     H170796   6.018   1.541   6.100
23518WAT     H270797   6.136   1.444   6.044
23519WAT      O70798   5.557   1.382   4.583
23519WAT     H170799   5.633   1.331   4.544
23519WAT     H270800   5.581   1.479   4.589
23520WAT      O70801   1.716   9.468   5.571
23520WAT     H170802   1.794   9.441   5.627
23520WAT     H270803   1.647   9.396   5.573
23521WAT      O70804   6.538   6.118   6.455
23521WAT     H170805   6.514   6.071   6.370
23521WAT     H270806   6.490   6.076   6.531
23522WAT      O70807   8.413   4.827   7.856
23522WAT     H170808   8.417   4.791   7.763
23522WAT     H270809   8.359   4.765   7.914
23523WAT      O70810   4.684   2.274   9.518
23523WAT     H170811   4.736   2.195   9.487
23523WAT     H270812   4.655   2.328   9.440
23524WAT      O70813   7.306   5.715   5.536
23524WAT     H170814   7.394   5.736   5.578
23524WAT     H270815   7.273   5.627   5.569
23525WAT      O70816   2.987   2.261   1.330
23525WAT     H170817   2.981   2.226   1.423
23525WAT     H270818   3.075   2.305   1.316
23526WAT      O70819   2.288   6.304   0.007
23526WAT     H170820   2.198   6.298  -0.037
23526WAT     H270821   2.346   6.367  -0.045
23527WAT      O70822   9.703   1.349   4.272
23527WAT     H170823   9.735   1.271   4.218
23527WAT     H270824   9.772   1.374   4.340
23528WAT      O70825   1.596   4.507   8.700
23528WAT     H170826   1.603   4.570   8.622
23528WAT     H270827   1.687   4.483   8.732
23529WAT      O70828   8.923   4.426   7.135
23529WAT     H170829   8.997   4.421   7.202
23529WAT     H270830   8.913   4.520   7.103
23530WAT      O70831   2.560   8.731   5.352
23530WAT     H170832   2.496   8.694   5.285
23530WAT     H270833   2.599   8.656   5.405
23531WAT      O70834   6.817   1.263   1.274
23531WAT     H170835   6.858   1.242   1.363
23531WAT     H270836   6.840   1.190   1.209
23532WAT      O70837   7.882   9.433   1.947
23532WAT     H170838   7.863   9.528   1.922
23532WAT     H270839   7.819   9.404   2.018
23533WAT      O70840   4.407   5.206   7.585
23533WAT     H170841   4.406   5.106   7.589
23533WAT     H270842   4.449   5.235   7.499
23534WAT      O70843   5.828   7.790   3.466
23534WAT     H170844   5.817   7.745   3.554
23534WAT     H270845   5.750   7.768   3.407
23535WAT      O70846   6.715   1.207   5.463
23535WAT     H170847   6.767   1.244   5.540
23535WAT     H270848   6.689   1.281   5.401
23536WAT      O70849   8.929   4.430   6.473
23536WAT     H170850   8.883   4.420   6.561
23536WAT     H270851   8.883   4.501   6.419
23537WAT      O70852   2.667   9.048   0.337
23537WAT     H170853   2.608   9.042   0.417
23537WAT     H270854   2.700   8.956   0.312
23538WAT      O70855   9.817   9.654   0.911
23538WAT     H170856   9.853   9.561   0.902
23538WAT     H270857   9.757   9.659   0.991
23539WAT      O70858   6.189   8.274   5.828
23539WAT     H170859   6.272   8.317   5.864
23539WAT     H270860   6.215   8.202   5.763
23540WAT      O70861   3.346   6.277   5.204
23540WAT     H170862   3.400   6.263   5.287
23540WAT     H270863   3.353   6.195   5.146
23541WAT      O70864   6.572   3.358   8.906
23541WAT     H170865   6.650   3.297   8.924
23541WAT     H270866   6.599   3.428   8.840
23542WAT      O70867   3.054   8.802   2.879
23542WAT     H170868   3.035   8.852   2.963
23542WAT     H270869   3.008   8.714   2.881
23543WAT      O70870   3.639   5.907   6.528
23543WAT     H170871   3.583   5.842   6.580
23543WAT     H270872   3.736   5.891   6.547
23544WAT      O70873   7.583   3.109   7.330
23544WAT     H170874   7.575   3.188   7.390
23544WAT     H270875   7.577   3.025   7.384
23545WAT      O70876   6.053   4.750   4.172
23545WAT     H170877   5.954   4.743   4.188
23545WAT     H270878   6.073   4.726   4.077
23546WAT      O70879   6.556   1.932   7.096
23546WAT     H170880   6.551   2.024   7.057
23546WAT     H270881   6.641   1.921   7.147
23547WAT      O70882   5.405   7.345   6.336
23547WAT     H170883   5.464   7.341   6.256
23547WAT     H270884   5.358   7.258   6.348
23548WAT      O70885   1.146   7.000   0.873
23548WAT     H170886   1.217   7.008   0.803
23548WAT     H270887   1.060   7.038   0.839
23549WAT      O70888   0.321   0.083   6.650
23549WAT     H170889   0.237   0.126   6.615
23549WAT     H270890   0.398   0.109   6.592
23550WAT      O70891   8.646   0.307   7.370
23550WAT     H170892   8.631   0.403   7.395
23550WAT     H270893   8.741   0.295   7.340
23551WAT      O70894   9.201   9.377   1.445
23551WAT     H170895   9.111   9.414   1.470
23551WAT     H270896   9.215   9.386   1.347
23552WAT      O70897   2.949   8.517   6.397
23552WAT     H170898   2.993   8.466   6.471
23552WAT     H270899   2.876   8.574   6.435
23553WAT      O70900   5.094   4.390   9.057
23553WAT     H170901   5.100   4.489   9.070
23553WAT     H270902   5.153   4.344   9.123
23554WAT      O70903   5.478   5.377   7.359
23554WAT     H170904   5.462   5.458   7.416
23554WAT     H270905   5.492   5.405   7.264
23555WAT      O70906   6.666   0.736   3.451
23555WAT     H170907   6.660   0.775   3.359
23555WAT     H270908   6.625   0.800   3.517
23556WAT      O70909   4.545   0.570   8.578
23556WAT     H170910   4.619   0.635   8.559
23556WAT     H270911   4.564   0.523   8.665
23557WAT      O70912   8.849   7.829   6.024
23557WAT     H170913   8.821   7.905   5.964
23557WAT     H270914   8.794   7.831   6.108
23558WAT      O70915   2.701   8.803   9.168
23558WAT     H170916   2.743   8.851   9.245
23558WAT     H270917   2.628   8.859   9.130
23559WAT      O70918   0.957   6.033   8.744
23559WAT     H170919   0.979   6.130   8.744
23559WAT     H270920   1.042   5.980   8.752
23560WAT      O70921   1.897   2.539   3.257
23560WAT     H170922   1.890   2.553   3.355
23560WAT     H270923   1.890   2.627   3.210
23561WAT      O70924   9.830   6.698   4.563
23561WAT     H170925   9.847   6.775   4.625
23561WAT     H270926   9.782   6.626   4.612
23562WAT      O70927   2.967   0.969   4.321
23562WAT     H170928   3.050   0.959   4.376
23562WAT     H270929   2.888   0.973   4.382
23563WAT      O70930   7.824   1.232   3.081
23563WAT     H170931   7.823   1.321   3.126
23563WAT     H270932   7.850   1.162   3.148
23564WAT      O70933   8.604   9.738   8.405
23564WAT     H170934   8.586   9.837   8.409
23564WAT     H270935   8.699   9.721   8.434
23565WAT      O70936   2.979   2.771   2.468
23565WAT     H170937   2.960   2.861   2.428
23565WAT     H270938   3.074   2.767   2.498
23566WAT      O70939   1.172   3.037   1.861
23566WAT     H170940   1.155   3.008   1.955
23566WAT     H270941   1.093   3.089   1.827
23567WAT      O70942   1.186   5.007   3.250
23567WAT     H170943   1.236   5.041   3.170
23567WAT     H270944   1.219   4.915   3.273
23568WAT      O70945   5.099   2.386   7.984
23568WAT     H170946   5.180   2.370   8.039
23568WAT     H270947   5.053   2.299   7.965
23569WAT      O70948   7.683   1.471   7.207
23569WAT     H170949   7.731   1.392   7.168
23569WAT     H270950   7.584   1.458   7.197
23570WAT      O70951   3.782   2.526   7.571
23570WAT     H170952   3.837   2.491   7.646
23570WAT     H270953   3.729   2.605   7.602
23571WAT      O70954   5.324   8.182   7.427
23571WAT     H170955   5.409   8.197   7.478
23571WAT     H270956   5.331   8.225   7.337
23572WAT      O70957   6.330   1.856   3.322
23572WAT     H170958   6.405   1.802   3.285
23572WAT     H270959   6.367   1.926   3.384
23573WAT      O70960   6.248   2.341   4.573
23573WAT     H170961   6.267   2.307   4.665
23573WAT     H270962   6.157   2.311   4.544
23574WAT      O70963   1.741   4.658   6.762
23574WAT     H170964   1.764   4.562   6.743
23574WAT     H270965   1.708   4.666   6.856
23575WAT      O70966   6.227   1.428   5.874
23575WAT     H170967   6.297   1.374   5.921
23575WAT     H270968   6.238   1.418   5.775
23576WAT      O70969   2.883   9.288   1.371
23576WAT     H170970   2.854   9.253   1.461
23576WAT     H270971   2.919   9.212   1.317
23577WAT      O70972   8.371   1.785   7.218
23577WAT     H170973   8.289   1.838   7.201
23577WAT     H270974   8.374   1.708   7.154
23578WAT      O70975   2.733   8.839   7.756
23578WAT     H170976   2.682   8.926   7.757
23578WAT     H270977   2.802   8.840   7.828
23579WAT      O70978   8.497   7.923   8.674
23579WAT     H170979   8.436   7.911   8.596
23579WAT     H270980   8.561   7.998   8.656
23580WAT      O70981   6.231   8.222   9.169
23580WAT     H170982   6.283   8.205   9.085
23580WAT     H270983   6.140   8.181   9.160
23581WAT      O70984   6.628   4.761   3.798
23581WAT     H170985   6.671   4.815   3.870
23581WAT     H270986   6.534   4.794   3.784
23582WAT      O70987   5.890   8.382   6.310
23582WAT     H170988   5.843   8.459   6.353
23582WAT     H270989   5.822   8.315   6.280
23583WAT      O70990   4.734   2.792   5.986
23583WAT     H170991   4.651   2.838   6.020
23583WAT     H270992   4.711   2.742   5.902
23584WAT      O70993   8.885   6.287   7.074
23584WAT     H170994   8.859   6.373   7.118
23584WAT     H270995   8.900   6.217   7.143
23585WAT      O70996   0.178   8.875   6.517
23585WAT     H170997   0.278   8.879   6.511
23585WAT     H270998   0.151   8.790   6.563
23586WAT      O70999   2.247   3.913   7.387
23586WAT     H171000   2.181   3.876   7.453
23586WAT     H271001   2.311   3.841   7.361
23587WAT      O71002   4.225   8.937   2.460
23587WAT     H171003   4.201   8.857   2.405
23587WAT     H271004   4.149   9.003   2.456
23588WAT      O71005   4.219   8.538   2.482
23588WAT     H171006   4.317   8.540   2.463
23588WAT     H271007   4.171   8.599   2.419
23589WAT      O71008   5.787   5.789   7.785
23589WAT     H171009   5.809   5.839   7.869
23589WAT     H271010   5.846   5.821   7.711
23590WAT      O71011   8.539   0.273   5.828
23590WAT     H171012   8.587   0.347   5.780
23590WAT     H271013   8.605   0.204   5.856
23591WAT      O71014   3.687   2.593   6.997
23591WAT     H171015   3.684   2.500   6.958
23591WAT     H271016   3.710   2.588   7.094
23592WAT      O71017   4.517   6.764   6.787
23592WAT     H171018   4.603   6.771   6.737
23592WAT     H271019   4.440   6.762   6.722
23593WAT      O71020   3.995   4.245   1.064
23593WAT     H171021   4.060   4.320   1.077
23593WAT     H271022   3.908   4.281   1.030
23594WAT      O71023   3.623   1.678   9.236
23594WAT     H171024   3.705   1.721   9.198
23594WAT     H271025   3.650   1.600   9.293
23595WAT      O71026   5.547   0.851   7.756
23595WAT     H171027   5.610   0.879   7.684
23595WAT     H271028   5.453   0.869   7.727
23596WAT      O71029   1.710   0.342   2.005
23596WAT     H171030   1.694   0.272   2.074
23596WAT     H271031   1.623   0.379   1.974
23597WAT      O71032   9.300   2.893   6.891
23597WAT     H171033   9.370   2.863   6.956
23597WAT     H271034   9.210   2.868   6.927
23598WAT      O71035   7.991   5.986   2.006
23598WAT     H171036   7.934   6.047   2.062
23598WAT     H271037   7.941   5.962   1.923
23599WAT      O71038   2.843   9.154   1.840
23599WAT     H171039   2.861   9.066   1.883
23599WAT     H271040   2.903   9.224   1.879
23600WAT      O71041   2.541   9.810   9.593
23600WAT     H171042   2.628   9.768   9.567
23600WAT     H271043   2.508   9.769   9.678
23601WAT      O71044   6.732   5.528   6.555
23601WAT     H171045   6.766   5.580   6.477
23601WAT     H271046   6.767   5.435   6.550
23602WAT      O71047   3.488   4.250   5.760
23602WAT     H171048   3.582   4.277   5.742
23602WAT     H271049   3.438   4.240   5.673
23603WAT      O71050   1.705   5.492   1.089
23603WAT     H171051   1.697   5.394   1.069
23603WAT     H271052   1.621   5.539   1.063
23604WAT      O71053   8.003   6.519   7.832
23604WAT     H171054   8.058   6.595   7.796
23604WAT     H271055   8.052   6.433   7.816
23605WAT      O71056   1.661   8.298   0.248
23605WAT     H171057   1.701   8.325   0.336
23605WAT     H271058   1.733   8.289   0.180
23606WAT      O71059   4.159   9.190   3.401
23606WAT     H171060   4.219   9.220   3.327
23606WAT     H271061   4.166   9.254   3.478
23607WAT      O71062   5.840   4.034   2.202
23607WAT     H171063   5.813   4.105   2.267
23607WAT     H271064   5.874   4.077   2.118
23608WAT      O71065   8.220   6.757   2.177
23608WAT     H171066   8.306   6.749   2.127
23608WAT     H271067   8.198   6.669   2.220
23609WAT      O71068   2.020   8.754   9.288
23609WAT     H171069   1.947   8.688   9.268
23609WAT     H271070   1.982   8.833   9.336
23610WAT      O71071   6.233   4.846   6.436
23610WAT     H171072   6.196   4.873   6.347
23610WAT     H271073   6.159   4.847   6.504
23611WAT      O71074   3.626   6.116   7.801
23611WAT     H171075   3.591   6.201   7.840
23611WAT     H271076   3.711   6.090   7.847
23612WAT      O71077   6.083   8.821   6.505
23612WAT     H171078   6.020   8.766   6.560
23612WAT     H271079   6.127   8.890   6.564
23613WAT      O71080   9.888   5.167   2.503
23613WAT     H171081   9.927   5.245   2.453
23613WAT     H271082   9.861   5.096   2.439
23614WAT      O71083   7.091   3.759   1.553
23614WAT     H171084   7.161   3.689   1.568
23614WAT     H271085   7.068   3.802   1.640
23615WAT      O71086   2.568   2.432   6.703
23615WAT     H171087   2.632   2.449   6.778
23615WAT     H271088   2.616   2.444   6.616
23616WAT      O71089   3.235   7.733   6.730
23616WAT     H171090   3.306   7.729   6.659
23616WAT     H271091   3.231   7.646   6.778
23617WAT      O71092   9.080   0.110   9.212
23617WAT     H171093   9.020   0.117   9.132
23617WAT     H271094   9.043   0.166   9.286
23618WAT      O71095   8.532   6.056   6.841
23618WAT     H171096   8.438   6.084   6.819
23618WAT     H271097   8.593   6.134   6.833
23619WAT      O71098   5.939   7.271   3.819
23619WAT     H171099   5.955   7.190   3.763
23619WAT     H271100   6.020   7.290   3.875
23620WAT      O71101   0.769   5.583   2.920
23620WAT     H171102   0.811   5.590   2.830
23620WAT     H271103   0.741   5.674   2.951
23621WAT      O71104   6.788   3.925   3.831
23621WAT     H171105   6.798   3.852   3.762
23621WAT     H271106   6.794   4.014   3.786
23622WAT      O71107   3.351   6.073   0.102
23622WAT     H171108   3.389   5.985   0.075
23622WAT     H271109   3.372   6.091   0.198
23623WAT      O71110   3.895   6.752   8.414
23623WAT     H171111   3.939   6.802   8.339
23623WAT     H271112   3.841   6.817   8.469
23624WAT      O71113   4.546   3.574   5.944
23624WAT     H171114   4.582   3.481   5.939
23624WAT     H271115   4.592   3.631   5.876
23625WAT      O71116   1.391   7.636   6.275
23625WAT     H171117   1.316   7.623   6.340
23625WAT     H271118   1.386   7.729   6.237
23626WAT      O71119   3.547   5.737   6.012
23626WAT     H171120   3.600   5.786   6.082
23626WAT     H271121   3.596   5.739   5.925
23627WAT      O71122   7.015   3.376   9.694
23627WAT     H171123   7.105   3.335   9.710
23627WAT     H271124   7.019   3.434   9.613
23628WAT      O71125   3.327   6.689   1.477
23628WAT     H171126   3.230   6.696   1.454
23628WAT     H271127   3.381   6.686   1.393
23629WAT      O71128   3.404   5.253   3.848
23629WAT     H171129   3.446   5.303   3.773
23629WAT     H271130   3.366   5.318   3.914
23630WAT      O71131   2.954   5.546   0.663
23630WAT     H171132   2.873   5.566   0.717
23630WAT     H271133   3.028   5.515   0.724
23631WAT      O71134   6.568   8.248   0.613
23631WAT     H171135   6.515   8.331   0.627
23631WAT     H271136   6.573   8.196   0.698
23632WAT      O71137   8.841   3.722   9.589
23632WAT     H171138   8.924   3.770   9.563
23632WAT     H271139   8.781   3.712   9.510
23633WAT      O71140   0.496   7.532   6.079
23633WAT     H171141   0.461   7.624   6.100
23633WAT     H271142   0.501   7.479   6.163
23634WAT      O71143   5.095   9.798   2.693
23634WAT     H171144   5.166   9.745   2.740
23634WAT     H271145   5.016   9.808   2.753
23635WAT      O71146   4.063   8.458   5.601
23635WAT     H171147   3.985   8.490   5.654
23635WAT     H271148   4.109   8.536   5.559
23636WAT      O71149   7.636   5.829   2.186
23636WAT     H171150   7.662   5.821   2.282
23636WAT     H271151   7.630   5.926   2.161
23637WAT      O71152   3.043   1.504   6.522
23637WAT     H171153   3.091   1.510   6.610
23637WAT     H271154   2.960   1.449   6.533
23638WAT      O71155   2.008   0.480   8.383
23638WAT     H171156   1.993   0.393   8.337
23638WAT     H271157   1.921   0.528   8.393
23639WAT      O71158   5.538   7.062   9.843
23639WAT     H171159   5.596   6.981   9.832
23639WAT     H271160   5.444   7.039   9.816
23640WAT      O71161   1.149   4.327   0.466
23640WAT     H171162   1.174   4.300   0.373
23640WAT     H271163   1.219   4.388   0.503
23641WAT      O71164   1.671   2.137   3.818
23641WAT     H171165   1.667   2.185   3.730
23641WAT     H271166   1.745   2.174   3.874
23642WAT      O71167   5.572   7.459   1.370
23642WAT     H171168   5.516   7.464   1.287
23642WAT     H271169   5.590   7.551   1.403
23643WAT      O71170   8.262   3.252   5.169
23643WAT     H171171   8.172   3.243   5.126
23643WAT     H271172   8.251   3.253   5.269
23644WAT      O71173   8.916   6.789   8.776
23644WAT     H171174   8.933   6.877   8.821
23644WAT     H271175   8.970   6.783   8.692
23645WAT      O71176   1.060   0.968   9.223
23645WAT     H171177   1.117   0.995   9.301
23645WAT     H271178   1.115   0.915   9.159
23646WAT      O71179   7.513   4.847   2.763
23646WAT     H171180   7.524   4.767   2.705
23646WAT     H271181   7.586   4.913   2.743
23647WAT      O71182   5.728   6.460   0.708
23647WAT     H171183   5.708   6.557   0.719
23647WAT     H271184   5.690   6.427   0.621
23648WAT      O71185   1.667   1.872   6.558
23648WAT     H171186   1.690   1.954   6.612
23648WAT     H271187   1.748   1.814   6.550
23649WAT      O71188   8.181   4.231   0.923
23649WAT     H171189   8.231   4.227   1.009
23649WAT     H271190   8.245   4.229   0.846
23650WAT      O71191   3.373   6.449   0.266
23650WAT     H171192   3.359   6.483   0.359
23650WAT     H271193   3.457   6.489   0.228
23651WAT      O71194   8.708   0.615   4.885
23651WAT     H171195   8.611   0.613   4.909
23651WAT     H271196   8.745   0.522   4.885
23652WAT      O71197   3.926   8.237   7.218
23652WAT     H171198   4.000   8.301   7.198
23652WAT     H271199   3.846   8.286   7.252
23653WAT      O71200   5.584   6.530   5.297
23653WAT     H171201   5.521   6.604   5.321
23653WAT     H271202   5.613   6.540   5.202
23654WAT      O71203   4.037   7.600   7.999
23654WAT     H171204   3.960   7.613   7.937
23654WAT     H271205   4.011   7.535   8.071
23655WAT      O71206   1.550   7.131   8.520
23655WAT     H171207   1.508   7.206   8.571
23655WAT     H271208   1.511   7.044   8.550
23656WAT      O71209   2.765   7.641   1.536
23656WAT     H171210   2.831   7.637   1.461
23656WAT     H271211   2.716   7.728   1.533
23657WAT      O71212   6.396   7.677   7.698
23657WAT     H171213   6.456   7.598   7.704
23657WAT     H271214   6.351   7.693   7.786
23658WAT      O71215   7.450   4.255   6.376
23658WAT     H171216   7.519   4.268   6.303
23658WAT     H271217   7.361   4.241   6.334
23659WAT      O71218   8.275   5.816   2.628
23659WAT     H171219   8.295   5.913   2.613
23659WAT     H271220   8.225   5.806   2.714
23660WAT      O71221   6.774   1.965   1.351
23660WAT     H171222   6.697   1.953   1.289
23660WAT     H271223   6.831   2.041   1.320
23661WAT      O71224   7.808   3.708   2.899
23661WAT     H171225   7.851   3.721   2.810
23661WAT     H271226   7.738   3.636   2.891
23662WAT      O71227   0.168   0.930   1.553
23662WAT     H171228   0.176   1.029   1.546
23662WAT     H271229   0.221   0.898   1.631
23663WAT      O71230   4.474   0.835   1.725
23663WAT     H171231   4.422   0.753   1.703
23663WAT     H271232   4.446   0.870   1.815
23664WAT      O71233   4.671   8.537   9.229
23664WAT     H171234   4.726   8.470   9.279
23664WAT     H271235   4.578   8.503   9.218
23665WAT      O71236   6.125   7.011   4.117
23665WAT     H171237   6.093   7.096   4.159
23665WAT     H271238   6.123   6.937   4.185
23666WAT      O71239   4.470   1.378   7.075
23666WAT     H171240   4.545   1.372   7.010
23666WAT     H271241   4.502   1.354   7.166
23667WAT      O71242   1.819   4.369   1.817
23667WAT     H171243   1.846   4.273   1.814
23667WAT     H271244   1.720   4.377   1.811
23668WAT      O71245   2.542   8.311   2.731
23668WAT     H171246   2.538   8.339   2.635
23668WAT     H271247   2.636   8.316   2.763
23669WAT      O71248   6.319   7.332   5.313
23669WAT     H171249   6.377   7.306   5.236
23669WAT     H271250   6.224   7.342   5.280
23670WAT      O71251   4.510   5.801   1.059
23670WAT     H171252   4.436   5.799   0.992
23670WAT     H271253   4.586   5.856   1.023
23671WAT      O71254   8.556   4.851   6.396
23671WAT     H171255   8.466   4.814   6.373
23671WAT     H271256   8.556   4.950   6.381
23672WAT      O71257   4.911   0.634   6.034
23672WAT     H171258   4.883   0.634   5.938
23672WAT     H271259   4.967   0.554   6.053
23673WAT      O71260   2.874   9.418   4.610
23673WAT     H171261   2.924   9.392   4.526
23673WAT     H271262   2.777   9.402   4.596
23674WAT      O71263   2.475   6.091   7.637
23674WAT     H171264   2.441   6.145   7.714
23674WAT     H271265   2.552   6.035   7.667
23675WAT      O71266   3.882   8.135   2.938
23675WAT     H171267   3.944   8.159   2.863
23675WAT     H271268   3.908   8.186   3.020
23676WAT      O71269   7.036   4.658   4.447
23676WAT     H171270   6.961   4.594   4.436
23676WAT     H271271   7.101   4.622   4.515
23677WAT      O71272   0.905   8.154   4.527
23677WAT     H171273   0.809   8.179   4.517
23677WAT     H271274   0.948   8.212   4.597
23678WAT      O71275   2.884   1.236   9.456
23678WAT     H171276   2.834   1.173   9.397
23678WAT     H271277   2.867   1.212   9.552
23679WAT      O71278   8.898   2.028   2.913
23679WAT     H171279   8.838   2.002   2.989
23679WAT     H271280   8.891   1.961   2.840
23680WAT      O71281   7.998   4.295   4.951
23680WAT     H171282   7.901   4.308   4.971
23680WAT     H271283   8.043   4.384   4.947
23681WAT      O71284   0.645   0.387   7.197
23681WAT     H171285   0.555   0.421   7.225
23681WAT     H271286   0.712   0.461   7.205
23682WAT      O71287   0.349   8.090   2.469
23682WAT     H171288   0.394   8.031   2.536
23682WAT     H271289   0.418   8.138   2.415
23683WAT      O71290   1.043   9.183   8.124
23683WAT     H171291   1.071   9.266   8.076
23683WAT     H271292   0.972   9.206   8.191
23684WAT      O71293   3.238   8.397   5.862
23684WAT     H171294   3.289   8.422   5.945
23684WAT     H271295   3.265   8.457   5.787
23685WAT      O71296   3.017   7.591   4.084
23685WAT     H171297   3.029   7.684   4.118
23685WAT     H271298   3.106   7.550   4.068
23686WAT      O71299   6.050   2.777   3.917
23686WAT     H171300   6.012   2.818   3.834
23686WAT     H271301   5.996   2.804   3.996
23687WAT      O71302   8.915   8.776   0.932
23687WAT     H171303   8.960   8.756   1.019
23687WAT     H271304   8.940   8.706   0.864
23688WAT      O71305   6.849   8.732   7.144
23688WAT     H171306   6.834   8.830   7.160
23688WAT     H271307   6.928   8.721   7.083
23689WAT      O71308   5.330   1.110   1.948
23689WAT     H171309   5.384   1.030   1.974
23689WAT     H271310   5.367   1.191   1.995
23690WAT      O71311   7.643   7.282   7.699
23690WAT     H171312   7.567   7.288   7.634
23690WAT     H271313   7.713   7.221   7.662
23691WAT      O71314   0.745   4.260   7.998
23691WAT     H171315   0.744   4.172   8.046
23691WAT     H271316   0.667   4.315   8.027
23692WAT      O71317   8.036   1.767   4.665
23692WAT     H171318   8.052   1.792   4.570
23692WAT     H271319   8.122   1.741   4.708
23693WAT      O71320   4.071   5.946   8.895
23693WAT     H171321   3.984   5.960   8.847
23693WAT     H271322   4.093   5.848   8.897
23694WAT      O71323   1.526   8.082   8.583
23694WAT     H171324   1.445   8.140   8.589
23694WAT     H271325   1.535   8.029   8.667
23695WAT      O71326   0.132   0.836   6.356
23695WAT     H171327   0.091   0.759   6.406
23695WAT     H271328   0.152   0.910   6.419
23696WAT      O71329   0.796   5.596   3.634
23696WAT     H171330   0.871   5.588   3.569
23696WAT     H271331   0.712   5.561   3.592
23697WAT      O71332   8.540   3.620   4.833
23697WAT     H171333   8.536   3.698   4.895
23697WAT     H271334   8.507   3.538   4.880
23698WAT      O71335   1.462   5.685   9.401
23698WAT     H171336   1.387   5.626   9.369
23698WAT     H271337   1.537   5.628   9.435
23699WAT      O71338   8.260   1.499   5.977
23699WAT     H171339   8.340   1.461   5.931
23699WAT     H271340   8.287   1.577   6.033
23700WAT      O71341   5.123   2.165   9.362
23700WAT     H171342   5.182   2.146   9.441
23700WAT     H271343   5.154   2.112   9.284
23701WAT      O71344   7.490   1.153   4.371
23701WAT     H171345   7.549   1.213   4.317
23701WAT     H271346   7.530   1.138   4.461
23702WAT      O71347   5.118   5.390   1.030
23702WAT     H171348   5.114   5.363   0.934
23702WAT     H271349   5.186   5.463   1.042
23703WAT      O71350   2.550   1.097   7.983
23703WAT     H171351   2.620   1.026   7.979
23703WAT     H271352   2.459   1.055   7.980
23704WAT      O71353   4.058   2.295   2.223
23704WAT     H171354   4.139   2.337   2.263
23704WAT     H271355   4.000   2.258   2.295
23705WAT      O71356   5.917   6.325   8.111
23705WAT     H171357   5.844   6.394   8.109
23705WAT     H271358   5.882   6.240   8.150
23706WAT      O71359   4.808   1.475   0.621
23706WAT     H171360   4.863   1.535   0.563
23706WAT     H271361   4.861   1.394   0.646
23707WAT      O71362   6.052   9.396   0.274
23707WAT     H171363   6.034   9.299   0.292
23707WAT     H271364   6.146   9.418   0.299
23708WAT      O71365   4.099   8.514   4.380
23708WAT     H171366   4.003   8.485   4.375
23708WAT     H271367   4.151   8.468   4.308
23709WAT      O71368   9.327   4.002   4.552
23709WAT     H171369   9.341   3.937   4.627
23709WAT     H271370   9.403   4.066   4.548
23710WAT      O71371   6.805   6.059   8.413
23710WAT     H171372   6.731   6.123   8.432
23710WAT     H271373   6.767   5.971   8.385
23711WAT      O71374   0.997   9.333   8.690
23711WAT     H171375   0.963   9.243   8.717
23711WAT     H271376   1.009   9.390   8.771
23712WAT      O71377   7.346   0.554   4.540
23712WAT     H171378   7.429   0.549   4.485
23712WAT     H271379   7.273   0.596   4.486
23713WAT      O71380   6.028   2.850   6.779
23713WAT     H171381   5.928   2.847   6.776
23713WAT     H271382   6.058   2.944   6.790
23714WAT      O71383   1.739   6.576   6.507
23714WAT     H171384   1.736   6.502   6.440
23714WAT     H271385   1.667   6.561   6.575
23715WAT      O71386   4.139   4.496   4.133
23715WAT     H171387   4.183   4.448   4.058
23715WAT     H271388   4.082   4.570   4.096
23716WAT      O71389   6.574   5.731   0.956
23716WAT     H171390   6.531   5.654   1.003
23716WAT     H271391   6.558   5.815   1.008
23717WAT      O71392   7.173   1.587   8.804
23717WAT     H171393   7.109   1.553   8.735
23717WAT     H271394   7.123   1.617   8.885
23718WAT      O71395   1.916   1.627   7.939
23718WAT     H171396   1.822   1.660   7.927
23718WAT     H271397   1.963   1.687   8.004
23719WAT      O71398   7.291   4.486   7.503
23719WAT     H171399   7.346   4.570   7.507
23719WAT     H271400   7.344   4.410   7.540
23720WAT      O71401   4.460   0.188   0.479
23720WAT     H171402   4.536   0.194   0.544
23720WAT     H271403   4.479   0.116   0.412
23721WAT      O71404   9.648   4.445   2.670
23721WAT     H171405   9.569   4.390   2.696
23721WAT     H271406   9.670   4.428   2.573
23722WAT      O71407   7.323   0.829   6.380
23722WAT     H171408   7.346   0.781   6.465
23722WAT     H271409   7.260   0.773   6.326
23723WAT      O71410   4.952   1.762   7.202
23723WAT     H171411   4.901   1.677   7.187
23723WAT     H271412   4.891   1.833   7.236
23724WAT      O71413   5.254   4.954   8.033
23724WAT     H171414   5.261   4.873   7.975
23724WAT     H271415   5.281   4.930   8.127
23725WAT      O71416   8.142   4.076   4.180
23725WAT     H171417   8.083   4.132   4.238
23725WAT     H271418   8.133   3.980   4.207
23726WAT      O71419   0.729   9.795   0.934
23726WAT     H171420   0.788   9.776   1.013
23726WAT     H271421   0.762   9.745   0.854
23727WAT      O71422   9.101   9.206   3.212
23727WAT     H171423   9.157   9.249   3.140
23727WAT     H271424   9.083   9.272   3.284
23728WAT      O71425   8.383   4.061   1.827
23728WAT     H171426   8.384   3.980   1.886
23728WAT     H271427   8.396   4.033   1.732
23729WAT      O71428   8.474   2.637   5.120
23729WAT     H171429   8.567   2.659   5.089
23729WAT     H271430   8.477   2.553   5.174
23730WAT      O71431   7.712   2.933   8.869
23730WAT     H171432   7.654   2.987   8.807
23730WAT     H271433   7.759   2.862   8.818
23731WAT      O71434   3.412   2.668   1.376
23731WAT     H171435   3.483   2.722   1.421
23731WAT     H271436   3.366   2.724   1.307
23732WAT      O71437   2.382   6.754   5.132
23732WAT     H171438   2.410   6.829   5.073
23732WAT     H271439   2.286   6.766   5.159
23733WAT      O71440   7.943   8.778   1.672
23733WAT     H171441   7.974   8.757   1.579
23733WAT     H271442   8.004   8.846   1.712
23734WAT      O71443   5.312   7.046   1.409
23734WAT     H171444   5.338   7.107   1.484
23734WAT     H271445   5.212   7.036   1.408
23735WAT      O71446   0.514   1.203   7.071
23735WAT     H171447   0.518   1.253   7.157
23735WAT     H271448   0.596   1.145   7.063
23736WAT      O71449   0.053   7.398   8.995
23736WAT     H171450   0.002   7.463   8.939
23736WAT     H271451   0.120   7.350   8.938
23737WAT      O71452   2.159   1.542   8.248
23737WAT     H171453   2.215   1.572   8.326
23737WAT     H271454   2.219   1.509   8.175
23738WAT      O71455   3.136   4.007   8.037
23738WAT     H171456   3.087   3.957   8.108
23738WAT     H271457   3.091   3.992   7.949
23739WAT      O71458   1.896   1.866   9.708
23739WAT     H171459   1.912   1.781   9.658
23739WAT     H271460   1.921   1.853   9.804
23740WAT      O71461   4.430   8.007   7.882
23740WAT     H171462   4.371   8.081   7.912
23740WAT     H271463   4.462   7.955   7.962
23741WAT      O71464   9.187   9.531   3.602
23741WAT     H171465   9.119   9.462   3.628
23741WAT     H271466   9.192   9.535   3.502
23742WAT      O71467   7.316   8.854   4.155
23742WAT     H171468   7.371   8.772   4.166
23742WAT     H271469   7.243   8.855   4.224
23743WAT      O71470   7.963   0.605   5.106
23743WAT     H171471   7.960   0.522   5.051
23743WAT     H271472   8.037   0.597   5.174
23744WAT      O71473   9.247   3.732   0.238
23744WAT     H171474   9.263   3.743   0.336
23744WAT     H271475   9.187   3.654   0.222
23745WAT      O71476   5.766   8.072   2.926
23745WAT     H171477   5.804   8.117   2.845
23745WAT     H271478   5.668   8.090   2.931
23746WAT      O71479   1.621   3.941   6.882
23746WAT     H171480   1.680   3.896   6.950
23746WAT     H271481   1.589   4.028   6.918
23747WAT      O71482   0.890   3.194   7.331
23747WAT     H171483   0.970   3.192   7.391
23747WAT     H271484   0.919   3.198   7.236
23748WAT      O71485   8.729   7.675   1.838
23748WAT     H171486   8.693   7.582   1.832
23748WAT     H271487   8.823   7.672   1.871
23749WAT      O71488   1.793   1.349   2.157
23749WAT     H171489   1.878   1.306   2.126
23749WAT     H271490   1.773   1.429   2.100
23750WAT      O71491   6.765   1.456   6.729
23750WAT     H171492   6.669   1.475   6.743
23750WAT     H271493   6.802   1.517   6.659
23751WAT      O71494   7.155   0.616   1.465
23751WAT     H171495   7.236   0.668   1.439
23751WAT     H271496   7.163   0.522   1.432
23752WAT      O71497   9.062   7.873   4.237
23752WAT     H171498   9.107   7.809   4.300
23752WAT     H271499   9.078   7.967   4.268
23753WAT      O71500   6.020   9.361   4.098
23753WAT     H171501   6.056   9.268   4.090
23753WAT     H271502   5.958   9.366   4.176
23754WAT      O71503   4.507   8.395   9.755
23754WAT     H171504   4.446   8.317   9.751
23754WAT     H271505   4.491   8.455   9.677
23755WAT      O71506   3.219   6.175   6.139
23755WAT     H171507   3.204   6.255   6.080
23755WAT     H271508   3.296   6.122   6.103
23756WAT      O71509   9.453   6.711   4.734
23756WAT     H171510   9.418   6.805   4.736
23756WAT     H271511   9.401   6.657   4.668
23757WAT      O71512   8.597   6.850   2.691
23757WAT     H171513   8.683   6.845   2.742
23757WAT     H271514   8.587   6.941   2.651
23758WAT      O71515   8.693   0.726   5.736
23758WAT     H171516   8.764   0.723   5.665
23758WAT     H271517   8.668   0.821   5.753
23759WAT      O71518   0.841   2.367   8.348
23759WAT     H171519   0.825   2.335   8.255
23759WAT     H271520   0.938   2.356   8.370
23760WAT      O71521   4.689   8.899   0.986
23760WAT     H171522   4.704   8.817   1.042
23760WAT     H271523   4.660   8.974   1.045
23761WAT      O71524   7.461   1.631   7.532
23761WAT     H171525   7.396   1.664   7.463
23761WAT     H271526   7.478   1.704   7.598
23762WAT      O71527   0.106   1.047   8.306
23762WAT     H171528   0.197   1.009   8.325
23762WAT     H271529   0.037   0.977   8.325
23763WAT      O71530   4.871   4.897   9.790
23763WAT     H171531   4.858   4.949   9.875
23763WAT     H271532   4.933   4.821   9.807
23764WAT      O71533   4.358   1.383   1.723
23764WAT     H171534   4.448   1.340   1.730
23764WAT     H271535   4.346   1.447   1.798
23765WAT      O71536   9.408   3.898   1.085
23765WAT     H171537   9.336   3.865   1.146
23765WAT     H271538   9.370   3.966   1.023
23766WAT      O71539   7.073   6.676   5.847
23766WAT     H171540   7.108   6.617   5.920
23766WAT     H271541   7.094   6.771   5.870
23767WAT      O71542   8.329   3.168   9.322
23767WAT     H171543   8.254   3.114   9.284
23767WAT     H271544   8.324   3.166   9.422
23768WAT      O71545   2.920   6.519   4.861
23768WAT     H171546   2.916   6.618   4.844
23768WAT     H271547   2.837   6.490   4.907
23769WAT      O71548   2.481   0.410   7.560
23769WAT     H171549   2.440   0.406   7.651
23769WAT     H271550   2.444   0.489   7.510
23770WAT      O71551   8.523   1.454   3.751
23770WAT     H171552   8.472   1.525   3.799
23770WAT     H271553   8.602   1.427   3.807
23771WAT      O71554   0.095   1.634   4.268
23771WAT     H171555   0.163   1.705   4.284
23771WAT     H271556   0.004   1.669   4.290
23772WAT      O71557   6.934   0.801   0.628
23772WAT     H171558   6.931   0.900   0.630
23772WAT     H271559   6.985   0.770   0.548
23773WAT      O71560   5.582   6.879   3.779
23773WAT     H171561   5.516   6.886   3.854
23773WAT     H271562   5.666   6.928   3.805
23774WAT      O71563   5.472   7.948   8.560
23774WAT     H171564   5.519   7.882   8.502
23774WAT     H271565   5.421   7.900   8.632
23775WAT      O71566   6.759   5.183   6.039
23775WAT     H171567   6.708   5.219   5.961
23775WAT     H271568   6.845   5.142   6.008
23776WAT      O71569   0.441   3.548   8.951
23776WAT     H171570   0.350   3.541   8.991
23776WAT     H271571   0.483   3.458   8.944
23777WAT      O71572   5.533   1.354   5.898
23777WAT     H171573   5.625   1.317   5.889
23777WAT     H271574   5.495   1.373   5.808
23778WAT      O71575   9.893   3.859   0.970
23778WAT     H171576   9.828   3.900   0.906
23778WAT     H271577   9.843   3.822   1.049
23779WAT      O71578   4.548   9.805   3.569
23779WAT     H171579   4.475   9.804   3.637
23779WAT     H271580   4.536   9.729   3.505
23780WAT      O71581   6.457   9.284   6.801
23780WAT     H171582   6.377   9.332   6.765
23780WAT     H271583   6.533   9.293   6.738
23781WAT      O71584   3.934   0.126   8.334
23781WAT     H171585   3.889   0.181   8.264
23781WAT     H271586   4.032   0.148   8.335
23782WAT      O71587   6.206   8.260   3.309
23782WAT     H171588   6.281   8.246   3.374
23782WAT     H271589   6.142   8.326   3.347
23783WAT      O71590   9.326   9.387   9.139
23783WAT     H171591   9.253   9.455   9.132
23783WAT     H271592   9.408   9.420   9.092
23784WAT      O71593   0.978   0.914   1.190
23784WAT     H171594   0.910   0.842   1.189
23784WAT     H271595   0.999   0.942   1.096
23785WAT      O71596   5.231   4.273   2.366
23785WAT     H171597   5.198   4.251   2.458
23785WAT     H271598   5.254   4.370   2.360
23786WAT      O71599   3.688   3.609   1.125
23786WAT     H171600   3.747   3.582   1.201
23786WAT     H271601   3.646   3.697   1.146
23787WAT      O71602   9.742   9.119   5.284
23787WAT     H171603   9.660   9.139   5.338
23787WAT     H271604   9.756   9.020   5.281
23788WAT      O71605   9.749   5.414   5.418
23788WAT     H171606   9.676   5.354   5.450
23788WAT     H271607   9.759   5.405   5.319
23789WAT      O71608   5.835   8.556   1.061
23789WAT     H171609   5.786   8.506   0.989
23789WAT     H271610   5.806   8.522   1.151
23790WAT      O71611   6.802   2.737   8.956
23790WAT     H171612   6.825   2.726   9.053
23790WAT     H271613   6.703   2.732   8.945
23791WAT      O71614   7.093   5.657   9.066
23791WAT     H171615   7.007   5.614   9.037
23791WAT     H271616   7.164   5.639   8.997
23792WAT      O71617   2.393   4.554   6.714
23792WAT     H171618   2.483   4.517   6.739
23792WAT     H271619   2.341   4.484   6.665
23793WAT      O71620   7.595   8.507   8.072
23793WAT     H171621   7.516   8.459   8.033
23793WAT     H271622   7.563   8.586   8.124
23794WAT      O71623   6.029   9.781   9.363
23794WAT     H171624   6.112   9.804   9.414
23794WAT     H271625   5.969   9.726   9.422
23795WAT      O71626   8.933   1.562   0.609
23795WAT     H171627   8.938   1.634   0.539
23795WAT     H271628   9.025   1.526   0.625
23796WAT      O71629   9.855   6.369   4.176
23796WAT     H171630   9.843   6.444   4.111
23796WAT     H271631   9.847   6.404   4.269
23797WAT      O71632   9.759   6.381   4.891
23797WAT     H171633   9.855   6.394   4.915
23797WAT     H271634   9.701   6.403   4.970
23798WAT      O71635   0.356   9.722   8.462
23798WAT     H171636   0.419   9.742   8.537
23798WAT     H271637   0.303   9.640   8.484
23799WAT      O71638   2.614   8.523   7.442
23799WAT     H171639   2.669   8.439   7.442
23799WAT     H271640   2.673   8.601   7.421
23800WAT      O71641   2.808   7.565   9.601
23800WAT     H171642   2.777   7.655   9.569
23800WAT     H271643   2.732   7.518   9.646
23801WAT      O71644   5.381   3.997   6.554
23801WAT     H171645   5.470   4.007   6.511
23801WAT     H271646   5.329   3.924   6.508
23802WAT      O71647   0.306   4.075   4.447
23802WAT     H171648   0.365   4.037   4.518
23802WAT     H271649   0.362   4.106   4.369
23803WAT      O71650   8.389   2.083   2.127
23803WAT     H171651   8.362   1.993   2.093
23803WAT     H271652   8.464   2.073   2.193
23804WAT      O71653   9.097   9.354   1.890
23804WAT     H171654   9.129   9.320   1.978
23804WAT     H271655   9.159   9.426   1.858
23805WAT      O71656   6.785   8.798   0.750
23805WAT     H171657   6.782   8.711   0.800
23805WAT     H271658   6.700   8.849   0.767
23806WAT      O71659   9.746   9.132   5.822
23806WAT     H171660   9.774   9.037   5.804
23806WAT     H271661   9.650   9.133   5.849
23807WAT      O71662   6.147   7.681   9.132
23807WAT     H171663   6.105   7.650   9.217
23807WAT     H271664   6.087   7.748   9.088
23808WAT      O71665   3.927   6.590   5.097
23808WAT     H171666   3.835   6.565   5.126
23808WAT     H271667   3.941   6.563   5.001
23809WAT      O71668   6.183   7.012   2.959
23809WAT     H171669   6.115   7.040   3.027
23809WAT     H271670   6.150   7.035   2.868
23810WAT      O71671   4.802   3.239   6.015
23810WAT     H171672   4.863   3.164   6.045
23810WAT     H271673   4.732   3.254   6.085
23811WAT      O71674   5.282   8.261   6.258
23811WAT     H171675   5.280   8.315   6.175
23811WAT     H271676   5.373   8.220   6.270
23812WAT      O71677   3.319   8.151   4.421
23812WAT     H171678   3.359   8.083   4.483
23812WAT     H271679   3.355   8.242   4.445
23813WAT      O71680   5.205   1.832   2.897
23813WAT     H171681   5.262   1.914   2.908
23813WAT     H271682   5.148   1.820   2.978
23814WAT      O71683   7.096   1.762   2.746
23814WAT     H171684   6.999   1.740   2.734
23814WAT     H271685   7.115   1.851   2.703
23815WAT      O71686   7.563   9.352   9.285
23815WAT     H171687   7.591   9.262   9.253
23815WAT     H271688   7.643   9.412   9.291
23816WAT      O71689   9.616   3.606   1.935
23816WAT     H171690   9.669   3.558   2.005
23816WAT     H271691   9.573   3.540   1.874
23817WAT      O71692   3.267   2.135   9.566
23817WAT     H171693   3.227   2.225   9.584
23817WAT     H271694   3.196   2.065   9.577
23818WAT      O71695   8.941   5.419   8.123
23818WAT     H171696   8.953   5.512   8.086
23818WAT     H271697   8.851   5.414   8.168
23819WAT      O71698   2.038   4.393   4.839
23819WAT     H171699   2.088   4.470   4.880
23819WAT     H271700   2.104   4.331   4.796
23820WAT      O71701   9.759   3.903   9.335
23820WAT     H171702   9.712   3.850   9.405
23820WAT     H271703   9.780   3.845   9.256
23821WAT      O71704   4.291   9.413   6.436
23821WAT     H171705   4.230   9.396   6.359
23821WAT     H271706   4.280   9.339   6.503
23822WAT      O71707   2.120   9.377   1.476
23822WAT     H171708   2.195   9.430   1.438
23822WAT     H271709   2.152   9.324   1.554
23823WAT      O71710   0.945   0.204   4.464
23823WAT     H171711   0.986   0.113   4.464
23823WAT     H271712   0.969   0.252   4.379
23824WAT      O71713   5.787   0.119   4.783
23824WAT     H171714   5.694   0.090   4.764
23824WAT     H271715   5.802   0.211   4.746
23825WAT      O71716   4.110   9.304   8.552
23825WAT     H171717   4.179   9.256   8.605
23825WAT     H271718   4.065   9.241   8.489
23826WAT      O71719   9.556   9.740   0.752
23826WAT     H171720   9.620   9.737   0.675
23826WAT     H271721   9.603   9.772   0.834
23827WAT      O71722   9.289   3.231   3.423
23827WAT     H171723   9.351   3.241   3.501
23827WAT     H271724   9.343   3.219   3.340
23828WAT      O71725   9.608   8.880   1.012
23828WAT     H171726   9.618   8.818   0.934
23828WAT     H271727   9.552   8.958   0.984
23829WAT      O71728   0.445   4.851   0.179
23829WAT     H171729   0.440   4.830   0.276
23829WAT     H271730   0.485   4.942   0.167
23830WAT      O71731   4.103   0.939   8.444
23830WAT     H171732   4.137   0.901   8.531
23830WAT     H271733   4.180   0.947   8.380
23831WAT      O71734   3.747   2.994   1.130
23831WAT     H171735   3.686   3.050   1.185
23831WAT     H271736   3.771   3.042   1.046
23832WAT      O71737   6.731   4.137   2.981
23832WAT     H171738   6.659   4.120   2.913
23832WAT     H271739   6.809   4.180   2.938
23833WAT      O71740   1.011   1.646   8.118
23833WAT     H171741   0.972   1.589   8.045
23833WAT     H271742   0.947   1.649   8.195
23834WAT      O71743   0.327   6.722   6.723
23834WAT     H171744   0.327   6.665   6.805
23834WAT     H271745   0.312   6.818   6.749
23835WAT      O71746   5.343   6.929   8.231
23835WAT     H171747   5.365   6.850   8.289
23835WAT     H271748   5.428   6.971   8.198
23836WAT      O71749   3.829   9.094   8.724
23836WAT     H171750   3.748   9.095   8.664
23836WAT     H271751   3.856   9.188   8.743
23837WAT      O71752   4.968   2.370   8.714
23837WAT     H171753   4.992   2.452   8.664
23837WAT     H271754   5.022   2.293   8.680
23838WAT      O71755   1.040   9.482   8.949
23838WAT     H171756   1.139   9.484   8.963
23838WAT     H271757   1.015   9.543   8.873
23839WAT      O71758   1.243   0.654   6.777
23839WAT     H171759   1.225   0.678   6.681
23839WAT     H271760   1.325   0.702   6.808
23840WAT      O71761   2.809   1.356   5.873
23840WAT     H171762   2.873   1.427   5.843
23840WAT     H271763   2.737   1.345   5.805
23841WAT      O71764   6.172   5.863   6.884
23841WAT     H171765   6.259   5.828   6.849
23841WAT     H271766   6.143   5.807   6.963
23842WAT      O71767   4.242   5.569   7.329
23842WAT     H171768   4.149   5.592   7.356
23842WAT     H271769   4.306   5.629   7.376
23843WAT      O71770   2.886   6.495   8.683
23843WAT     H171771   2.826   6.455   8.614
23843WAT     H271772   2.941   6.424   8.726
23844WAT      O71773   1.311   9.231   6.220
23844WAT     H171774   1.300   9.320   6.176
23844WAT     H271775   1.385   9.236   6.287
23845WAT      O71776   9.083   2.523   4.314
23845WAT     H171777   9.103   2.556   4.406
23845WAT     H271778   9.168   2.498   4.268
23846WAT      O71779   5.793   0.188   7.634
23846WAT     H171780   5.873   0.245   7.621
23846WAT     H271781   5.779   0.130   7.553
23847WAT      O71782   6.841   7.387   4.364
23847WAT     H171783   6.863   7.385   4.462
23847WAT     H271784   6.742   7.395   4.352
23848WAT      O71785   2.981   3.517   9.674
23848WAT     H171786   3.039   3.494   9.596
23848WAT     H271787   2.886   3.493   9.653
23849WAT      O71788   9.434   3.622   7.104
23849WAT     H171789   9.413   3.718   7.122
23849WAT     H271790   9.520   3.614   7.054
23850WAT      O71791   8.727   7.219   7.910
23850WAT     H171792   8.822   7.249   7.900
23850WAT     H271793   8.719   7.125   7.876
23851WAT      O71794   8.760   5.861   8.863
23851WAT     H171795   8.826   5.787   8.874
23851WAT     H271796   8.800   5.934   8.808
23852WAT      O71797   5.301   0.111   4.856
23852WAT     H171798   5.260   0.047   4.920
23852WAT     H271799   5.229   0.165   4.811
23853WAT      O71800   1.394   2.046   0.131
23853WAT     H171801   1.437   1.982   0.195
23853WAT     H271802   1.431   2.032   0.040
23854WAT      O71803   7.613   8.507   0.052
23854WAT     H171804   7.641   8.417   0.085
23854WAT     H271805   7.514   8.516   0.060
23855WAT      O71806   9.425   5.719   1.508
23855WAT     H171807   9.470   5.648   1.454
23855WAT     H271808   9.353   5.762   1.454
23856WAT      O71809   9.772   7.579   0.969
23856WAT     H171810   9.734   7.656   1.020
23856WAT     H271811   9.761   7.594   0.871
23857WAT      O71812   3.347   2.007   4.891
23857WAT     H171813   3.259   1.970   4.863
23857WAT     H271814   3.414   1.934   4.896
23858WAT      O71815   5.825   8.222   1.334
23858WAT     H171816   5.751   8.251   1.394
23858WAT     H271817   5.913   8.243   1.377
23859WAT      O71818   1.227   3.474   7.357
23859WAT     H171819   1.300   3.541   7.340
23859WAT     H271820   1.179   3.454   7.272
23860WAT      O71821   4.924   8.259   0.666
23860WAT     H171822   4.862   8.331   0.636
23860WAT     H271823   4.888   8.170   0.639
23861WAT      O71824   3.211   4.555   1.110
23861WAT     H171825   3.304   4.540   1.076
23861WAT     H271826   3.155   4.595   1.038
23862WAT      O71827   4.774   8.265   6.273
23862WAT     H171828   4.696   8.289   6.215
23862WAT     H271829   4.785   8.334   6.344
23863WAT      O71830   2.553   2.644   2.022
23863WAT     H171831   2.478   2.635   1.957
23863WAT     H271832   2.566   2.741   2.044
23864WAT      O71833   5.519   9.648   1.584
23864WAT     H171834   5.614   9.668   1.608
23864WAT     H271835   5.516   9.565   1.528
23865WAT      O71836   1.269   3.570   6.401
23865WAT     H171837   1.246   3.580   6.498
23865WAT     H271838   1.352   3.515   6.392
23866WAT      O71839   7.191   2.070   8.139
23866WAT     H171840   7.289   2.089   8.142
23866WAT     H271841   7.175   1.981   8.097
23867WAT      O71842   4.501   1.218   8.059
23867WAT     H171843   4.563   1.290   8.028
23867WAT     H271844   4.457   1.246   8.144
23868WAT      O71845   0.308   1.731   7.312
23868WAT     H171846   0.355   1.766   7.392
23868WAT     H271847   0.226   1.681   7.340
23869WAT      O71848   8.884   0.119   3.371
23869WAT     H171849   8.933   0.041   3.333
23869WAT     H271850   8.888   0.116   3.470
23870WAT      O71851   9.110   5.698   2.041
23870WAT     H171852   9.037   5.716   2.107
23870WAT     H271853   9.083   5.624   1.980
23871WAT      O71854   5.760   7.004   3.950
23871WAT     H171855   5.849   7.000   3.906
23871WAT     H271856   5.737   7.100   3.971
23872WAT      O71857   2.021   3.004   2.374
23872WAT     H171858   1.954   3.022   2.445
23872WAT     H271859   2.088   2.936   2.407
23873WAT      O71860   2.388   0.114   1.459
23873WAT     H171861   2.366   0.052   1.534
23873WAT     H271862   2.410   0.061   1.377
23874WAT      O71863   8.955   1.003   8.002
23874WAT     H171864   8.897   0.941   7.948
23874WAT     H271865   8.911   1.092   8.008
23875WAT      O71866   5.020   0.884   3.505
23875WAT     H171867   4.924   0.899   3.482
23875WAT     H271868   5.051   0.956   3.567
23876WAT      O71869   9.808   3.542   2.117
23876WAT     H171870   9.772   3.468   2.175
23876WAT     H271871   9.856   3.609   2.174
23877WAT      O71872   0.334   4.169   2.345
23877WAT     H171873   0.335   4.136   2.251
23877WAT     H271874   0.291   4.101   2.404
23878WAT      O71875   4.740   6.015   2.026
23878WAT     H171876   4.713   6.044   1.934
23878WAT     H271877   4.715   5.919   2.039
23879WAT      O71878   4.450   6.683   9.110
23879WAT     H171879   4.531   6.637   9.073
23879WAT     H271880   4.455   6.780   9.090
23880WAT      O71881   2.425   7.998   7.595
23880WAT     H171882   2.327   8.007   7.616
23880WAT     H271883   2.452   7.903   7.607
23881WAT      O71884   0.151   6.163   4.085
23881WAT     H171885   0.111   6.244   4.128
23881WAT     H271886   0.122   6.159   3.989
23882WAT      O71887   0.990   4.046   8.326
23882WAT     H171888   0.900   4.043   8.281
23882WAT     H271889   1.018   3.954   8.351
23883WAT      O71890   1.781   1.920   9.184
23883WAT     H171891   1.830   1.951   9.266
23883WAT     H271892   1.690   1.962   9.181
23884WAT      O71893   4.591   4.665   6.145
23884WAT     H171894   4.661   4.596   6.127
23884WAT     H271895   4.502   4.630   6.116
23885WAT      O71896   6.704   6.949   6.962
23885WAT     H171897   6.652   7.001   7.029
23885WAT     H271898   6.678   6.853   6.967
23886WAT      O71899   0.960   0.654   4.451
23886WAT     H171900   0.954   0.580   4.518
23886WAT     H271901   1.043   0.643   4.396
23887WAT      O71902   6.680   2.243   2.473
23887WAT     H171903   6.639   2.334   2.460
23887WAT     H271904   6.767   2.251   2.520
23888WAT      O71905   6.273   3.685   3.037
23888WAT     H171906   6.226   3.652   2.955
23888WAT     H271907   6.371   3.691   3.019
23889WAT      O71908   7.973   8.557   3.644
23889WAT     H171909   7.943   8.478   3.698
23889WAT     H271910   7.896   8.591   3.590
23890WAT      O71911   8.946   6.789   5.562
23890WAT     H171912   8.993   6.715   5.514
23890WAT     H271913   8.857   6.805   5.518
23891WAT      O71914   2.225   7.190   6.488
23891WAT     H171915   2.238   7.155   6.395
23891WAT     H271916   2.313   7.217   6.526
23892WAT      O71917   7.746   2.177   0.932
23892WAT     H171918   7.668   2.210   0.879
23892WAT     H271919   7.748   2.224   1.021
23893WAT      O71920   9.143   7.111   1.816
23893WAT     H171921   9.239   7.140   1.819
23893WAT     H271922   9.134   7.030   1.757
23894WAT      O71923   2.012   3.396   0.704
23894WAT     H171924   2.013   3.496   0.712
23894WAT     H271925   2.105   3.361   0.716
23895WAT      O71926   8.490   0.878   8.870
23895WAT     H171927   8.573   0.840   8.910
23895WAT     H271928   8.497   0.876   8.771
23896WAT      O71929   1.329   0.024   8.457
23896WAT     H171930   1.253  -0.036   8.431
23896WAT     H271931   1.411  -0.002   8.406
23897WAT      O71932   2.986   3.165   5.739
23897WAT     H171933   2.946   3.255   5.722
23897WAT     H271934   2.935   3.120   5.812
23898WAT      O71935   0.578   0.225   7.431
23898WAT     H171936   0.488   0.183   7.441
23898WAT     H271937   0.582   0.275   7.345
23899WAT      O71938   2.547   3.585   2.724
23899WAT     H171939   2.604   3.646   2.668
23899WAT     H271940   2.527   3.502   2.673
23900WAT      O71941   3.736   4.453   2.407
23900WAT     H171942   3.772   4.514   2.478
23900WAT     H271943   3.723   4.505   2.323
23901WAT      O71944   9.661   6.999   2.275
23901WAT     H171945   9.618   6.955   2.354
23901WAT     H271946   9.740   7.052   2.305
23902WAT      O71947   7.945   4.344   5.816
23902WAT     H171948   7.969   4.402   5.893
23902WAT     H271949   7.847   4.354   5.796
23903WAT      O71950   0.836   3.996   1.981
23903WAT     H171951   0.758   3.933   1.975
23903WAT     H271952   0.900   3.962   2.050
23904WAT      O71953   1.968   7.164   5.821
23904WAT     H171954   1.980   7.079   5.872
23904WAT     H271955   1.973   7.242   5.883
23905WAT      O71956   3.996   2.168   3.263
23905WAT     H171957   4.085   2.123   3.264
23905WAT     H271958   4.008   2.266   3.249
23906WAT      O71959   5.553   5.493   8.798
23906WAT     H171960   5.487   5.462   8.730
23906WAT     H271961   5.643   5.500   8.755
23907WAT      O71962   5.108   0.528   8.024
23907WAT     H171963   5.052   0.450   7.996
23907WAT     H271964   5.145   0.511   8.116
23908WAT      O71965   2.510   7.114   5.231
23908WAT     H171966   2.601   7.093   5.197
23908WAT     H271967   2.450   7.138   5.155
23909WAT      O71968   6.127   4.861   5.282
23909WAT     H171969   6.055   4.827   5.222
23909WAT     H271970   6.195   4.789   5.295
23910WAT      O71971   3.919   7.943   5.753
23910WAT     H171972   4.001   7.893   5.779
23910WAT     H271973   3.926   8.038   5.783
23911WAT      O71974   1.322   2.758   8.493
23911WAT     H171975   1.353   2.852   8.479
23911WAT     H271976   1.258   2.733   8.420
23912WAT      O71977   2.937   1.534   1.648
23912WAT     H171978   2.932   1.591   1.731
23912WAT     H271979   2.870   1.460   1.655
23913WAT      O71980   0.717   8.939   9.236
23913WAT     H171981   0.670   9.027   9.233
23913WAT     H271982   0.750   8.922   9.329
23914WAT      O71983   1.019   1.543   2.718
23914WAT     H171984   1.094   1.479   2.702
23914WAT     H271985   1.053   1.622   2.770
23915WAT      O71986   7.734   4.991   4.869
23915WAT     H171987   7.658   4.927   4.855
23915WAT     H271988   7.782   5.006   4.783
23916WAT      O71989   2.088   3.011   5.175
23916WAT     H171990   2.034   3.014   5.091
23916WAT     H271991   2.068   3.091   5.230
23917WAT      O71992   8.609   2.772   8.383
23917WAT     H171993   8.529   2.745   8.437
23917WAT     H271994   8.661   2.690   8.357
23918WAT      O71995   2.608   1.274   2.870
23918WAT     H171996   2.622   1.318   2.782
23918WAT     H271997   2.558   1.188   2.857
23919WAT      O71998   5.280   1.526   0.177
23919WAT     H171999   5.296   1.621   0.202
23919WAT     H272000   5.326   1.466   0.244
23920WAT      O72001   4.871   8.845   7.075
23920WAT     H172002   4.840   8.854   7.170
23920WAT     H272003   4.801   8.882   7.015
23921WAT      O72004   8.980   2.679   8.170
23921WAT     H172005   8.895   2.660   8.219
23921WAT     H272006   8.966   2.667   8.072
23922WAT      O72007   2.137   9.301   3.744
23922WAT     H172008   2.098   9.322   3.654
23922WAT     H272009   2.179   9.383   3.782
23923WAT      O72010   1.146   6.548   9.093
23923WAT     H172011   1.155   6.494   9.176
23923WAT     H272012   1.165   6.491   9.014
23924WAT      O72013   1.527   6.879   7.465
23924WAT     H172014   1.436   6.899   7.502
23924WAT     H272015   1.524   6.882   7.365
23925WAT      O72016   8.034   8.160   9.334
23925WAT     H172017   8.004   8.226   9.265
23925WAT     H272018   8.089   8.089   9.290
23926WAT      O72019   2.711   6.683   0.238
23926WAT     H172020   2.667   6.768   0.211
23926WAT     H272021   2.762   6.697   0.323
23927WAT      O72022   3.881   7.945   3.387
23927WAT     H172023   3.825   8.010   3.439
23927WAT     H272024   3.972   7.983   3.373
23928WAT      O72025   6.954   2.566   8.821
23928WAT     H172026   6.883   2.617   8.870
23928WAT     H272027   7.037   2.563   8.877
23929WAT      O72028   9.567   1.740   8.111
23929WAT     H172029   9.596   1.835   8.107
23929WAT     H272030   9.635   1.682   8.067
23930WAT      O72031   5.738   4.633   6.771
23930WAT     H172032   5.686   4.702   6.720
23930WAT     H272033   5.716   4.542   6.735
23931WAT      O72034   8.693   3.883   0.962
23931WAT     H172035   8.787   3.902   0.989
23931WAT     H272036   8.692   3.809   0.895
23932WAT      O72037   8.428   2.168   4.507
23932WAT     H172038   8.377   2.082   4.513
23932WAT     H272039   8.431   2.198   4.412
23933WAT      O72040   0.808   6.096   1.085
23933WAT     H172041   0.753   6.173   1.053
23933WAT     H272042   0.771   6.062   1.171
23934WAT      O72043   0.508   4.511   8.319
23934WAT     H172044   0.441   4.522   8.393
23934WAT     H272045   0.513   4.595   8.266
23935WAT      O72046   1.239   4.174   9.367
23935WAT     H172047   1.235   4.136   9.459
23935WAT     H272048   1.331   4.212   9.350
23936WAT      O72049   6.109   1.901   2.279
23936WAT     H172050   6.144   1.956   2.204
23936WAT     H272051   6.175   1.902   2.355
23937WAT      O72052   3.987   7.603   1.535
23937WAT     H172053   4.085   7.603   1.556
23937WAT     H272054   3.970   7.667   1.460
23938WAT      O72055   1.520   9.769   4.859
23938WAT     H172056   1.580   9.829   4.911
23938WAT     H272057   1.552   9.762   4.765
23939WAT      O72058   5.260   8.097   9.194
23939WAT     H172059   5.193   8.129   9.128
23939WAT     H272060   5.212   8.057   9.273
23940WAT      O72061   6.758   8.025   2.841
23940WAT     H172062   6.734   8.078   2.759
23940WAT     H272063   6.705   7.940   2.842
23941WAT      O72064   9.030   3.859   5.465
23941WAT     H172065   9.116   3.820   5.433
23941WAT     H272066   9.019   3.839   5.563
23942WAT      O72067   8.225   1.122   7.927
23942WAT     H172068   8.221   1.214   7.965
23942WAT     H272069   8.260   1.059   7.995
23943WAT      O72070   0.151   3.835   2.784
23943WAT     H172071   0.248   3.837   2.809
23943WAT     H272072   0.135   3.763   2.717
23944WAT      O72073   5.184   2.932   6.115
23944WAT     H172074   5.227   2.991   6.046
23944WAT     H272075   5.248   2.859   6.140
23945WAT      O72076   5.323   3.505   1.545
23945WAT     H172077   5.302   3.577   1.479
23945WAT     H272078   5.289   3.417   1.511
23946WAT      O72079   5.839   0.491   1.430
23946WAT     H172080   5.773   0.550   1.384
23946WAT     H272081   5.803   0.398   1.434
23947WAT      O72082   9.371   5.950   8.382
23947WAT     H172083   9.365   6.032   8.325
23947WAT     H272084   9.431   5.968   8.460
23948WAT      O72085   0.598   9.571   1.091
23948WAT     H172086   0.522   9.636   1.099
23948WAT     H272087   0.641   9.582   1.001
23949WAT      O72088   3.738   9.014   3.262
23949WAT     H172089   3.691   8.932   3.230
23949WAT     H272090   3.745   9.080   3.186
23950WAT      O72091   6.325   1.519   7.818
23950WAT     H172092   6.240   1.467   7.823
23950WAT     H272093   6.373   1.514   7.906
23951WAT      O72094   7.900   3.203   5.868
23951WAT     H172095   7.879   3.249   5.954
23951WAT     H272096   7.991   3.231   5.837
23952WAT      O72097   1.454   5.287   4.922
23952WAT     H172098   1.428   5.286   4.825
23952WAT     H272099   1.533   5.228   4.936
23953WAT      O72100   9.777   4.379   1.544
23953WAT     H172101   9.819   4.450   1.601
23953WAT     H272102   9.707   4.332   1.598
23954WAT      O72103   3.146   4.068   8.704
23954WAT     H172104   3.179   3.973   8.708
23954WAT     H272105   3.046   4.068   8.695
23955WAT      O72106   1.136   5.413   2.506
23955WAT     H172107   1.051   5.465   2.512
23955WAT     H272108   1.188   5.442   2.425
23956WAT      O72109   2.803   7.466   3.934
23956WAT     H172110   2.802   7.488   3.837
23956WAT     H272111   2.876   7.517   3.980
23957WAT      O72112   5.357   1.957   8.424
23957WAT     H172113   5.425   2.016   8.468
23957WAT     H272114   5.347   1.984   8.328
23958WAT      O72115   0.692   2.219   8.134
23958WAT     H172116   0.610   2.246   8.185
23958WAT     H272117   0.719   2.126   8.161
23959WAT      O72118   9.003   1.516   2.538
23959WAT     H172119   9.044   1.551   2.622
23959WAT     H272120   9.029   1.420   2.526
23960WAT      O72121   9.309   2.929   1.345
23960WAT     H172122   9.222   2.925   1.393
23960WAT     H272123   9.304   2.998   1.272
23961WAT      O72124   5.215   8.682   7.279
23961WAT     H172125   5.193   8.732   7.195
23961WAT     H272126   5.315   8.680   7.290
23962WAT      O72127   4.765   0.917   3.670
23962WAT     H172128   4.739   1.003   3.715
23962WAT     H272129   4.808   0.857   3.736
23963WAT      O72130   4.639   5.055   3.978
23963WAT     H172131   4.572   5.016   4.041
23963WAT     H272132   4.729   5.015   3.996
23964WAT      O72133   9.786   6.138   0.552
23964WAT     H172134   9.850   6.156   0.627
23964WAT     H272135   9.835   6.141   0.465
23965WAT      O72136   7.093   2.344   5.896
23965WAT     H172137   7.068   2.431   5.855
23965WAT     H272138   7.010   2.298   5.929
23966WAT      O72139   4.279   4.635   5.077
23966WAT     H172140   4.218   4.597   5.008
23966WAT     H272141   4.297   4.732   5.057
23967WAT      O72142   1.261   5.709   8.215
23967WAT     H172143   1.301   5.634   8.163
23967WAT     H272144   1.198   5.672   8.284
23968WAT      O72145   0.171   6.588   2.103
23968WAT     H172146   0.196   6.678   2.138
23968WAT     H272147   0.237   6.559   2.033
23969WAT      O72148   3.093   9.043   5.864
23969WAT     H172149   3.045   9.089   5.938
23969WAT     H272150   3.119   9.111   5.795
23970WAT      O72151   5.907   6.724   1.605
23970WAT     H172152   5.937   6.806   1.654
23970WAT     H272153   5.811   6.735   1.578
23971WAT      O72154   8.805   7.663   4.723
23971WAT     H172155   8.717   7.640   4.766
23971WAT     H272156   8.804   7.635   4.627
23972WAT      O72157   7.170   4.626   5.146
23972WAT     H172158   7.109   4.555   5.112
23972WAT     H272159   7.193   4.606   5.242
23973WAT      O72160   4.191   9.562   3.231
23973WAT     H172161   4.236   9.608   3.154
23973WAT     H272162   4.092   9.565   3.218
23974WAT      O72163   5.666   8.779   1.560
23974WAT     H172164   5.699   8.707   1.622
23974WAT     H272165   5.612   8.738   1.487
23975WAT      O72166   1.745   9.267   0.460
23975WAT     H172167   1.707   9.226   0.377
23975WAT     H272168   1.845   9.271   0.452
23976WAT      O72169   5.315   4.415   8.215
23976WAT     H172170   5.308   4.349   8.140
23976WAT     H272171   5.300   4.508   8.180
23977WAT      O72172   5.954   5.163   0.261
23977WAT     H172173   5.886   5.205   0.200
23977WAT     H272174   6.029   5.228   0.276
23978WAT      O72175   0.758   9.515   2.219
23978WAT     H172176   0.691   9.443   2.234
23978WAT     H272177   0.806   9.534   2.305
23979WAT      O72178   6.567   2.144   2.958
23979WAT     H172179   6.496   2.094   3.007
23979WAT     H272180   6.596   2.223   3.013
23980WAT      O72181   3.058   6.502   3.478
23980WAT     H172182   3.045   6.513   3.380
23980WAT     H272183   2.970   6.512   3.525
23981WAT      O72184   9.285   9.589   7.152
23981WAT     H172185   9.329   9.528   7.086
23981WAT     H272186   9.240   9.664   7.103
23982WAT      O72187   5.767   7.634   4.753
23982WAT     H172188   5.672   7.602   4.758
23982WAT     H272189   5.828   7.562   4.785
23983WAT      O72190   1.103   8.797   2.217
23983WAT     H172191   1.049   8.768   2.138
23983WAT     H272192   1.105   8.722   2.284
23984WAT      O72193   1.628   5.668   9.802
23984WAT     H172194   1.633   5.683   9.901
23984WAT     H272195   1.714   5.695   9.760
23985WAT      O72196   7.684   7.948   3.222
23985WAT     H172197   7.750   7.876   3.242
23985WAT     H272198   7.730   8.037   3.227
23986WAT      O72199   1.211   6.197   7.889
23986WAT     H172200   1.175   6.147   7.967
23986WAT     H272201   1.309   6.182   7.881
23987WAT      O72202   0.830   2.750   5.001
23987WAT     H172203   0.743   2.772   5.046
23987WAT     H272204   0.900   2.814   5.031
23988WAT      O72205   6.566   4.334   0.713
23988WAT     H172206   6.647   4.288   0.749
23988WAT     H272207   6.563   4.325   0.613
23989WAT      O72208   4.177   5.427   4.678
23989WAT     H172209   4.240   5.491   4.723
23989WAT     H272210   4.227   5.348   4.645
23990WAT      O72211   6.765   6.456   8.604
23990WAT     H172212   6.747   6.432   8.700
23990WAT     H272213   6.725   6.386   8.544
23991WAT      O72214   4.632   5.761   2.002
23991WAT     H172215   4.578   5.723   2.077
23991WAT     H272216   4.709   5.701   1.983
23992WAT      O72217   5.963   7.311   0.032
23992WAT     H172218   5.979   7.315   0.131
23992WAT     H272219   5.911   7.229   0.010
23993WAT      O72220   1.305   7.582   8.556
23993WAT     H172221   1.363   7.555   8.480
23993WAT     H272222   1.245   7.506   8.582
23994WAT      O72223   2.311   2.876   7.056
23994WAT     H172224   2.390   2.914   7.105
23994WAT     H272225   2.254   2.951   7.021
23995WAT      O72226   9.317   8.850   1.093
23995WAT     H172227   9.332   8.823   1.188
23995WAT     H272228   9.312   8.768   1.035
23996WAT      O72229   9.720   4.393   4.681
23996WAT     H172230   9.637   4.447   4.663
23996WAT     H272231   9.709   4.342   4.766
23997WAT      O72232   9.187   0.419   1.973
23997WAT     H172233   9.123   0.350   2.007
23997WAT     H272234   9.151   0.511   1.991
23998WAT      O72235   5.408   4.748   1.134
23998WAT     H172236   5.468   4.808   1.186
23998WAT     H272237   5.375   4.674   1.193
23999WAT      O72238   4.342   6.017   1.599
23999WAT     H172239   4.246   6.026   1.625
23999WAT     H272240   4.350   5.955   1.521
24000WAT      O72241   8.310   7.624   6.940
24000WAT     H172242   8.387   7.682   6.911
24000WAT     H272243   8.245   7.615   6.864
24001WAT      O72244   8.143   9.601   2.099
24001WAT     H172245   8.129   9.517   2.046
24001WAT     H272246   8.127   9.681   2.041
24002WAT      O72247   3.403   2.721   0.364
24002WAT     H172248   3.407   2.807   0.313
24002WAT     H272249   3.310   2.684   0.359
24003WAT      O72250   2.913   9.276   5.648
24003WAT     H172251   3.009   9.248   5.661
24003WAT     H272252   2.857   9.239   5.722
24004WAT      O72253   3.843   1.625   1.585
24004WAT     H172254   3.801   1.678   1.659
24004WAT     H272255   3.942   1.622   1.598
24005WAT      O72256   0.187   6.769   1.722
24005WAT     H172257   0.106   6.713   1.739
24005WAT     H272258   0.178   6.856   1.770
24006WAT      O72259   5.411   7.029   7.255
24006WAT     H172260   5.463   6.955   7.297
24006WAT     H272261   5.317   7.000   7.241
24007WAT      O72262   0.936   4.629   6.996
24007WAT     H172263   0.887   4.640   6.909
24007WAT     H272264   0.976   4.538   7.000
24008WAT      O72265   5.810   2.682   7.807
24008WAT     H172266   5.873   2.669   7.731
24008WAT     H272267   5.748   2.604   7.813
24009WAT      O72268   7.995   3.347   7.037
24009WAT     H172269   7.990   3.288   7.117
24009WAT     H272270   8.027   3.294   6.958
24010WAT      O72271   0.008   5.866   7.280
24010WAT     H172272   0.054   5.954   7.286
24010WAT     H272273   0.074   5.795   7.258
24011WAT      O72274   3.587   1.536   1.507
24011WAT     H172275   3.676   1.576   1.529
24011WAT     H272276   3.592   1.490   1.418
24012WAT      O72277   7.873   7.496   2.813
24012WAT     H172278   7.838   7.589   2.808
24012WAT     H272279   7.970   7.494   2.788
24013WAT      O72280   2.668   1.495   8.433
24013WAT     H172281   2.761   1.458   8.434
24013WAT     H272282   2.670   1.591   8.463
24014WAT      O72283   5.862   4.000   4.633
24014WAT     H172284   5.892   3.930   4.567
24014WAT     H272285   5.932   4.010   4.704
24015WAT      O72286   1.775   0.397   7.008
24015WAT     H172287   1.688   0.365   7.046
24015WAT     H272288   1.819   0.458   7.075
24016WAT      O72289   0.785   1.142   7.087
24016WAT     H172290   0.826   1.224   7.128
24016WAT     H272291   0.819   1.132   6.993
24017WAT      O72292   3.978   9.124   7.357
24017WAT     H172293   3.934   9.214   7.363
24017WAT     H272294   3.935   9.062   7.423
24018WAT      O72295   7.922   7.987   2.016
24018WAT     H172296   7.909   8.082   2.047
24018WAT     H272297   7.861   7.968   1.939
24019WAT      O72298   9.332   1.053   5.063
24019WAT     H172299   9.308   0.955   5.064
24019WAT     H272300   9.282   1.099   5.136
24020WAT      O72301   7.941   8.495   8.392
24020WAT     H172302   7.848   8.530   8.391
24020WAT     H272303   7.966   8.467   8.485
24021WAT      O72304   3.104   5.793   5.890
24021WAT     H172305   3.077   5.856   5.817
24021WAT     H272306   3.038   5.798   5.965
24022WAT      O72307   9.462   1.946   6.703
24022WAT     H172308   9.384   1.884   6.691
24022WAT     H272309   9.479   1.958   6.801
24023WAT      O72310   1.744   6.945   1.803
24023WAT     H172311   1.760   7.041   1.780
24023WAT     H272312   1.831   6.900   1.819
24024WAT      O72313   6.067   7.799   5.263
24024WAT     H172314   6.036   7.864   5.194
24024WAT     H272315   6.164   7.780   5.250
24025WAT      O72316   9.548   7.960   0.473
24025WAT     H172317   9.606   7.984   0.395
24025WAT     H272318   9.452   7.976   0.449
24026WAT      O72319   4.112   5.960   5.305
24026WAT     H172320   4.115   6.058   5.326
24026WAT     H272321   4.204   5.922   5.312
24027WAT      O72322   3.165   7.626   0.558
24027WAT     H172323   3.137   7.681   0.637
24027WAT     H272324   3.180   7.531   0.588
24028WAT      O72325   0.735   0.784   1.237
24028WAT     H172326   0.719   0.849   1.311
24028WAT     H272327   0.745   0.692   1.275
24029WAT      O72328   3.989   6.777   4.727
24029WAT     H172329   3.918   6.846   4.722
24029WAT     H272330   3.949   6.687   4.711
24030WAT      O72331   6.294   2.816   7.464
24030WAT     H172332   6.244   2.845   7.383
24030WAT     H272333   6.304   2.716   7.464
24031WAT      O72334   6.048   7.439   5.628
24031WAT     H172335   6.014   7.352   5.594
24031WAT     H272336   5.972   7.503   5.639
24032WAT      O72337   3.298   1.386   4.574
24032WAT     H172338   3.361   1.324   4.530
24032WAT     H272339   3.243   1.433   4.505
24033WAT      O72340   2.595   8.658   4.271
24033WAT     H172341   2.660   8.585   4.249
24033WAT     H272342   2.617   8.697   4.360
24034WAT      O72343   8.302   4.168   1.165
24034WAT     H172344   8.355   4.098   1.116
24034WAT     H272345   8.229   4.124   1.217
24035WAT      O72346   6.472   9.326   2.850
24035WAT     H172347   6.502   9.290   2.938
24035WAT     H272348   6.388   9.280   2.822
24036WAT      O72349   6.961   8.400   1.246
24036WAT     H172350   7.019   8.464   1.195
24036WAT     H272351   6.973   8.415   1.344
24037WAT      O72352   9.597   3.409   3.298
24037WAT     H172353   9.564   3.314   3.299
24037WAT     H272354   9.682   3.415   3.350
24038WAT      O72355   8.809   0.329   6.912
24038WAT     H172356   8.821   0.421   6.949
24038WAT     H272357   8.728   0.287   6.953
24039WAT      O72358   9.132   2.664   7.216
24039WAT     H172359   9.119   2.721   7.297
24039WAT     H272360   9.135   2.723   7.135
24040WAT      O72361   2.305   5.888   5.189
24040WAT     H172362   2.306   5.800   5.236
24040WAT     H272363   2.315   5.961   5.257
24041WAT      O72364   8.810   0.571   7.019
24041WAT     H172365   8.890   0.630   7.028
24041WAT     H272366   8.737   0.602   7.080
24042WAT      O72367   2.922   6.648   5.467
24042WAT     H172368   2.987   6.572   5.475
24042WAT     H272369   2.970   6.730   5.434
24043WAT      O72370   5.768   3.769   4.790
24043WAT     H172371   5.846   3.824   4.761
24043WAT     H272372   5.783   3.735   4.882
24044WAT      O72373   3.334   3.111   8.134
24044WAT     H172374   3.403   3.077   8.198
24044WAT     H272375   3.302   3.201   8.166
24045WAT      O72376   3.445   2.725   0.927
24045WAT     H172377   3.498   2.719   1.011
24045WAT     H272378   3.488   2.668   0.857
24046WAT      O72379   4.146   8.662   9.168
24046WAT     H172380   4.162   8.760   9.155
24046WAT     H272381   4.084   8.628   9.097
24047WAT      O72382   6.124   0.771   2.173
24047WAT     H172383   6.082   0.769   2.082
24047WAT     H272384   6.069   0.828   2.234
24048WAT      O72385   4.968   5.806   8.722
24048WAT     H172386   5.064   5.786   8.704
24048WAT     H272387   4.960   5.880   8.789
24049WAT      O72388   3.475   8.369   5.535
24049WAT     H172389   3.390   8.328   5.503
24049WAT     H272390   3.553   8.317   5.500
24050WAT      O72391   7.675   1.515   6.929
24050WAT     H172392   7.631   1.429   6.902
24050WAT     H272393   7.649   1.538   7.023
24051WAT      O72394   3.517   0.756   1.273
24051WAT     H172395   3.616   0.756   1.258
24051WAT     H272396   3.486   0.850   1.285
24052WAT      O72397   4.965   4.653   8.075
24052WAT     H172398   4.949   4.616   8.166
24052WAT     H272399   4.943   4.584   8.006
24053WAT      O72400   0.388   7.598   7.123
24053WAT     H172401   0.353   7.510   7.154
24053WAT     H272402   0.327   7.672   7.153
24054WAT      O72403   0.301   1.483   2.810
24054WAT     H172404   0.284   1.485   2.712
24054WAT     H272405   0.355   1.564   2.836
24055WAT      O72406   4.369   5.479   4.153
24055WAT     H172407   4.408   5.545   4.217
24055WAT     H272408   4.291   5.521   4.106
24056WAT      O72409   5.206   3.569   8.014
24056WAT     H172410   5.300   3.546   7.990
24056WAT     H272411   5.153   3.485   8.026
24057WAT      O72412   1.614   3.295   9.640
24057WAT     H172413   1.669   3.221   9.679
24057WAT     H272414   1.617   3.289   9.540
24058WAT      O72415   8.834   1.132   7.730
24058WAT     H172416   8.896   1.115   7.654
24058WAT     H272417   8.816   1.230   7.737
24059WAT      O72418   0.012   2.716   4.619
24059WAT     H172419   0.112   2.715   4.625
24059WAT     H272420  -0.017   2.796   4.567
24060WAT      O72421   4.182   9.779   7.801
24060WAT     H172422   4.109   9.818   7.858
24060WAT     H272423   4.253   9.740   7.860
24061WAT      O72424   0.125   2.283   1.629
24061WAT     H172425   0.193   2.286   1.702
24061WAT     H272426   0.171   2.267   1.541
24062WAT      O72427   1.535   8.029   3.152
24062WAT     H172428   1.549   7.932   3.132
24062WAT     H272429   1.438   8.050   3.151
24063WAT      O72430   4.014   5.838   7.091
24063WAT     H172431   4.035   5.868   6.998
24063WAT     H272432   4.099   5.822   7.141
24064WAT      O72433   3.293   5.589   0.238
24064WAT     H172434   3.300   5.626   0.330
24064WAT     H272435   3.236   5.507   0.239
24065WAT      O72436   0.769   1.134   4.049
24065WAT     H172437   0.729   1.044   4.067
24065WAT     H272438   0.703   1.205   4.074
24066WAT      O72439   9.355   3.386   6.580
24066WAT     H172440   9.300   3.307   6.554
24066WAT     H272441   9.426   3.402   6.511
24067WAT      O72442   8.731   2.829   8.913
24067WAT     H172443   8.723   2.918   8.869
24067WAT     H272444   8.692   2.833   9.005
24068WAT      O72445   0.999   6.226   6.600
24068WAT     H172446   1.045   6.232   6.689
24068WAT     H272447   1.018   6.136   6.560
24069WAT      O72448   4.408   9.077   7.114
24069WAT     H172449   4.312   9.085   7.142
24069WAT     H272450   4.460   9.155   7.148
24070WAT      O72451   7.561   8.404   2.497
24070WAT     H172452   7.461   8.398   2.500
24070WAT     H272453   7.600   8.355   2.575
24071WAT      O72454   8.764   3.772   8.599
24071WAT     H172455   8.717   3.860   8.603
24071WAT     H272456   8.805   3.752   8.688
24072WAT      O72457   3.702   2.239   3.882
24072WAT     H172458   3.623   2.286   3.922
24072WAT     H272459   3.751   2.190   3.954
24073WAT      O72460   0.566   2.228   0.800
24073WAT     H172461   0.536   2.143   0.845
24073WAT     H272462   0.584   2.210   0.703
24074WAT      O72463   0.853   4.681   0.619
24074WAT     H172464   0.825   4.728   0.536
24074WAT     H272465   0.906   4.599   0.595
24075WAT      O72466   1.568   4.665   9.445
24075WAT     H172467   1.535   4.748   9.490
24075WAT     H272468   1.643   4.688   9.383
24076WAT      O72469   1.316   3.036   3.183
24076WAT     H172470   1.355   3.114   3.135
24076WAT     H272471   1.342   3.040   3.280
24077WAT      O72472   9.512   6.093   4.843
24077WAT     H172473   9.425   6.118   4.802
24077WAT     H272474   9.587   6.125   4.785
24078WAT      O72475   6.293   2.833   8.233
24078WAT     H172476   6.211   2.777   8.224
24078WAT     H272477   6.278   2.922   8.189
24079WAT      O72478   6.878   2.768   9.259
24079WAT     H172479   6.886   2.830   9.337
24079WAT     H272480   6.802   2.705   9.274
24080WAT      O72481   9.688   2.806   9.133
24080WAT     H172482   9.711   2.859   9.215
24080WAT     H272483   9.593   2.776   9.139
24081WAT      O72484   3.482   8.745   5.752
24081WAT     H172485   3.394   8.708   5.722
24081WAT     H272486   3.488   8.841   5.727
24082WAT      O72487   7.600   7.555   7.813
24082WAT     H172488   7.628   7.493   7.740
24082WAT     H272489   7.637   7.646   7.797
24083WAT      O72490   4.505   6.506   1.535
24083WAT     H172491   4.408   6.491   1.556
24083WAT     H272492   4.512   6.559   1.450
24084WAT      O72493   3.308   0.456   4.724
24084WAT     H172494   3.400   0.461   4.686
24084WAT     H272495   3.249   0.404   4.661
24085WAT      O72496   5.740   9.153   4.811
24085WAT     H172497   5.654   9.131   4.857
24085WAT     H272498   5.796   9.211   4.870
24086WAT      O72499   3.154   4.485   4.121
24086WAT     H172500   3.191   4.578   4.111
24086WAT     H272501   3.063   4.490   4.162
24087WAT      O72502   9.255   6.939   6.157
24087WAT     H172503   9.330   6.899   6.105
24087WAT     H272504   9.177   6.955   6.096
24088WAT      O72505   2.586   6.670   4.806
24088WAT     H172506   2.628   6.635   4.890
24088WAT     H272507   2.651   6.663   4.731
24089WAT      O72508   4.271   7.146   5.558
24089WAT     H172509   4.333   7.175   5.631
24089WAT     H272510   4.305   7.180   5.470
24090WAT      O72511   4.534   1.066   3.182
24090WAT     H172512   4.512   1.010   3.102
24090WAT     H272513   4.450   1.083   3.234
24091WAT      O72514   4.634   4.258   8.480
24091WAT     H172515   4.538   4.284   8.494
24091WAT     H272516   4.679   4.325   8.422
24092WAT      O72517   0.633   2.061   7.829
24092WAT     H172518   0.661   1.972   7.792
24092WAT     H272519   0.711   2.106   7.873
24093WAT      O72520   0.800   7.377   3.384
24093WAT     H172521   0.887   7.330   3.370
24093WAT     H272522   0.787   7.395   3.481
24094WAT      O72523   3.983   8.519   2.932
24094WAT     H172524   4.030   8.570   2.860
24094WAT     H272525   4.029   8.534   3.019
24095WAT      O72526   5.718   1.300   1.000
24095WAT     H172527   5.810   1.296   0.960
24095WAT     H272528   5.721   1.355   1.084
24096WAT      O72529   8.885   2.686   7.617
24096WAT     H172530   8.808   2.693   7.553
24096WAT     H272531   8.854   2.713   7.708
24097WAT      O72532   4.067   1.897   2.686
24097WAT     H172533   4.010   1.877   2.766
24097WAT     H272534   4.101   1.811   2.647
24098WAT      O72535   7.713   1.559   7.467
24098WAT     H172536   7.620   1.574   7.501
24098WAT     H272537   7.709   1.528   7.373
24099WAT      O72538   9.422   4.105   6.512
24099WAT     H172539   9.469   4.058   6.586
24099WAT     H272540   9.387   4.038   6.446
24100WAT      O72541   3.154   0.118   8.108
24100WAT     H172542   3.089   0.191   8.129
24100WAT     H272543   3.204   0.093   8.190
24101WAT      O72544   3.666   0.019   0.434
24101WAT     H172545   3.582   0.072   0.423
24101WAT     H272546   3.723   0.030   0.352
24102WAT      O72547   0.827   5.993   6.251
24102WAT     H172548   0.807   6.012   6.155
24102WAT     H272549   0.913   6.037   6.277
24103WAT      O72550   6.224   0.357   8.723
24103WAT     H172551   6.219   0.259   8.739
24103WAT     H272552   6.309   0.394   8.759
24104WAT      O72553   2.986   0.248   0.582
24104WAT     H172554   2.945   0.157   0.583
24104WAT     H272555   2.932   0.309   0.639
24105WAT      O72556   9.350   0.824   4.581
24105WAT     H172557   9.379   0.779   4.666
24105WAT     H272558   9.251   0.833   4.580
24106WAT      O72559   9.629   4.060   8.251
24106WAT     H172560   9.570   3.978   8.249
24106WAT     H272561   9.644   4.087   8.346
24107WAT      O72562   9.747   2.229   7.004
24107WAT     H172563   9.797   2.299   7.054
24107WAT     H272564   9.771   2.232   6.907
24108WAT      O72565   2.205   8.064   9.550
24108WAT     H172566   2.200   8.147   9.495
24108WAT     H272567   2.236   7.988   9.493
24109WAT      O72568   7.857   8.439   7.623
24109WAT     H172569   7.927   8.383   7.667
24109WAT     H272570   7.823   8.507   7.687
24110WAT      O72571   5.057   2.293   1.222
24110WAT     H172572   5.038   2.243   1.306
24110WAT     H272573   4.971   2.331   1.186
24111WAT      O72574   5.049   1.149   9.219
24111WAT     H172575   4.961   1.159   9.266
24111WAT     H272576   5.037   1.167   9.122
24112WAT      O72577   3.697   7.014   8.149
24112WAT     H172578   3.705   7.080   8.223
24112WAT     H272579   3.620   7.041   8.090
24113WAT      O72580   1.037   6.434   6.906
24113WAT     H172581   0.948   6.469   6.937
24113WAT     H272582   1.033   6.334   6.901
24114WAT      O72583   5.000   1.474   0.925
24114WAT     H172584   5.098   1.464   0.936
24114WAT     H272585   4.954   1.454   1.012
24115WAT      O72586   9.396   7.326   8.337
24115WAT     H172587   9.445   7.330   8.250
24115WAT     H272588   9.384   7.231   8.365
24116WAT      O72589   2.238   4.711   9.837
24116WAT     H172590   2.275   4.618   9.840
24116WAT     H272591   2.158   4.718   9.896
24117WAT      O72592   0.432   9.538   2.123
24117WAT     H172593   0.386   9.496   2.045
24117WAT     H272594   0.460   9.467   2.188
24118WAT      O72595   9.195   3.063   5.430
24118WAT     H172596   9.105   3.019   5.426
24118WAT     H272597   9.188   3.147   5.484
24119WAT      O72598   8.627   3.878   4.667
24119WAT     H172599   8.527   3.885   4.673
24119WAT     H272600   8.665   3.873   4.759
24120WAT      O72601   9.153   2.546   8.338
24120WAT     H172602   9.185   2.454   8.316
24120WAT     H272603   9.099   2.582   8.262
24121WAT      O72604   0.615   4.571   0.306
24121WAT     H172605   0.586   4.588   0.212
24121WAT     H272606   0.698   4.623   0.326
24122WAT      O72607   6.211   8.286   3.854
24122WAT     H172608   6.245   8.195   3.829
24122WAT     H272609   6.112   8.281   3.870
24123WAT      O72610   9.457   2.779   7.361
24123WAT     H172611   9.410   2.831   7.432
24123WAT     H272612   9.554   2.804   7.360
24124WAT      O72613   7.826   3.252   8.749
24124WAT     H172614   7.831   3.268   8.848
24124WAT     H272615   7.885   3.175   8.725
24125WAT      O72616   6.944   0.975   2.885
24125WAT     H172617   6.972   1.012   2.797
24125WAT     H272618   7.022   0.928   2.928
24126WAT      O72619   4.222   5.564   0.370
24126WAT     H172620   4.287   5.603   0.304
24126WAT     H272621   4.252   5.474   0.398
24127WAT      O72622   6.794   2.360   1.893
24127WAT     H172623   6.784   2.439   1.832
24127WAT     H272624   6.790   2.391   1.988
24128WAT      O72625   0.021   8.433   9.524
24128WAT     H172626   0.018   8.341   9.562
24128WAT     H272627  -0.062   8.483   9.551
24129WAT      O72628   7.242   8.072   2.528
24129WAT     H172629   7.213   8.107   2.617
24129WAT     H272630   7.319   8.009   2.540
24130WAT      O72631   2.880   6.233   7.698
24130WAT     H172632   2.881   6.160   7.630
24130WAT     H272633   2.970   6.277   7.700
24131WAT      O72634   3.036   3.789   4.765
24131WAT     H172635   2.939   3.776   4.786
24131WAT     H272636   3.091   3.771   4.846
24132WAT      O72637   0.253   7.963   3.181
24132WAT     H172638   0.315   7.990   3.107
24132WAT     H272639   0.283   8.003   3.267
24133WAT      O72640   5.226   3.711   6.768
24133WAT     H172641   5.186   3.801   6.785
24133WAT     H272642   5.158   3.652   6.725
24134WAT      O72643   9.054   6.890   2.966
24134WAT     H172644   9.093   6.945   2.892
24134WAT     H272645   9.114   6.894   3.046
24135WAT      O72646   9.373   4.311   1.592
24135WAT     H172647   9.451   4.285   1.649
24135WAT     H272648   9.365   4.247   1.515
24136WAT      O72649   8.100   4.334   3.198
24136WAT     H172650   8.148   4.389   3.130
24136WAT     H272651   8.135   4.240   3.196
24137WAT      O72652   0.668   4.341   0.469
24137WAT     H172653   0.632   4.431   0.443
24137WAT     H272654   0.624   4.271   0.413
24138WAT      O72655   6.997   0.892   7.653
24138WAT     H172656   7.004   0.973   7.710
24138WAT     H272657   7.066   0.895   7.581
24139WAT      O72658   2.397   6.527   4.933
24139WAT     H172659   2.382   6.601   4.998
24139WAT     H272660   2.433   6.564   4.848
24140WAT      O72661   0.083   2.656   6.923
24140WAT     H172662   0.181   2.672   6.938
24140WAT     H272663   0.061   2.674   6.827
24141WAT      O72664   4.599   2.021   9.675
24141WAT     H172665   4.557   2.098   9.627
24141WAT     H272666   4.603   1.942   9.613
24142WAT      O72667   6.076   3.302   8.398
24142WAT     H172668   6.008   3.230   8.411
24142WAT     H272669   6.061   3.346   8.310
24143WAT      O72670   8.593   2.099   0.016
24143WAT     H172671   8.548   2.048  -0.057
24143WAT     H272672   8.683   2.059   0.034
24144WAT      O72673   8.762   3.225   1.011
24144WAT     H172674   8.807   3.298   1.061
24144WAT     H272675   8.784   3.232   0.913
24145WAT      O72676   0.333   0.056   4.268
24145WAT     H172677   0.387  -0.004   4.209
24145WAT     H272678   0.237   0.029   4.263
24146WAT      O72679   4.281   8.329   3.214
24146WAT     H172680   4.358   8.392   3.218
24146WAT     H272681   4.213   8.355   3.283
24147WAT      O72682   6.094   6.054   2.391
24147WAT     H172683   6.048   5.968   2.370
24147WAT     H272684   6.191   6.046   2.369
24148WAT      O72685   9.678   9.638   1.851
24148WAT     H172686   9.773   9.658   1.824
24148WAT     H272687   9.621   9.633   1.769
24149WAT      O72688   2.907   2.961   1.696
24149WAT     H172689   2.983   2.932   1.638
24149WAT     H272690   2.846   2.883   1.712
24150WAT      O72691   0.328   7.530   4.221
24150WAT     H172692   0.379   7.583   4.289
24150WAT     H272693   0.282   7.592   4.158
24151WAT      O72694   0.466   8.834   8.938
24151WAT     H172695   0.415   8.749   8.946
24151WAT     H272696   0.558   8.815   8.903
24152WAT      O72697   2.395   5.386   4.719
24152WAT     H172698   2.475   5.440   4.691
24152WAT     H272699   2.358   5.338   4.641
24153WAT      O72700   4.858   7.318   4.793
24153WAT     H172701   4.821   7.271   4.873
24153WAT     H272702   4.904   7.252   4.734
24154WAT      O72703   4.837   5.826   2.263
24154WAT     H172704   4.771   5.898   2.281
24154WAT     H272705   4.826   5.753   2.330
24155WAT      O72706   7.331   2.429   2.549
24155WAT     H172707   7.431   2.433   2.538
24155WAT     H272708   7.305   2.335   2.574
24156WAT      O72709   9.464   9.525   1.053
24156WAT     H172710   9.484   9.574   1.138
24156WAT     H272711   9.368   9.537   1.030
24157WAT      O72712   1.733   7.309   8.749
24157WAT     H172713   1.722   7.343   8.842
24157WAT     H272714   1.671   7.359   8.688
24158WAT      O72715   4.232   5.641   1.782
24158WAT     H172716   4.309   5.704   1.793
24158WAT     H272717   4.256   5.571   1.715
24159WAT      O72718   1.102   9.805   6.572
24159WAT     H172719   1.038   9.737   6.607
24159WAT     H272720   1.150   9.849   6.648
24160WAT      O72721   2.732   9.539   9.142
24160WAT     H172722   2.666   9.581   9.079
24160WAT     H272723   2.812   9.509   9.091
24161WAT      O72724   2.438   0.434   8.456
24161WAT     H172725   2.391   0.424   8.544
24161WAT     H272726   2.537   0.437   8.470
24162WAT      O72727   9.364   8.075   3.369
24162WAT     H172728   9.279   8.061   3.319
24162WAT     H272729   9.344   8.110   3.460
24163WAT      O72730   3.127   3.344   3.581
24163WAT     H172731   3.106   3.263   3.526
24163WAT     H272732   3.162   3.316   3.670
24164WAT      O72733   4.898   0.925   2.081
24164WAT     H172734   4.886   0.978   1.997
24164WAT     H272735   4.949   0.979   2.148
24165WAT      O72736   2.904   6.326   2.530
24165WAT     H172737   2.968   6.376   2.589
24165WAT     H272738   2.946   6.312   2.441
24166WAT      O72739   2.742   9.703   4.604
24166WAT     H172740   2.790   9.619   4.577
24166WAT     H272741   2.645   9.694   4.585
24167WAT      O72742   2.257   2.821   2.461
24167WAT     H172743   2.212   2.768   2.533
24167WAT     H272744   2.355   2.799   2.460
24168WAT      O72745   9.574   6.372   1.080
24168WAT     H172746   9.636   6.312   1.031
24168WAT     H272747   9.520   6.318   1.146
24169WAT      O72748   4.115   3.855   9.187
24169WAT     H172749   4.190   3.846   9.253
24169WAT     H272750   4.101   3.951   9.166
24170WAT      O72751   1.042   0.854   6.350
24170WAT     H172752   0.965   0.855   6.286
24170WAT     H272753   1.068   0.948   6.372
24171WAT      O72754   0.533   7.598   5.362
24171WAT     H172755   0.453   7.607   5.302
24171WAT     H272756   0.510   7.631   5.453
24172WAT      O72757   1.048   6.355   2.068
24172WAT     H172758   1.140   6.327   2.097
24172WAT     H272759   0.981   6.292   2.104
24173WAT      O72760   7.617   6.375   6.563
24173WAT     H172761   7.523   6.393   6.591
24173WAT     H272762   7.624   6.380   6.463
24174WAT      O72763   9.171   9.032   3.646
24174WAT     H172764   9.107   8.961   3.616
24174WAT     H272765   9.211   9.077   3.566
24175WAT      O72766   3.318   1.336   1.906
24175WAT     H172767   3.286   1.245   1.879
24175WAT     H272768   3.401   1.358   1.855
24176WAT      O72769   0.163   3.450   5.305
24176WAT     H172770   0.214   3.377   5.259
24176WAT     H272771   0.078   3.413   5.341
24177WAT      O72772   5.673   1.293   6.955
24177WAT     H172773   5.655   1.314   6.859
24177WAT     H272774   5.593   1.249   6.995
24178WAT      O72775   8.613   1.386   6.978
24178WAT     H172776   8.538   1.391   7.043
24178WAT     H272777   8.667   1.304   6.996
24179WAT      O72778   3.901   0.282   1.005
24179WAT     H172779   3.883   0.298   0.908
24179WAT     H272780   3.955   0.357   1.042
24180WAT      O72781   5.240   7.043   7.793
24180WAT     H172782   5.272   7.091   7.711
24180WAT     H272783   5.142   7.059   7.806
24181WAT      O72784   8.959   3.889   0.590
24181WAT     H172785   8.947   3.793   0.566
24181WAT     H272786   8.869   3.934   0.590
24182WAT      O72787   6.771   8.294   4.391
24182WAT     H172788   6.796   8.267   4.298
24182WAT     H272789   6.843   8.267   4.454
24183WAT      O72790   7.676   6.360   1.763
24183WAT     H172791   7.761   6.351   1.814
24183WAT     H272792   7.602   6.384   1.826
24184WAT      O72793   5.908   1.873   8.228
24184WAT     H172794   5.815   1.839   8.242
24184WAT     H272795   5.939   1.850   8.136
24185WAT      O72796   0.718   1.169   0.958
24185WAT     H172797   0.744   1.086   0.909
24185WAT     H272798   0.622   1.190   0.939
24186WAT      O72799   9.293   7.335   3.999
24186WAT     H172800   9.242   7.260   4.041
24186WAT     H272801   9.230   7.397   3.952
24187WAT      O72802   6.143   9.074   9.092
24187WAT     H172803   6.119   9.141   9.162
24187WAT     H272804   6.217   9.015   9.125
24188WAT      O72805   1.713   2.392   8.268
24188WAT     H172806   1.744   2.486   8.253
24188WAT     H272807   1.697   2.377   8.365
24189WAT      O72808   8.115   3.967   0.913
24189WAT     H172809   8.019   3.940   0.920
24189WAT     H272810   8.122   4.067   0.914
24190WAT      O72811   0.290   9.695   1.412
24190WAT     H172812   0.332   9.775   1.454
24190WAT     H272813   0.312   9.693   1.315
24191WAT      O72814   8.736   7.285   1.295
24191WAT     H172815   8.648   7.331   1.303
24191WAT     H272816   8.760   7.242   1.382
24192WAT      O72817   7.531   4.016   7.602
24192WAT     H172818   7.507   3.919   7.599
24192WAT     H272819   7.630   4.026   7.593
24193WAT      O72820   3.364   8.263   7.147
24193WAT     H172821   3.289   8.227   7.091
24193WAT     H272822   3.348   8.238   7.243
24194WAT      O72823   2.986   9.484   5.012
24194WAT     H172824   3.031   9.456   4.926
24194WAT     H272825   3.020   9.427   5.087
24195WAT      O72826   2.005   3.497   5.002
24195WAT     H172827   1.936   3.435   5.040
24195WAT     H272828   2.078   3.443   4.960
24196WAT      O72829   0.322   3.137   0.379
24196WAT     H172830   0.309   3.097   0.289
24196WAT     H272831   0.296   3.071   0.449
24197WAT      O72832   8.688   4.333   6.099
24197WAT     H172833   8.638   4.249   6.081
24197WAT     H272834   8.647   4.381   6.177
24198WAT      O72835   9.550   4.099   3.660
24198WAT     H172836   9.461   4.073   3.699
24198WAT     H272837   9.574   4.035   3.588
24199WAT      O72838   3.670   3.133   0.861
24199WAT     H172839   3.675   3.223   0.906
24199WAT     H272840   3.592   3.082   0.898
24200WAT      O72841   4.883   9.016   4.459
24200WAT     H172842   4.843   8.934   4.419
24200WAT     H272843   4.827   9.046   4.536
24201WAT      O72844   6.844   1.385   2.976
24201WAT     H172845   6.904   1.388   2.896
24201WAT     H272846   6.748   1.390   2.947
24202WAT      O72847   8.694   5.221   8.451
24202WAT     H172848   8.651   5.152   8.509
24202WAT     H272849   8.770   5.180   8.401
24203WAT      O72850   0.997   8.093   8.639
24203WAT     H172851   0.919   8.035   8.664
24203WAT     H272852   1.077   8.036   8.623
24204WAT      O72853   5.013   2.987   8.934
24204WAT     H172854   5.031   2.930   9.014
24204WAT     H272855   4.919   3.021   8.938
24205WAT      O72856   1.828   2.660   6.863
24205WAT     H172857   1.819   2.759   6.854
24205WAT     H272858   1.916   2.638   6.906
24206WAT      O72859   9.345   6.184   1.190
24206WAT     H172860   9.350   6.219   1.283
24206WAT     H272861   9.265   6.125   1.180
24207WAT      O72862   3.797   6.117   4.898
24207WAT     H172863   3.860   6.130   4.974
24207WAT     H272864   3.841   6.060   4.828
24208WAT      O72865   1.462   0.010   6.631
24208WAT     H172866   1.394  -0.019   6.698
24208WAT     H272867   1.552   0.016   6.676
24209WAT      O72868   3.112   8.779   5.866
24209WAT     H172869   3.091   8.755   5.961
24209WAT     H272870   3.105   8.878   5.855
24210WAT      O72871   0.466   4.768   0.448
24210WAT     H172872   0.501   4.798   0.537
24210WAT     H272873   0.519   4.689   0.417
24211WAT      O72874   7.599   2.297   7.572
24211WAT     H172875   7.668   2.267   7.639
24211WAT     H272876   7.603   2.238   7.492
24212WAT      O72877   2.467   9.179   5.321
24212WAT     H172878   2.494   9.245   5.251
24212WAT     H272879   2.417   9.225   5.394
24213WAT      O72880   1.792   3.639   5.283
24213WAT     H172881   1.778   3.574   5.208
24213WAT     H272882   1.733   3.719   5.269
24214WAT      O72883   3.129   8.646   5.438
24214WAT     H172884   3.055   8.711   5.425
24214WAT     H272885   3.091   8.557   5.463
24215WAT      O72886   5.334   1.321   9.013
24215WAT     H172887   5.270   1.344   9.085
24215WAT     H272888   5.427   1.319   9.051
24216WAT      O72889   5.531   3.009   8.355
24216WAT     H172890   5.517   2.974   8.447
24216WAT     H272891   5.575   2.939   8.299
24217WAT      O72892   7.342   1.017   2.409
24217WAT     H172893   7.312   1.021   2.505
24217WAT     H272894   7.308   0.933   2.367
24218WAT      O72895   5.617   9.452   7.860
24218WAT     H172896   5.590   9.469   7.766
24218WAT     H272897   5.707   9.493   7.877
24219WAT      O72898   4.759   4.958   0.930
24219WAT     H172899   4.667   4.969   0.968
24219WAT     H272900   4.764   4.871   0.881
24220WAT      O72901   4.444   3.556   1.292
24220WAT     H172902   4.418   3.651   1.313
24220WAT     H272903   4.401   3.494   1.358
24221WAT      O72904   2.289   9.228   5.924
24221WAT     H172905   2.330   9.202   5.837
24221WAT     H272906   2.221   9.159   5.950
24222WAT      O72907   1.599   1.431   1.803
24222WAT     H172908   1.515   1.442   1.857
24222WAT     H272909   1.587   1.476   1.715
24223WAT      O72910   9.216   7.641   8.225
24223WAT     H172911   9.300   7.624   8.174
24223WAT     H272912   9.178   7.554   8.256
24224WAT      O72913   0.811   8.529   9.767
24224WAT     H172914   0.717   8.502   9.789
24224WAT     H272915   0.833   8.613   9.815
24225WAT      O72916   2.525   0.346   9.349
24225WAT     H172917   2.507   0.375   9.443
24225WAT     H272918   2.440   0.353   9.295
24226WAT      O72919   3.840   0.124   5.739
24226WAT     H172920   3.890   0.115   5.825
24226WAT     H272921   3.905   0.127   5.663
24227WAT      O72922   7.312   4.102   3.908
24227WAT     H172923   7.343   4.019   3.861
24227WAT     H272924   7.371   4.179   3.884
24228WAT      O72925   5.449   0.241   7.108
24228WAT     H172926   5.399   0.326   7.092
24228WAT     H272927   5.518   0.228   7.037
24229WAT      O72928   6.033   1.030   0.091
24229WAT     H172929   6.117   1.020   0.039
24229WAT     H272930   6.040   0.980   0.177
24230WAT      O72931   2.507   4.058   9.288
24230WAT     H172932   2.463   4.124   9.350
24230WAT     H272933   2.510   4.097   9.195
24231WAT      O72934   2.328   1.021   9.376
24231WAT     H172935   2.269   0.979   9.307
24231WAT     H272936   2.287   1.107   9.407
24232WAT      O72937   6.492   6.131   8.858
24232WAT     H172938   6.484   6.210   8.919
24232WAT     H272939   6.581   6.133   8.812
24233WAT      O72940   0.004   3.515   7.920
24233WAT     H172941   0.050   3.514   7.831
24233WAT     H272942  -0.076   3.575   7.916
24234WAT      O72943   7.398   5.399   6.589
24234WAT     H172944   7.358   5.441   6.508
24234WAT     H272945   7.420   5.303   6.570
24235WAT      O72946   3.310   8.202   8.202
24235WAT     H172947   3.273   8.277   8.257
24235WAT     H272948   3.377   8.151   8.256
24236WAT      O72949   9.732   9.711   0.496
24236WAT     H172950   9.727   9.630   0.437
24236WAT     H272951   9.824   9.718   0.535
24237WAT      O72952   9.876   9.100   6.560
24237WAT     H172953   9.957   9.050   6.532
24237WAT     H272954   9.845   9.067   6.649
24238WAT      O72955   0.296   6.406   3.550
24238WAT     H172956   0.363   6.389   3.477
24238WAT     H272957   0.323   6.488   3.601
24239WAT      O72958   1.291   2.377   9.343
24239WAT     H172959   1.310   2.302   9.406
24239WAT     H272960   1.374   2.430   9.328
24240WAT      O72961   4.242   0.956   6.108
24240WAT     H172962   4.214   0.892   6.180
24240WAT     H272963   4.295   1.030   6.148
24241WAT      O72964   7.358   2.138   8.401
24241WAT     H172965   7.406   2.155   8.488
24241WAT     H272966   7.263   2.166   8.409
24242WAT      O72967   2.871   4.133   6.715
24242WAT     H172968   2.784   4.118   6.763
24242WAT     H272969   2.853   4.150   6.618
24243WAT      O72970   9.033   4.564   7.503
24243WAT     H172971   9.064   4.473   7.475
24243WAT     H272972   9.073   4.633   7.442
24244WAT      O72973   9.783   6.611   3.610
24244WAT     H172974   9.797   6.549   3.687
24244WAT     H272975   9.822   6.701   3.631
24245WAT      O72976   9.155   1.090   4.332
24245WAT     H172977   9.182   1.180   4.364
24245WAT     H272978   9.061   1.093   4.299
24246WAT      O72979   3.408   1.286   9.455
24246WAT     H172980   3.472   1.210   9.445
24246WAT     H272981   3.321   1.262   9.411
24247WAT      O72982   4.231   7.682   8.855
24247WAT     H172983   4.208   7.595   8.812
24247WAT     H272984   4.274   7.666   8.943
24248WAT      O72985   8.830   0.349   9.242
24248WAT     H172986   8.855   0.316   9.151
24248WAT     H272987   8.902   0.325   9.308
24249WAT      O72988   1.886   2.749   3.079
24249WAT     H172989   1.908   2.673   3.018
24249WAT     H272990   1.799   2.789   3.051
24250WAT      O72991   2.631   9.204   2.672
24250WAT     H172992   2.539   9.166   2.681
24250WAT     H272993   2.694   9.131   2.644
24251WAT      O72994   6.933   2.272   2.957
24251WAT     H172995   7.000   2.202   2.982
24251WAT     H272996   6.959   2.359   2.998
24252WAT      O72997   4.941   0.455   7.080
24252WAT     H172998   4.977   0.500   7.161
24252WAT     H272999   4.857   0.406   7.104
24253WAT      O73000   7.735   9.452   5.343
24253WAT     H173001   7.814   9.454   5.405
24253WAT     H273002   7.730   9.537   5.292
24254WAT      O73003   2.658   1.355   9.127
24254WAT     H173004   2.622   1.341   9.035
24254WAT     H273005   2.742   1.410   9.123
24255WAT      O73006   5.313   0.734   7.411
24255WAT     H173007   5.392   0.795   7.399
24255WAT     H273008   5.253   0.770   7.482
24256WAT      O73009   7.382   8.309   3.500
24256WAT     H173010   7.409   8.214   3.486
24256WAT     H273011   7.402   8.362   3.417
24257WAT      O73012   3.033   8.735   7.809
24257WAT     H173013   3.086   8.803   7.860
24257WAT     H273014   3.052   8.744   7.711
24258WAT      O73015   6.746   0.456   8.532
24258WAT     H173016   6.664   0.513   8.537
24258WAT     H273017   6.799   0.466   8.616
24259WAT      O73018   8.653   7.206   8.798
24259WAT     H173019   8.732   7.252   8.758
24259WAT     H273020   8.663   7.107   8.785
24260WAT      O73021   5.612   6.554   9.761
24260WAT     H173022   5.605   6.621   9.835
24260WAT     H273023   5.561   6.472   9.785
24261WAT      O73024   1.858   3.778   4.531
24261WAT     H173025   1.778   3.792   4.473
24261WAT     H273026   1.876   3.862   4.583
24262WAT      O73027   4.296   5.594   4.881
24262WAT     H173028   4.389   5.603   4.919
24262WAT     H273029   4.229   5.625   4.948
24263WAT      O73030   3.014   1.709   4.939
24263WAT     H173031   3.045   1.618   4.967
24263WAT     H273032   3.074   1.744   4.868
24264WAT      O73033   8.191   4.114   4.991
24264WAT     H173034   8.120   4.182   5.011
24264WAT     H273035   8.265   4.158   4.940
24265WAT      O73036   4.911   1.668   9.555
24265WAT     H173037   4.814   1.652   9.574
24265WAT     H273038   4.966   1.646   9.636
24266WAT      O73039   9.088   3.027   7.182
24266WAT     H173040   9.064   2.935   7.210
24266WAT     H273041   9.018   3.061   7.118
24267WAT      O73042   2.334   5.477   2.310
24267WAT     H173043   2.251   5.504   2.359
24267WAT     H273044   2.335   5.522   2.220
24268WAT      O73045   6.531   3.954   9.352
24268WAT     H173046   6.553   3.910   9.439
24268WAT     H273047   6.452   4.013   9.364
24269WAT      O73048   0.969   2.822   0.580
24269WAT     H173049   1.038   2.750   0.585
24269WAT     H273050   0.989   2.893   0.647
24270WAT      O73051   6.931   7.987   1.233
24270WAT     H173052   6.949   7.945   1.322
24270WAT     H273053   6.867   8.063   1.245
24271WAT      O73054   1.534   8.502   7.243
24271WAT     H173055   1.463   8.432   7.233
24271WAT     H273056   1.535   8.536   7.337
24272WAT      O73057   3.253   4.082   6.596
24272WAT     H173058   3.320   4.096   6.523
24272WAT     H273059   3.197   4.164   6.607
24273WAT      O73060   1.002   3.578   7.016
24273WAT     H173061   0.920   3.581   7.072
24273WAT     H273062   1.023   3.671   6.983
24274WAT      O73063   6.723   6.695   7.763
24274WAT     H173064   6.802   6.657   7.716
24274WAT     H273065   6.734   6.794   7.772
24275WAT      O73066   8.256   5.288   2.734
24275WAT     H173067   8.241   5.215   2.801
24275WAT     H273068   8.183   5.356   2.743
24276WAT      O73069   6.565   7.388   5.734
24276WAT     H173070   6.466   7.380   5.729
24276WAT     H273071   6.601   7.418   5.646
24277WAT      O73072   8.357   3.648   6.704
24277WAT     H173073   8.407   3.604   6.629
24277WAT     H273074   8.259   3.628   6.696
24278WAT      O73075   6.849   2.975   1.110
24278WAT     H173076   6.860   3.032   1.029
24278WAT     H273077   6.921   2.906   1.112
24279WAT      O73078   1.913   2.306   2.490
24279WAT     H173079   1.862   2.319   2.405
24279WAT     H273080   1.977   2.382   2.503
24280WAT      O73081   1.791   5.187   0.778
24280WAT     H173082   1.833   5.262   0.728
24280WAT     H273083   1.816   5.100   0.737
24281WAT      O73084   5.778   7.529   3.841
24281WAT     H173085   5.834   7.577   3.909
24281WAT     H273086   5.829   7.451   3.804
24282WAT      O73087   4.454   5.801   1.785
24282WAT     H173088   4.524   5.797   1.857
24282WAT     H273089   4.496   5.835   1.701
24283WAT      O73090   4.703   6.492   3.869
24283WAT     H173091   4.737   6.569   3.815
24283WAT     H273092   4.777   6.455   3.925
24284WAT      O73093   7.980   3.253   2.889
24284WAT     H173094   7.975   3.172   2.947
24284WAT     H273095   7.908   3.249   2.819
24285WAT      O73096   6.670   4.512   1.651
24285WAT     H173097   6.686   4.491   1.555
24285WAT     H273098   6.755   4.541   1.695
24286WAT      O73099   0.866   2.092   0.005
24286WAT     H173100   0.865   2.064  -0.091
24286WAT     H273101   0.842   2.189   0.012
24287WAT      O73102   7.210   2.297   4.175
24287WAT     H173103   7.287   2.336   4.224
24287WAT     H273104   7.214   2.326   4.079
24288WAT      O73105   1.529   1.052   4.247
24288WAT     H173106   1.504   1.026   4.153
24288WAT     H273107   1.467   1.009   4.311
24289WAT      O73108   5.966   6.529   1.808
24289WAT     H173109   5.959   6.590   1.729
24289WAT     H273110   6.039   6.560   1.868
24290WAT      O73111   3.001   8.107   8.775
24290WAT     H173112   3.093   8.069   8.768
24290WAT     H273113   2.934   8.033   8.778
24291WAT      O73114   3.873   9.369   7.427
24291WAT     H173115   3.783   9.364   7.384
24291WAT     H273116   3.896   9.465   7.444
24292WAT      O73117   4.691   1.918   4.445
24292WAT     H173118   4.726   1.954   4.358
24292WAT     H273119   4.659   1.824   4.432
24293WAT      O73120   3.621   3.639   7.661
24293WAT     H173121   3.612   3.539   7.663
24293WAT     H273122   3.718   3.664   7.655
24294WAT      O73123   3.918   6.513   4.681
24294WAT     H173124   3.870   6.476   4.760
24294WAT     H273125   3.960   6.439   4.629
24295WAT      O73126   2.048   1.415   4.191
24295WAT     H173127   2.054   1.325   4.149
24295WAT     H273128   1.962   1.459   4.163
24296WAT      O73129   8.806   4.928   9.450
24296WAT     H173130   8.823   4.927   9.548
24296WAT     H273131   8.736   4.997   9.429
24297WAT      O73132   7.905   7.265   6.595
24297WAT     H173133   7.927   7.236   6.688
24297WAT     H273134   7.819   7.222   6.567
24298WAT      O73135   1.719   3.603   9.275
24298WAT     H173136   1.724   3.563   9.184
24298WAT     H273137   1.624   3.602   9.308
24299WAT      O73138   8.689   1.164   9.213
24299WAT     H173139   8.719   1.227   9.285
24299WAT     H273140   8.725   1.194   9.125
24300WAT      O73141   8.014   8.540   8.984
24300WAT     H173142   7.951   8.576   9.053
24300WAT     H273143   8.033   8.444   9.004
24301WAT      O73144   4.162   8.354   4.572
24301WAT     H173145   4.171   8.266   4.526
24301WAT     H273146   4.133   8.423   4.506
24302WAT      O73147   6.114   9.738   3.144
24302WAT     H173148   6.025   9.696   3.159
24302WAT     H273149   6.107   9.837   3.163
24303WAT      O73150   9.286   6.599   8.943
24303WAT     H173151   9.357   6.570   8.879
24303WAT     H273152   9.274   6.699   8.936
24304WAT      O73153   9.843   9.261   8.824
24304WAT     H173154   9.927   9.207   8.833
24304WAT     H273155   9.866   9.359   8.832
24305WAT      O73156   9.274   0.649   3.852
24305WAT     H173157   9.299   0.563   3.806
24305WAT     H273158   9.177   0.668   3.836
24306WAT      O73159   6.472   6.439   8.258
24306WAT     H173160   6.429   6.486   8.181
24306WAT     H273161   6.569   6.464   8.262
24307WAT      O73162   4.971   0.847   0.322
24307WAT     H173163   4.986   0.789   0.242
24307WAT     H273164   5.059   0.875   0.359
24308WAT      O73165   9.128   4.286   0.924
24308WAT     H173166   9.128   4.384   0.946
24308WAT     H273167   9.046   4.244   0.962
24309WAT      O73168   6.758   4.257   2.514
24309WAT     H173169   6.760   4.184   2.583
24309WAT     H273170   6.769   4.217   2.423
24310WAT      O73171   7.366   6.135   1.081
24310WAT     H173172   7.294   6.123   1.149
24310WAT     H273173   7.328   6.120   0.990
24311WAT      O73174   4.534   3.959   5.433
24311WAT     H173175   4.601   4.017   5.387
24311WAT     H273176   4.492   4.010   5.508
24312WAT      O73177   5.148   2.805   5.350
24312WAT     H173178   5.119   2.737   5.283
24312WAT     H273179   5.215   2.764   5.412
24313WAT      O73180   8.947   3.953   9.795
24313WAT     H173181   9.027   3.973   9.852
24313WAT     H273182   8.970   3.883   9.727
24314WAT      O73183   3.674   1.895   9.755
24314WAT     H173184   3.690   1.992   9.735
24314WAT     H273185   3.658   1.846   9.669
24315WAT      O73186   2.057   2.889   6.382
24315WAT     H173187   1.999   2.881   6.301
24315WAT     H273188   2.013   2.948   6.449
24316WAT      O73189   6.205   3.756   4.186
24316WAT     H173190   6.140   3.685   4.213
24316WAT     H273191   6.156   3.841   4.166
24317WAT      O73192   6.194   6.442   3.113
24317WAT     H173193   6.256   6.406   3.043
24317WAT     H273194   6.224   6.533   3.141
24318WAT      O73195   0.809   1.241   7.577
24318WAT     H173196   0.743   1.166   7.585
24318WAT     H273197   0.902   1.204   7.582
24319WAT      O73198   4.606   1.846   6.761
24319WAT     H173199   4.552   1.782   6.815
24319WAT     H273200   4.703   1.827   6.773
24320WAT      O73201   2.314   9.489   4.512
24320WAT     H173202   2.221   9.507   4.481
24320WAT     H273203   2.324   9.392   4.535
24321WAT      O73204   3.743   2.284   7.420
24321WAT     H173205   3.783   2.295   7.329
24321WAT     H273206   3.747   2.370   7.470
24322WAT      O73207   3.087   7.099   8.805
24322WAT     H173208   3.138   7.143   8.731
24322WAT     H273209   3.006   7.054   8.767
24323WAT      O73210   0.519   9.587   6.763
24323WAT     H173211   0.446   9.655   6.777
24323WAT     H273212   0.493   9.501   6.806
24324WAT      O73213   6.782   6.958   9.823
24324WAT     H173214   6.869   6.995   9.791
24324WAT     H273215   6.725   6.935   9.744
24325WAT      O73216   3.536   8.814   3.074
24325WAT     H173217   3.628   8.782   3.054
24325WAT     H273218   3.476   8.793   2.997
24326WAT      O73219   8.719   5.739   7.410
24326WAT     H173220   8.767   5.794   7.479
24326WAT     H273221   8.621   5.750   7.420
24327WAT      O73222   9.276   6.674   3.591
24327WAT     H173223   9.330   6.650   3.672
24327WAT     H273224   9.257   6.773   3.592
24328WAT      O73225   1.920   6.008   3.710
24328WAT     H173226   2.006   6.026   3.662
24328WAT     H273227   1.860   5.953   3.651
24329WAT      O73228   1.423   1.845   0.525
24329WAT     H173229   1.324   1.857   0.533
24329WAT     H273230   1.468   1.887   0.604
24330WAT      O73231   5.241   1.443   6.691
24330WAT     H173232   5.240   1.390   6.776
24330WAT     H273233   5.251   1.381   6.613
24331WAT      O73234   8.599   8.282   0.641
24331WAT     H173235   8.535   8.292   0.717
24331WAT     H273236   8.572   8.343   0.566
24332WAT      O73237   0.050   6.071   2.666
24332WAT     H173238   0.056   5.992   2.605
24332WAT     H273239   0.039   6.039   2.760
24333WAT      O73240   8.637   8.389   9.727
24333WAT     H173241   8.571   8.423   9.660
24333WAT     H273242   8.669   8.298   9.699
24334WAT      O73243   4.857   8.068   4.428
24334WAT     H173244   4.814   8.000   4.368
24334WAT     H273245   4.828   8.052   4.523
24335WAT      O73246   4.271   7.966   1.492
24335WAT     H173247   4.191   7.980   1.435
24335WAT     H273248   4.269   8.030   1.569
24336WAT      O73249   2.996   1.310   5.198
24336WAT     H173250   3.069   1.300   5.130
24336WAT     H273251   3.026   1.272   5.285
24337WAT      O73252   4.851   5.816   1.826
24337WAT     H173253   4.780   5.844   1.762
24337WAT     H273254   4.887   5.727   1.798
24338WAT      O73255   9.557   5.772   3.051
24338WAT     H173256   9.540   5.869   3.035
24338WAT     H273257   9.539   5.720   2.967
24339WAT      O73258   6.870   4.784   1.052
24339WAT     H173259   6.887   4.879   1.076
24339WAT     H273260   6.937   4.754   0.983
24340WAT      O73261   3.624   3.504   6.201
24340WAT     H173262   3.703   3.445   6.219
24340WAT     H273263   3.571   3.515   6.285
24341WAT      O73264   4.277   9.356   6.885
24341WAT     H173265   4.305   9.274   6.835
24341WAT     H273266   4.183   9.379   6.862
24342WAT      O73267   2.674   7.500   6.484
24342WAT     H173268   2.598   7.501   6.548
24342WAT     H273269   2.668   7.419   6.426
24343WAT      O73270   4.411   1.965   2.507
24343WAT     H173271   4.328   2.007   2.471
24343WAT     H273272   4.389   1.909   2.587
24344WAT      O73273   9.013   5.478   3.330
24344WAT     H173274   8.934   5.444   3.279
24344WAT     H273275   8.999   5.574   3.353
24345WAT      O73276   1.556   5.105   3.885
24345WAT     H173277   1.593   5.140   3.971
24345WAT     H273278   1.506   5.177   3.839
24346WAT      O73279   6.605   0.908   9.614
24346WAT     H173280   6.651   0.850   9.681
24346WAT     H273281   6.660   0.913   9.531
24347WAT      O73282   2.146   3.410   7.299
24347WAT     H173283   2.127   3.439   7.205
24347WAT     H273284   2.170   3.313   7.299
24348WAT      O73285   8.875   8.295   0.717
24348WAT     H173286   8.878   8.239   0.800
24348WAT     H273287   8.780   8.318   0.696
24349WAT      O73288   6.089   2.760   0.170
24349WAT     H173289   6.071   2.842   0.223
24349WAT     H273290   6.047   2.681   0.215
24350WAT      O73291   3.831   4.513   5.839
24350WAT     H173292   3.907   4.452   5.859
24350WAT     H273293   3.774   4.522   5.920
24351WAT      O73294   1.760   5.876   0.979
24351WAT     H173295   1.778   5.788   0.935
24351WAT     H273296   1.750   5.947   0.909
24352WAT      O73297   1.193   1.540   1.750
24352WAT     H173298   1.143   1.554   1.836
24352WAT     H273299   1.231   1.447   1.748
24353WAT      O73300   5.918   6.020   9.437
24353WAT     H173301   5.995   6.014   9.500
24353WAT     H273302   5.893   6.116   9.425
24354WAT      O73303   1.855   0.382   0.165
24354WAT     H173304   1.882   0.434   0.247
24354WAT     H273305   1.890   0.289   0.172
24355WAT      O73306   9.136   2.947   4.838
24355WAT     H173307   9.077   2.959   4.758
24355WAT     H273308   9.161   3.037   4.874
24356WAT      O73309   3.083   1.848   0.271
24356WAT     H173310   2.984   1.840   0.280
24356WAT     H273311   3.121   1.760   0.242
24357WAT      O73312   4.403   6.202   5.787
24357WAT     H173313   4.332   6.188   5.718
24357WAT     H273314   4.454   6.117   5.799
24358WAT      O73315   6.786   3.383   9.302
24358WAT     H173316   6.734   3.450   9.249
24358WAT     H273317   6.859   3.431   9.352
24359WAT      O73318   3.459   7.309   6.208
24359WAT     H173319   3.483   7.241   6.277
24359WAT     H273320   3.532   7.377   6.201
24360WAT      O73321   2.067   5.808   7.578
24360WAT     H173322   2.031   5.811   7.484
24360WAT     H273323   2.111   5.895   7.599
24361WAT      O73324   6.894   5.284   3.188
24361WAT     H173325   6.846   5.201   3.160
24361WAT     H273326   6.896   5.290   3.288
24362WAT      O73327   5.619   9.282   2.767
24362WAT     H173328   5.556   9.216   2.808
24362WAT     H273329   5.600   9.290   2.669
24363WAT      O73330   7.847   9.501   4.558
24363WAT     H173331   7.769   9.540   4.608
24363WAT     H273332   7.907   9.453   4.622
24364WAT      O73333   5.027   8.131   1.667
24364WAT     H173334   5.048   8.089   1.756
24364WAT     H273335   5.073   8.219   1.660
24365WAT      O73336   0.274   6.260   0.933
24365WAT     H173337   0.280   6.291   1.029
24365WAT     H273338   0.233   6.332   0.878
24366WAT      O73339   9.775   6.119   8.652
24366WAT     H173340   9.704   6.176   8.694
24366WAT     H273341   9.827   6.073   8.723
24367WAT      O73342   3.120   8.520   1.879
24367WAT     H173343   3.198   8.500   1.821
24367WAT     H273344   3.097   8.440   1.934
24368WAT      O73345   1.621   9.687   2.264
24368WAT     H173346   1.685   9.734   2.325
24368WAT     H273347   1.631   9.588   2.274
24369WAT      O73348   4.101   4.773   2.037
24369WAT     H173349   4.163   4.837   1.990
24369WAT     H273350   4.100   4.686   1.988
24370WAT      O73351   1.161   4.793   4.447
24370WAT     H173352   1.240   4.736   4.423
24370WAT     H273353   1.087   4.735   4.479
24371WAT      O73354   2.174   7.520   8.262
24371WAT     H173355   2.087   7.569   8.248
24371WAT     H273356   2.243   7.584   8.294
24372WAT      O73357   4.133   8.099   0.243
24372WAT     H173358   4.163   8.187   0.206
24372WAT     H273359   4.046   8.110   0.291
24373WAT      O73360   8.156   1.685   9.204
24373WAT     H173361   8.224   1.612   9.200
24373WAT     H273362   8.147   1.718   9.298
24374WAT      O73363   3.163   0.302   4.549
24374WAT     H173364   3.091   0.329   4.486
24374WAT     H273365   3.179   0.203   4.542
24375WAT      O73366   6.528   1.112   1.826
24375WAT     H173367   6.472   1.192   1.847
24375WAT     H273368   6.624   1.137   1.826
24376WAT      O73369   5.961   5.764   5.389
24376WAT     H173370   5.887   5.812   5.341
24376WAT     H273371   6.013   5.829   5.444
24377WAT      O73372   5.105   4.022   0.966
24377WAT     H173373   5.127   3.973   0.883
24377WAT     H273374   5.185   4.022   1.027
24378WAT      O73375   3.885   0.174   6.218
24378WAT     H173376   3.788   0.194   6.202
24378WAT     H273377   3.901   0.158   6.315
24379WAT      O73378   3.282   8.645   3.673
24379WAT     H173379   3.187   8.670   3.693
24379WAT     H273380   3.327   8.721   3.626
24380WAT      O73381   4.384   5.797   5.242
24380WAT     H173382   4.438   5.817   5.160
24380WAT     H273383   4.435   5.824   5.323
24381WAT      O73384   4.060   2.909   4.937
24381WAT     H173385   3.985   2.958   4.981
24381WAT     H273386   4.060   2.927   4.839
24382WAT      O73387   9.789   1.102   1.501
24382WAT     H173388   9.828   1.038   1.435
24382WAT     H273389   9.691   1.084   1.512
24383WAT      O73390   5.334   8.532   5.317
24383WAT     H173391   5.418   8.479   5.331
24383WAT     H273392   5.265   8.502   5.383
24384WAT      O73393   1.007   2.385   1.057
24384WAT     H173394   0.914   2.352   1.042
24384WAT     H273395   1.006   2.456   1.127
24385WAT      O73396   1.009   8.975   3.793
24385WAT     H173397   0.910   8.980   3.811
24385WAT     H273398   1.058   9.029   3.861
24386WAT      O73399   6.039   5.699   7.089
24386WAT     H173400   6.078   5.649   7.166
24386WAT     H273401   5.963   5.647   7.051
24387WAT      O73402   4.146   7.298   1.260
24387WAT     H173403   4.121   7.233   1.188
24387WAT     H273404   4.084   7.287   1.338
24388WAT      O73405   1.680   6.838   1.542
24388WAT     H173406   1.753   6.845   1.475
24388WAT     H273407   1.709   6.883   1.627
24389WAT      O73408   6.116   7.564   8.368
24389WAT     H173409   6.151   7.606   8.452
24389WAT     H273410   6.078   7.474   8.389
24390WAT      O73411   4.312   4.955   3.963
24390WAT     H173412   4.347   4.956   4.057
24390WAT     H273413   4.221   4.996   3.962
24391WAT      O73414   2.180   6.676   6.926
24391WAT     H173415   2.260   6.632   6.885
24391WAT     H273416   2.128   6.724   6.855
24392WAT      O73417   9.593   8.116   1.952
24392WAT     H173418   9.650   8.037   1.929
24392WAT     H273419   9.533   8.137   1.876
24393WAT      O73420   4.703   3.678   5.701
24393WAT     H173421   4.664   3.586   5.708
24393WAT     H273422   4.712   3.702   5.604
24394WAT      O73423   9.250   0.790   7.341
24394WAT     H173424   9.172   0.789   7.403
24394WAT     H273425   9.220   0.759   7.250
24395WAT      O73426   0.084   5.201   3.536
24395WAT     H173427   0.086   5.209   3.436
24395WAT     H273428   0.015   5.263   3.573
24396WAT      O73429   3.169   7.765   9.692
24396WAT     H173430   3.108   7.693   9.725
24396WAT     H273431   3.258   7.725   9.670
24397WAT      O73432   4.314   9.465   8.197
24397WAT     H173433   4.260   9.383   8.179
24397WAT     H273434   4.280   9.510   8.280
24398WAT      O73435   1.722   4.486   7.845
24398WAT     H173436   1.640   4.523   7.888
24398WAT     H273437   1.796   4.482   7.912
24399WAT      O73438   3.085   7.659   7.840
24399WAT     H173439   3.030   7.708   7.908
24399WAT     H273440   3.031   7.585   7.800
24400WAT      O73441   9.859   6.810   7.725
24400WAT     H173442   9.876   6.842   7.632
24400WAT     H273443   9.868   6.710   7.728
24401WAT      O73444   9.589   2.001   8.142
24401WAT     H173445   9.612   2.087   8.098
24401WAT     H273446   9.499   2.008   8.185
24402WAT      O73447   8.055   0.925   0.322
24402WAT     H173448   8.071   0.830   0.350
24402WAT     H273449   7.971   0.958   0.364
24403WAT      O73450   3.591   6.569   5.946
24403WAT     H173451   3.495   6.589   5.923
24403WAT     H273452   3.643   6.655   5.948
24404WAT      O73453   2.169   4.490   4.578
24404WAT     H173454   2.146   4.394   4.560
24404WAT     H273455   2.242   4.496   4.646
24405WAT      O73456   9.660   0.218   4.447
24405WAT     H173457   9.741   0.253   4.399
24405WAT     H273458   9.666   0.118   4.453
24406WAT      O73459   0.546   4.187   8.368
24406WAT     H173460   0.466   4.155   8.317
24406WAT     H273461   0.615   4.219   8.304
24407WAT      O73462   9.499   4.477   6.111
24407WAT     H173463   9.577   4.480   6.173
24407WAT     H273464   9.417   4.453   6.162
24408WAT      O73465   0.614   2.317   5.171
24408WAT     H173466   0.680   2.390   5.152
24408WAT     H273467   0.639   2.235   5.118
24409WAT      O73468   0.218   2.040   8.561
24409WAT     H173469   0.134   2.085   8.533
24409WAT     H273470   0.202   1.942   8.569
24410WAT      O73471   9.057   6.988   0.541
24410WAT     H173472   9.124   6.971   0.613
24410WAT     H273473   9.015   7.078   0.555
24411WAT      O73474   7.427   9.615   0.154
24411WAT     H173475   7.351   9.551   0.162
24411WAT     H273476   7.395   9.700   0.112
24412WAT      O73477   1.665   1.325   3.576
24412WAT     H173478   1.733   1.360   3.641
24412WAT     H273479   1.575   1.359   3.600
24413WAT      O73480   3.054   3.307   8.329
24413WAT     H173481   3.026   3.380   8.390
24413WAT     H273482   3.093   3.232   8.383
24414WAT      O73483   5.854   0.476   5.307
24414WAT     H173484   5.765   0.449   5.343
24414WAT     H273485   5.914   0.503   5.383
24415WAT      O73486   5.122   9.440   3.991
24415WAT     H173487   5.138   9.538   3.992
24415WAT     H273488   5.167   9.400   3.910
24416WAT      O73489   4.027   3.714   2.659
24416WAT     H173490   3.983   3.652   2.594
24416WAT     H273491   3.973   3.798   2.667
24417WAT      O73492   9.428   0.746   2.895
24417WAT     H173493   9.474   0.787   2.974
24417WAT     H273494   9.491   0.682   2.850
24418WAT      O73495   0.930   4.275   1.951
24418WAT     H173496   1.029   4.291   1.953
24418WAT     H273497   0.908   4.193   2.003
24419WAT      O73498   0.510   9.688   7.279
24419WAT     H173499   0.533   9.598   7.242
24419WAT     H273500   0.592   9.731   7.316
24420WAT      O73501   0.475   0.748   5.055
24420WAT     H173502   0.453   0.789   4.966
24420WAT     H273503   0.417   0.668   5.070
24421WAT      O73504   1.257   5.321   7.978
24421WAT     H173505   1.265   5.294   7.882
24421WAT     H273506   1.162   5.311   8.009
24422WAT      O73507   5.817   9.766   6.115
24422WAT     H173508   5.782   9.675   6.136
24422WAT     H273509   5.830   9.775   6.016
24423WAT      O73510   6.509   0.135   3.522
24423WAT     H173511   6.523   0.231   3.547
24423WAT     H273512   6.585   0.080   3.557
24424WAT      O73513   8.262   0.774   7.883
24424WAT     H173514   8.287   0.835   7.959
24424WAT     H273515   8.291   0.816   7.797
24425WAT      O73516   3.252   5.373   8.945
24425WAT     H173517   3.235   5.330   9.034
24425WAT     H273518   3.346   5.406   8.941
24426WAT      O73519   3.668   8.292   6.288
24426WAT     H173520   3.709   8.288   6.197
24426WAT     H273521   3.570   8.309   6.280
24427WAT      O73522   7.237   3.934   9.019
24427WAT     H173523   7.239   3.850   9.074
24427WAT     H273524   7.259   3.912   8.924
24428WAT      O73525   5.763   2.130   7.045
24428WAT     H173526   5.740   2.064   6.973
24428WAT     H273527   5.793   2.216   7.003
24429WAT      O73528   1.349   3.625   9.670
24429WAT     H173529   1.433   3.667   9.636
24429WAT     H273530   1.321   3.671   9.755
24430WAT      O73531   3.527   5.005   4.544
24430WAT     H173532   3.581   5.072   4.594
24430WAT     H273533   3.544   5.015   4.446
24431WAT      O73534   0.214   8.194   0.265
24431WAT     H173535   0.271   8.172   0.185
24431WAT     H273536   0.259   8.161   0.348
24432WAT      O73537   5.376   6.754   6.744
24432WAT     H173538   5.395   6.737   6.841
24432WAT     H273539   5.461   6.749   6.692
24433WAT      O73540   6.027   2.488   7.651
24433WAT     H173541   6.082   2.488   7.568
24433WAT     H273542   6.018   2.394   7.685
24434WAT      O73543   3.649   2.489   3.794
24434WAT     H173544   3.648   2.581   3.834
24434WAT     H273545   3.689   2.425   3.860
24435WAT      O73546   9.669   1.637   3.970
24435WAT     H173547   9.615   1.557   3.945
24435WAT     H273548   9.763   1.608   3.988
24436WAT      O73549   7.513   5.969   8.720
24436WAT     H173550   7.566   6.048   8.751
24436WAT     H273551   7.456   5.995   8.643
24437WAT      O73552   0.995   4.319   7.955
24437WAT     H173553   0.897   4.300   7.958
24437WAT     H273554   1.009   4.414   7.926
24438WAT      O73555   0.720   2.815   4.100
24438WAT     H173556   0.787   2.752   4.138
24438WAT     H273557   0.634   2.767   4.082
24439WAT      O73558   7.186   2.909   2.029
24439WAT     H173559   7.111   2.877   2.088
24439WAT     H273560   7.269   2.918   2.084
24440WAT      O73561   5.254   7.166   0.562
24440WAT     H173562   5.307   7.096   0.610
24440WAT     H273563   5.171   7.186   0.612
24441WAT      O73564   3.914   1.036   4.531
24441WAT     H173565   3.977   1.071   4.462
24441WAT     H273566   3.960   1.034   4.620
24442WAT      O73567   6.171   4.075   7.240
24442WAT     H173568   6.166   4.007   7.313
24442WAT     H273569   6.267   4.098   7.222
24443WAT      O73570   4.841   1.019   7.083
24443WAT     H173571   4.878   0.972   7.003
24443WAT     H273572   4.755   0.976   7.109
24444WAT      O73573   2.856   1.855   6.304
24444WAT     H173574   2.816   1.773   6.263
24444WAT     H273575   2.874   1.839   6.401
24445WAT      O73576   3.962   1.797   6.788
24445WAT     H173577   4.012   1.714   6.812
24445WAT     H273578   3.980   1.868   6.856
24446WAT      O73579   5.750   9.050   5.255
24446WAT     H173580   5.766   8.978   5.187
24446WAT     H273581   5.675   9.023   5.316
24447WAT      O73582   3.853   2.085   4.089
24447WAT     H173583   3.947   2.073   4.059
24447WAT     H273584   3.817   1.998   4.121
24448WAT      O73585   2.485   9.721   4.557
24448WAT     H173586   2.415   9.651   4.547
24448WAT     H273587   2.444   9.804   4.595
24449WAT      O73588   9.419   7.633   6.686
24449WAT     H173589   9.418   7.578   6.770
24449WAT     H273590   9.469   7.583   6.615
24450WAT      O73591   8.854   8.923   5.830
24450WAT     H173592   8.879   8.951   5.923
24450WAT     H273593   8.880   8.994   5.765
24451WAT      O73594   0.223   4.622   2.573
24451WAT     H173595   0.146   4.578   2.619
24451WAT     H273596   0.288   4.552   2.542
24452WAT      O73597   5.022   6.099   8.027
24452WAT     H173598   5.068   6.168   8.083
24452WAT     H273599   4.968   6.039   8.087
24453WAT      O73600   8.132   9.159   5.409
24453WAT     H173601   8.036   9.141   5.431
24453WAT     H273602   8.190   9.116   5.477
24454WAT      O73603   5.457   5.653   3.844
24454WAT     H173604   5.529   5.664   3.776
24454WAT     H273605   5.432   5.557   3.852
24455WAT      O73606   5.517   5.769   4.108
24455WAT     H173607   5.492   5.721   4.192
24455WAT     H273608   5.487   5.716   4.029
24456WAT      O73609   1.170   9.107   1.827
24456WAT     H173610   1.258   9.133   1.789
24456WAT     H273611   1.139   9.021   1.785
24457WAT      O73612   3.539   1.962   7.916
24457WAT     H173613   3.487   2.017   7.982
24457WAT     H273614   3.507   1.983   7.823
24458WAT      O73615   4.822   3.212   9.176
24458WAT     H173616   4.921   3.212   9.168
24458WAT     H273617   4.781   3.241   9.090
24459WAT      O73618   1.687   8.657   7.489
24459WAT     H173619   1.756   8.595   7.452
24459WAT     H273620   1.690   8.654   7.589
24460WAT      O73621   6.442   1.534   5.500
24460WAT     H173622   6.495   1.504   5.579
24460WAT     H273623   6.464   1.476   5.421
24461WAT      O73624   1.523   5.923   9.132
24461WAT     H173625   1.531   5.834   9.088
24461WAT     H273626   1.573   5.922   9.219
24462WAT      O73627   3.342   4.956   6.377
24462WAT     H173628   3.288   5.003   6.308
24462WAT     H273629   3.333   4.857   6.366
24463WAT      O73630   8.746   7.804   5.145
24463WAT     H173631   8.792   7.729   5.194
24463WAT     H273632   8.726   7.878   5.209
24464WAT      O73633   0.056   7.972   3.609
24464WAT     H173634  -0.042   7.989   3.620
24464WAT     H273635   0.073   7.931   3.519
24465WAT      O73636   4.368   8.261   4.813
24465WAT     H173637   4.441   8.202   4.778
24465WAT     H273638   4.284   8.245   4.761
24466WAT      O73639   9.366   5.305   8.039
24466WAT     H173640   9.407   5.335   7.953
24466WAT     H273641   9.320   5.217   8.026
24467WAT      O73642   0.304   3.548   3.896
24467WAT     H173643   0.352   3.566   3.810
24467WAT     H273644   0.368   3.557   3.972
24468WAT      O73645   4.599   7.532   1.803
24468WAT     H173646   4.590   7.460   1.872
24468WAT     H273647   4.585   7.621   1.847
24469WAT      O73648   2.782   1.494   8.883
24469WAT     H173649   2.788   1.567   8.951
24469WAT     H273650   2.815   1.408   8.924
24470WAT      O73651   7.027   4.965   7.287
24470WAT     H173652   7.085   4.980   7.207
24470WAT     H273653   6.942   4.920   7.260
24471WAT      O73654   2.848   7.813   7.395
24471WAT     H173655   2.886   7.900   7.364
24471WAT     H273656   2.920   7.760   7.440
24472WAT      O73657   7.946   0.853   5.554
24472WAT     H173658   7.965   0.758   5.579
24472WAT     H273659   8.024   0.910   5.578
24473WAT      O73660   2.169   3.739   7.880
24473WAT     H173661   2.108   3.680   7.828
24473WAT     H273662   2.258   3.695   7.891
24474WAT      O73663   9.275   5.354   1.970
24474WAT     H173664   9.355   5.412   1.956
24474WAT     H273665   9.280   5.314   2.062
24475WAT      O73666   8.017   9.647   1.306
24475WAT     H173667   8.076   9.570   1.281
24475WAT     H273668   7.924   9.630   1.272
24476WAT      O73669   3.007   6.529   2.268
24476WAT     H173670   3.063   6.447   2.254
24476WAT     H273671   3.057   6.610   2.238
24477WAT      O73672   5.110   2.161   0.985
24477WAT     H173673   5.199   2.170   0.942
24477WAT     H273674   5.110   2.211   1.072
24478WAT      O73675   9.633   4.015   3.419
24478WAT     H173676   9.677   4.103   3.399
24478WAT     H273677   9.585   3.982   3.337
24479WAT      O73678   9.579   5.101   0.384
24479WAT     H173679   9.573   5.049   0.299
24479WAT     H273680   9.651   5.170   0.376
24480WAT      O73681   3.241   7.418   5.107
24480WAT     H173682   3.231   7.476   5.026
24480WAT     H273683   3.293   7.336   5.083
24481WAT      O73684   4.786   7.481   3.070
24481WAT     H173685   4.861   7.433   3.115
24481WAT     H273686   4.718   7.414   3.039
24482WAT      O73687   3.400   5.321   4.398
24482WAT     H173688   3.319   5.352   4.350
24482WAT     H273689   3.373   5.272   4.481
24483WAT      O73690   6.122   6.174   4.587
24483WAT     H173691   6.137   6.137   4.495
24483WAT     H273692   6.179   6.124   4.652
24484WAT      O73693   6.291   7.441   6.097
24484WAT     H173694   6.292   7.533   6.058
24484WAT     H273695   6.357   7.436   6.172
24485WAT      O73696   0.414   8.365   1.665
24485WAT     H173697   0.513   8.382   1.657
24485WAT     H273698   0.389   8.357   1.762
24486WAT      O73699   8.724   3.762   3.730
24486WAT     H173700   8.713   3.719   3.640
24486WAT     H273701   8.730   3.691   3.800
24487WAT      O73702   5.593   8.977   1.076
24487WAT     H173703   5.681   8.929   1.074
24487WAT     H273704   5.608   9.074   1.096
24488WAT      O73705   4.688   9.071   1.387
24488WAT     H173706   4.695   8.980   1.346
24488WAT     H273707   4.748   9.134   1.339
24489WAT      O73708   8.178   9.289   8.712
24489WAT     H173709   8.192   9.191   8.701
24489WAT     H273710   8.183   9.334   8.623
24490WAT      O73711   7.381   4.107   5.134
24490WAT     H173712   7.420   4.036   5.076
24490WAT     H273713   7.438   4.118   5.216
24491WAT      O73714   8.501   2.554   8.785
24491WAT     H173715   8.509   2.648   8.753
24491WAT     H273716   8.475   2.495   8.708
24492WAT      O73717   2.359   1.237   1.049
24492WAT     H173718   2.454   1.265   1.062
24492WAT     H273719   2.321   1.204   1.135
24493WAT      O73720   7.816   6.819   5.751
24493WAT     H173721   7.860   6.748   5.695
24493WAT     H273722   7.887   6.870   5.800
24494WAT      O73723   0.689   8.726   5.607
24494WAT     H173724   0.673   8.700   5.702
24494WAT     H273725   0.676   8.825   5.597
24495WAT      O73726   3.654   5.676   7.877
24495WAT     H173727   3.581   5.744   7.885
24495WAT     H273728   3.633   5.597   7.934
24496WAT      O73729   7.640   8.026   9.875
24496WAT     H173730   7.612   7.931   9.862
24496WAT     H273731   7.618   8.055   9.968
24497WAT      O73732   2.666   4.456   9.302
24497WAT     H173733   2.600   4.526   9.328
24497WAT     H273734   2.644   4.421   9.211
24498WAT      O73735   3.927   9.402   5.750
24498WAT     H173736   3.843   9.371   5.704
24498WAT     H273737   3.914   9.497   5.781
24499WAT      O73738   8.661   7.093   9.518
24499WAT     H173739   8.680   7.186   9.550
24499WAT     H273740   8.581   7.057   9.566
24500WAT      O73741   1.208   0.272   2.942
24500WAT     H173742   1.262   0.248   3.023
24500WAT     H273743   1.115   0.296   2.970
24501WAT      O73744   9.671   1.315   7.131
24501WAT     H173745   9.635   1.295   7.222
24501WAT     H273746   9.601   1.362   7.077
24502WAT      O73747   9.151   7.187   4.176
24502WAT     H173748   9.073   7.135   4.143
24502WAT     H273749   9.121   7.279   4.203
24503WAT      O73750   6.801   9.209   6.803
24503WAT     H173751   6.867   9.142   6.838
24503WAT     H273752   6.805   9.291   6.860
24504WAT      O73753   9.705   0.976   3.643
24504WAT     H173754   9.769   0.934   3.578
24504WAT     H273755   9.616   0.931   3.636
24505WAT      O73756   3.903   4.013   7.740
24505WAT     H173757   3.909   3.992   7.642
24505WAT     H273758   3.819   3.973   7.777
24506WAT      O73759   8.725   0.382   5.433
24506WAT     H173760   8.767   0.439   5.363
24506WAT     H273761   8.796   0.338   5.489
24507WAT      O73762   1.367   8.081   7.995
24507WAT     H173763   1.345   7.984   7.985
24507WAT     H273764   1.336   8.131   7.913
24508WAT      O73765   3.525   5.199   0.434
24508WAT     H173766   3.493   5.291   0.412
24508WAT     H273767   3.447   5.143   0.465
24509WAT      O73768   2.714   7.623   9.127
24509WAT     H173769   2.766   7.561   9.186
24509WAT     H273770   2.720   7.592   9.033
24510WAT      O73771   2.742   7.318   8.689
24510WAT     H173772   2.672   7.357   8.630
24510WAT     H273773   2.723   7.221   8.704
24511WAT      O73774   4.569   3.825   5.101
24511WAT     H173775   4.624   3.908   5.097
24511WAT     H273776   4.544   3.796   5.008
24512WAT      O73777   3.473   5.315   7.080
24512WAT     H173778   3.394   5.279   7.129
24512WAT     H273779   3.478   5.414   7.091
24513WAT      O73780   6.676   3.553   5.614
24513WAT     H173781   6.591   3.515   5.652
24513WAT     H273782   6.662   3.649   5.591
24514WAT      O73783   4.636   3.939   4.377
24514WAT     H173784   4.577   3.873   4.425
24514WAT     H273785   4.727   3.938   4.419
24515WAT      O73786   9.142   8.619   3.450
24515WAT     H173787   9.136   8.521   3.469
24515WAT     H273788   9.229   8.655   3.485
24516WAT      O73789   3.242   6.872   3.799
24516WAT     H173790   3.311   6.856   3.869
24516WAT     H273791   3.255   6.807   3.724
24517WAT      O73792   6.574   1.250   3.469
24517WAT     H173793   6.509   1.190   3.423
24517WAT     H273794   6.589   1.332   3.414
24518WAT      O73795   7.718   3.444   1.756
24518WAT     H173796   7.682   3.435   1.849
24518WAT     H273797   7.697   3.361   1.704
24519WAT      O73798   2.487   8.353   3.658
24519WAT     H173799   2.486   8.393   3.750
24519WAT     H273800   2.395   8.359   3.618
24520WAT      O73801   1.138   0.571   8.142
24520WAT     H173802   1.065   0.638   8.130
24520WAT     H273803   1.227   0.615   8.135
24521WAT      O73804   3.655   2.184   4.471
24521WAT     H173805   3.696   2.152   4.557
24521WAT     H273806   3.572   2.236   4.491
24522WAT      O73807   8.265   9.831   1.765
24522WAT     H173808   8.203   9.835   1.687
24522WAT     H273809   8.304   9.739   1.771
24523WAT      O73810   5.288   8.705   2.550
24523WAT     H173811   5.282   8.804   2.535
24523WAT     H273812   5.327   8.687   2.640
24524WAT      O73813   5.029   7.810   7.966
24524WAT     H173814   5.079   7.841   8.047
24524WAT     H273815   4.957   7.876   7.944
24525WAT      O73816   5.020   4.277   3.259
24525WAT     H173817   4.979   4.293   3.169
24525WAT     H273818   4.967   4.326   3.328
24526WAT      O73819   8.993   7.984   1.074
24526WAT     H173820   8.998   7.957   1.170
24526WAT     H273821   9.058   8.057   1.056
24527WAT      O73822   2.949   1.831   1.306
24527WAT     H173823   2.855   1.813   1.335
24527WAT     H273824   3.013   1.789   1.371
24528WAT      O73825   3.133   4.720   9.461
24528WAT     H173826   3.197   4.791   9.431
24528WAT     H273827   3.053   4.720   9.401
24529WAT      O73828   3.994   9.512   7.983
24529WAT     H173829   3.986   9.488   7.886
24529WAT     H273830   4.058   9.449   8.027
24530WAT      O73831   5.799   5.317   5.352
24530WAT     H173832   5.898   5.314   5.369
24530WAT     H273833   5.750   5.317   5.439
24531WAT      O73834   2.481   6.469   6.519
24531WAT     H173835   2.454   6.551   6.570
24531WAT     H273836   2.564   6.487   6.467
24532WAT      O73837   7.891   6.460   0.136
24532WAT     H173838   7.914   6.516   0.056
24532WAT     H273839   7.799   6.483   0.167
24533WAT      O73840   6.114   5.342   1.237
24533WAT     H173841   6.021   5.329   1.272
24533WAT     H273842   6.179   5.309   1.305
24534WAT      O73843   8.288   6.672   4.557
24534WAT     H173844   8.232   6.742   4.510
24534WAT     H273845   8.243   6.583   4.548
24535WAT      O73846   8.568   6.166   5.579
24535WAT     H173847   8.525   6.099   5.519
24535WAT     H273848   8.502   6.238   5.602
24536WAT      O73849   1.769   5.480   6.549
24536WAT     H173850   1.804   5.426   6.625
24536WAT     H273851   1.752   5.421   6.470
24537WAT      O73852   4.299   7.826   5.582
24537WAT     H173853   4.251   7.908   5.550
24537WAT     H273854   4.232   7.762   5.621
24538WAT      O73855   9.698   9.291   9.240
24538WAT     H173856   9.785   9.295   9.290
24538WAT     H273857   9.710   9.237   9.157
24539WAT      O73858   9.691   0.236   6.163
24539WAT     H173859   9.784   0.240   6.129
24539WAT     H273860   9.679   0.152   6.216
24540WAT      O73861   7.966   9.037   4.902
24540WAT     H173862   7.961   8.946   4.945
24540WAT     H273863   7.988   9.027   4.805
24541WAT      O73864   1.214   9.025   4.990
24541WAT     H173865   1.184   9.110   5.035
24541WAT     H273866   1.314   9.019   4.995
24542WAT      O73867   3.455   8.664   0.510
24542WAT     H173868   3.476   8.741   0.570
24542WAT     H273869   3.368   8.679   0.464
24543WAT      O73870   6.901   6.263   8.120
24543WAT     H173871   6.956   6.307   8.050
24543WAT     H273872   6.953   6.188   8.161
24544WAT      O73873   2.328   2.534   4.522
24544WAT     H173874   2.297   2.467   4.453
24544WAT     H273875   2.272   2.525   4.604
24545WAT      O73876   4.789   2.679   2.229
24545WAT     H173877   4.733   2.648   2.153
24545WAT     H273878   4.809   2.602   2.290
24546WAT      O73879   3.790   1.116   0.351
24546WAT     H173880   3.808   1.027   0.310
24546WAT     H273881   3.845   1.186   0.306
24547WAT      O73882   0.557   7.517   2.502
24547WAT     H173883   0.607   7.433   2.520
24547WAT     H273884   0.620   7.595   2.505
24548WAT      O73885   4.979   7.793   4.146
24548WAT     H173886   4.886   7.827   4.152
24548WAT     H273887   4.979   7.693   4.152
24549WAT      O73888   0.215   9.747   4.844
24549WAT     H173889   0.301   9.736   4.893
24549WAT     H273890   0.157   9.668   4.860
24550WAT      O73891   1.522   7.102   1.115
24550WAT     H173892   1.580   7.137   1.189
24550WAT     H273893   1.528   7.002   1.113
24551WAT      O73894   9.115   1.345   0.027
24551WAT     H173895   9.079   1.412  -0.038
24551WAT     H273896   9.198   1.381   0.070
24552WAT      O73897   6.285   5.051   5.115
24552WAT     H173898   6.219   4.999   5.169
24552WAT     H273899   6.319   4.994   5.040
24553WAT      O73900   8.723   7.251   0.725
24553WAT     H173901   8.725   7.221   0.821
24553WAT     H273902   8.711   7.351   0.722
24554WAT      O73903   7.591   9.375   2.392
24554WAT     H173904   7.523   9.322   2.342
24554WAT     H273905   7.551   9.408   2.477
24555WAT      O73906   6.103   1.605   2.207
24555WAT     H173907   6.125   1.701   2.219
24555WAT     H273908   6.054   1.571   2.287
24556WAT      O73909   2.975   7.275   2.114
24556WAT     H173910   2.904   7.333   2.073
24556WAT     H273911   2.992   7.196   2.054
24557WAT      O73912   6.873   4.720   3.373
24557WAT     H173913   6.850   4.725   3.275
24557WAT     H273914   6.793   4.746   3.427
24558WAT      O73915   7.862   1.098   1.193
24558WAT     H173916   7.893   1.037   1.120
24558WAT     H273917   7.864   1.193   1.160
24559WAT      O73918   4.951   1.771   1.916
24559WAT     H173919   5.023   1.839   1.902
24559WAT     H273920   4.937   1.719   1.832
24560WAT      O73921   8.580   7.217   3.748
24560WAT     H173922   8.501   7.184   3.696
24560WAT     H273923   8.663   7.175   3.713
24561WAT      O73924   1.602   7.272   5.289
24561WAT     H173925   1.648   7.212   5.224
24561WAT     H273926   1.625   7.243   5.382
24562WAT      O73927   1.503   9.791   3.419
24562WAT     H173928   1.426   9.852   3.438
24562WAT     H273929   1.586   9.846   3.407
24563WAT      O73930   2.154   5.305   0.309
24563WAT     H173931   2.189   5.211   0.304
24563WAT     H273932   2.188   5.348   0.394
24564WAT      O73933   7.043   3.562   9.498
24564WAT     H173934   6.995   3.649   9.498
24564WAT     H273935   7.073   3.541   9.405
24565WAT      O73936   1.360   3.698   7.353
24565WAT     H173937   1.348   3.707   7.255
24565WAT     H273938   1.441   3.749   7.382
24566WAT      O73939   0.376   2.444   6.327
24566WAT     H173940   0.402   2.450   6.423
24566WAT     H273941   0.451   2.403   6.274
24567WAT      O73942   1.497   3.403   6.417
24567WAT     H173943   1.515   3.305   6.428
24567WAT     H273944   1.568   3.455   6.465
24568WAT      O73945   3.820   4.698   3.143
24568WAT     H173946   3.721   4.699   3.152
24568WAT     H273947   3.853   4.790   3.120
24569WAT      O73948   2.046   9.416   7.060
24569WAT     H173949   1.968   9.478   7.058
24569WAT     H273950   2.080   9.401   6.967
24570WAT      O73951   6.354   0.018   9.002
24570WAT     H173952   6.267  -0.005   9.047
24570WAT     H273953   6.422  -0.051   9.024
24571WAT      O73954   8.522   8.189   3.436
24571WAT     H173955   8.611   8.148   3.457
24571WAT     H273956   8.530   8.244   3.352
24572WAT      O73957   1.173   6.345   4.619
24572WAT     H173958   1.152   6.426   4.675
24572WAT     H273959   1.261   6.359   4.573
24573WAT      O73960   3.005   5.291   8.759
24573WAT     H173961   3.028   5.218   8.695
24573WAT     H273962   3.087   5.346   8.778
24574WAT      O73963   8.363   1.011   7.727
24574WAT     H173964   8.370   1.087   7.662
24574WAT     H273965   8.306   1.039   7.804
24575WAT      O73966   3.504   0.095   4.514
24575WAT     H173967   3.548   0.184   4.508
24575WAT     H273968   3.561   0.033   4.568
24576WAT      O73969   5.012   3.787   6.078
24576WAT     H173970   4.988   3.763   5.984
24576WAT     H273971   5.107   3.819   6.082
24577WAT      O73972   9.663   4.902   8.042
24577WAT     H173973   9.635   4.870   8.132
24577WAT     H273974   9.681   5.001   8.045
24578WAT      O73975   0.782   7.935   8.215
24578WAT     H173976   0.739   8.004   8.273
24578WAT     H273977   0.727   7.851   8.216
24579WAT      O73978   7.321   3.427   3.859
24579WAT     H173979   7.231   3.385   3.853
24579WAT     H273980   7.331   3.496   3.787
24580WAT      O73981   7.533   5.549   2.558
24580WAT     H173982   7.468   5.542   2.482
24580WAT     H273983   7.489   5.598   2.634
24581WAT      O73984   7.674   8.560   2.845
24581WAT     H173985   7.748   8.528   2.785
24581WAT     H273986   7.655   8.656   2.827
24582WAT      O73987   7.098   3.351   1.382
24582WAT     H173988   7.053   3.268   1.348
24582WAT     H273989   7.189   3.327   1.415
24583WAT      O73990   9.372   5.466   3.575
24583WAT     H173991   9.373   5.456   3.476
24583WAT     H273992   9.453   5.517   3.605
24584WAT      O73993   1.808   6.204   0.286
24584WAT     H173994   1.769   6.162   0.368
24584WAT     H273995   1.772   6.158   0.205
24585WAT      O73996   6.247   1.580   2.733
24585WAT     H173997   6.341   1.569   2.766
24585WAT     H273998   6.223   1.502   2.674
24586WAT      O73999   6.343   1.545   3.536
24586WAT     H174000   6.284   1.476   3.493
24586WAT     H274001   6.384   1.602   3.465
24587WAT      O74002   3.535   9.054   8.981
24587WAT     H174003   3.483   9.014   9.056
24587WAT     H274004   3.577   8.982   8.926
24588WAT      O74005   2.162   9.655   6.074
24588WAT     H174006   2.161   9.601   5.989
24588WAT     H274007   2.221   9.735   6.062
24589WAT      O74008   0.768   7.460   6.358
24589WAT     H174009   0.712   7.420   6.286
24589WAT     H274010   0.829   7.529   6.318
24590WAT      O74011   6.536   1.966   1.209
24590WAT     H174012   6.502   1.907   1.135
24590WAT     H274013   6.459   1.994   1.266
24591WAT      O74014   4.296   7.583   0.489
24591WAT     H174015   4.279   7.661   0.429
24591WAT     H274016   4.209   7.548   0.524
24592WAT      O74017   1.081   6.335   1.057
24592WAT     H174018   1.058   6.422   1.100
24592WAT     H274019   1.020   6.319   0.979
24593WAT      O74020   7.020   7.980   6.378
24593WAT     H174021   6.991   7.965   6.473
24593WAT     H274022   7.015   8.077   6.357
24594WAT      O74023   5.010   7.620   7.754
24594WAT     H174024   5.005   7.652   7.849
24594WAT     H274025   4.995   7.697   7.692
24595WAT      O74026   2.856   6.599   0.738
24595WAT     H174027   2.881   6.547   0.656
24595WAT     H274028   2.757   6.613   0.739
24596WAT      O74029   8.220   2.131   8.677
24596WAT     H174030   8.226   2.224   8.712
24596WAT     H274031   8.292   2.116   8.609
24597WAT      O74032   9.112   4.526   4.306
24597WAT     H174033   9.136   4.430   4.320
24597WAT     H274034   9.024   4.531   4.258
24598WAT      O74035   1.577   5.237   6.687
24598WAT     H174036   1.643   5.168   6.715
24598WAT     H274037   1.581   5.315   6.749
24599WAT      O74038   6.317   8.691   1.265
24599WAT     H174039   6.223   8.689   1.233
24599WAT     H274040   6.360   8.602   1.248
24600WAT      O74041   2.166   7.113   1.699
24600WAT     H174042   2.126   7.137   1.787
24600WAT     H274043   2.109   7.149   1.625
24601WAT      O74044   4.069   2.977   9.664
24601WAT     H174045   4.131   2.899   9.672
24601WAT     H274046   3.978   2.944   9.640
24602WAT      O74047   8.899   7.437   8.407
24602WAT     H174048   8.992   7.435   8.371
24602WAT     H274049   8.835   7.408   8.336
24603WAT      O74050   0.661   0.260   3.647
24603WAT     H174051   0.727   0.199   3.603
24603WAT     H274052   0.694   0.284   3.738
24604WAT      O74053   9.117   4.692   6.299
24604WAT     H174054   9.175   4.611   6.302
24604WAT     H274055   9.026   4.666   6.266
24605WAT      O74056   9.683   8.052   3.641
24605WAT     H174057   9.657   8.115   3.569
24605WAT     H274058   9.673   8.096   3.730
24606WAT      O74059   0.117   7.826   0.459
24606WAT     H174060   0.212   7.858   0.453
24606WAT     H274061   0.086   7.795   0.369
24607WAT      O74062   7.903   7.110   3.099
24607WAT     H174063   7.899   7.163   3.014
24607WAT     H274064   7.996   7.115   3.137
24608WAT      O74065   3.771   9.247   2.407
24608WAT     H174066   3.757   9.342   2.436
24608WAT     H274067   3.717   9.187   2.466
24609WAT      O74068   2.185   0.699   4.754
24609WAT     H174069   2.279   0.716   4.784
24609WAT     H274070   2.181   0.611   4.707
24610WAT      O74071   0.581   5.409   8.303
24610WAT     H174072   0.643   5.451   8.369
24610WAT     H274073   0.501   5.373   8.352
24611WAT      O74074   9.817   5.866   6.956
24611WAT     H174075   9.777   5.951   6.992
24611WAT     H274076   9.774   5.788   7.002
24612WAT      O74077   3.419   8.671   6.599
24612WAT     H174078   3.443   8.664   6.502
24612WAT     H274079   3.400   8.767   6.621
24613WAT      O74080   2.634   5.847   9.278
24613WAT     H174081   2.579   5.868   9.196
24613WAT     H274082   2.596   5.766   9.323
24614WAT      O74083   3.696   1.981   5.234
24614WAT     H174084   3.618   2.037   5.260
24614WAT     H274085   3.775   2.040   5.216
24615WAT      O74086   0.038   4.660   5.533
24615WAT     H174087   0.071   4.723   5.464
24615WAT     H274088   0.043   4.566   5.498
24616WAT      O74089   7.337   1.263   9.634
24616WAT     H174090   7.312   1.167   9.621
24616WAT     H274091   7.263   1.321   9.600
24617WAT      O74092   0.583   4.616   6.934
24617WAT     H174093   0.493   4.607   6.891
24617WAT     H274094   0.653   4.626   6.862
24618WAT      O74095   4.998   1.795   5.592
24618WAT     H174096   5.010   1.790   5.691
24618WAT     H274097   4.935   1.869   5.570
24619WAT      O74098   8.580   1.062   4.935
24619WAT     H174099   8.640   1.061   5.014
24619WAT     H274100   8.625   1.112   4.860
24620WAT      O74101   0.824   4.961   7.574
24620WAT     H174102   0.726   4.965   7.594
24620WAT     H274103   0.872   5.029   7.630
24621WAT      O74104   3.706   8.012   3.793
24621WAT     H174105   3.671   8.052   3.878
24621WAT     H274106   3.633   7.961   3.748
24622WAT      O74107   5.258   1.106   0.629
24622WAT     H174108   5.244   1.192   0.678
24622WAT     H274109   5.191   1.039   0.660
24623WAT      O74110   0.356   2.723   8.375
24623WAT     H174111   0.442   2.694   8.333
24623WAT     H274112   0.342   2.673   8.460
24624WAT      O74113   6.902   9.761   1.056
24624WAT     H174114   6.868   9.694   0.990
24624WAT     H274115   6.848   9.757   1.140
24625WAT      O74116   6.960   9.012   6.358
24625WAT     H174117   6.876   8.988   6.309
24625WAT     H274118   7.039   8.974   6.309
24626WAT      O74119   7.467   8.618   4.245
24626WAT     H174120   7.442   8.536   4.297
24626WAT     H274121   7.559   8.647   4.272
24627WAT      O74122   4.012   2.834   3.447
24627WAT     H174123   3.980   2.797   3.534
24627WAT     H274124   4.045   2.927   3.460
24628WAT      O74125   4.160   3.439   7.785
24628WAT     H174126   4.146   3.342   7.803
24628WAT     H274127   4.112   3.465   7.701
24629WAT      O74128   7.537   5.185   7.777
24629WAT     H174129   7.516   5.245   7.854
24629WAT     H274130   7.474   5.204   7.702
24630WAT      O74131   3.585   4.880   0.378
24630WAT     H174132   3.591   4.970   0.336
24630WAT     H274133   3.490   4.848   0.374
24631WAT      O74134   0.777   9.820   4.245
24631WAT     H174135   0.693   9.851   4.290
24631WAT     H274136   0.844   9.795   4.315
24632WAT      O74137   8.662   6.095   3.750
24632WAT     H174138   8.679   6.107   3.652
24632WAT     H274139   8.579   6.144   3.776
24633WAT      O74140   2.448   7.746   7.686
24633WAT     H174141   2.538   7.721   7.651
24633WAT     H274142   2.406   7.666   7.729
24634WAT      O74143   5.118   2.734   9.879
24634WAT     H174144   5.076   2.824   9.885
24634WAT     H274145   5.136   2.700   9.972
24635WAT      O74146   2.091   6.340   0.680
24635WAT     H174147   2.163   6.387   0.630
24635WAT     H274148   2.002   6.373   0.649
24636WAT      O74149   7.432   7.494   6.764
24636WAT     H174150   7.473   7.528   6.849
24636WAT     H274151   7.499   7.441   6.713
24637WAT      O74152   7.470   3.267   5.461
24637WAT     H174153   7.486   3.335   5.390
24637WAT     H274154   7.525   3.186   5.444
24638WAT      O74155   3.450   9.753   2.911
24638WAT     H174156   3.521   9.710   2.967
24638WAT     H274157   3.436   9.700   2.828
24639WAT      O74158   9.688   5.116   7.423
24639WAT     H174159   9.634   5.153   7.348
24639WAT     H274160   9.641   5.037   7.462
24640WAT      O74161   3.234   3.237   3.205
24640WAT     H174162   3.251   3.228   3.106
24640WAT     H274163   3.240   3.333   3.231
24641WAT      O74164   4.730   5.887   0.583
24641WAT     H174165   4.668   5.961   0.560
24641WAT     H274166   4.687   5.826   0.649
24642WAT      O74167   1.848   2.169   0.335
24642WAT     H174168   1.819   2.175   0.239
24642WAT     H274169   1.767   2.167   0.393
24643WAT      O74170   3.686   3.097   7.340
24643WAT     H174171   3.657   3.096   7.435
24643WAT     H274172   3.655   3.182   7.297
24644WAT      O74173   1.366   2.178   9.522
24644WAT     H174174   1.307   2.097   9.525
24644WAT     H274175   1.456   2.155   9.559
24645WAT      O74176   8.854   7.483   4.139
24645WAT     H174177   8.782   7.427   4.181
24645WAT     H274178   8.935   7.482   4.197
24646WAT      O74179   0.514   6.342   2.223
24646WAT     H174180   0.445   6.272   2.243
24646WAT     H274181   0.589   6.333   2.289
24647WAT      O74182   2.041   8.187   5.799
24647WAT     H174183   2.053   8.145   5.709
24647WAT     H274184   2.120   8.245   5.819
24648WAT      O74185   9.224   7.856   4.016
24648WAT     H174186   9.149   7.855   4.082
24648WAT     H274187   9.214   7.934   3.955
24649WAT      O74188   5.487   5.466   7.107
24649WAT     H174189   5.423   5.413   7.052
24649WAT     H274190   5.458   5.561   7.111
24650WAT      O74191   2.905   4.705   9.652
24650WAT     H174192   2.815   4.662   9.648
24650WAT     H274193   2.947   4.704   9.561
24651WAT      O74194   8.573   3.081   6.632
24651WAT     H174195   8.656   3.137   6.628
24651WAT     H274196   8.509   3.110   6.562
24652WAT      O74197   7.118   4.853   5.551
24652WAT     H174198   7.128   4.942   5.596
24652WAT     H274199   7.166   4.854   5.464
24653WAT      O74200   0.695   7.406   1.093
24653WAT     H174201   0.662   7.320   1.054
24653WAT     H274202   0.795   7.407   1.093
24654WAT      O74203   2.766   0.454   3.645
24654WAT     H174204   2.788   0.408   3.731
24654WAT     H274205   2.824   0.535   3.634
24655WAT      O74206   4.156   7.389   4.325
24655WAT     H174207   4.063   7.427   4.328
24655WAT     H274208   4.153   7.291   4.345
24656WAT      O74209   8.764   5.887   8.508
24656WAT     H174210   8.719   5.895   8.419
24656WAT     H274211   8.786   5.791   8.525
24657WAT      O74212   6.163   8.644   4.197
24657WAT     H174213   6.180   8.652   4.099
24657WAT     H274214   6.199   8.725   4.244
24658WAT      O74215   9.319   5.006   1.223
24658WAT     H174216   9.311   5.048   1.313
24658WAT     H274217   9.416   4.997   1.199
24659WAT      O74218   6.477   8.410   5.701
24659WAT     H174219   6.459   8.471   5.624
24659WAT     H274220   6.449   8.455   5.786
24660WAT      O74221   1.030   9.732   9.211
24660WAT     H174222   1.125   9.707   9.191
24660WAT     H274223   0.986   9.656   9.260
24661WAT      O74224   1.962   9.789   9.794
24661WAT     H174225   2.051   9.819   9.760
24661WAT     H274226   1.936   9.703   9.750
24662WAT      O74227   2.407   3.652   2.190
24662WAT     H174228   2.383   3.622   2.098
24662WAT     H274229   2.341   3.615   2.256
24663WAT      O74230   4.720   0.838   7.755
24663WAT     H174231   4.652   0.834   7.828
24663WAT     H274232   4.801   0.887   7.787
24664WAT      O74233   2.654   5.837   8.923
24664WAT     H174234   2.577   5.889   8.886
24664WAT     H274235   2.698   5.889   8.996
24665WAT      O74236   3.518   5.849   1.733
24665WAT     H174237   3.567   5.933   1.755
24665WAT     H274238   3.564   5.771   1.773
24666WAT      O74239   9.829   1.940   8.277
24666WAT     H174240   9.842   2.018   8.338
24666WAT     H274241   9.750   1.956   8.218
24667WAT      O74242   4.740   6.845   3.231
24667WAT     H174243   4.743   6.909   3.154
24667WAT     H274244   4.775   6.756   3.202
24668WAT      O74245   7.510   3.743   3.503
24668WAT     H174246   7.596   3.694   3.488
24668WAT     H274247   7.512   3.830   3.453
24669WAT      O74248   1.203   1.844   6.585
24669WAT     H174249   1.164   1.758   6.617
24669WAT     H274250   1.300   1.847   6.609
24670WAT      O74251   6.839   1.003   0.043
24670WAT     H174252   6.814   1.030   0.136
24670WAT     H274253   6.778   0.930   0.012
24671WAT      O74254   5.978   3.787   1.964
24671WAT     H174255   6.063   3.779   1.912
24671WAT     H274256   5.932   3.872   1.941
24672WAT      O74257   6.704   0.342   7.215
24672WAT     H174258   6.650   0.283   7.155
24672WAT     H274259   6.794   0.301   7.230
24673WAT      O74260   4.950   4.049   1.784
24673WAT     H174261   4.969   4.022   1.690
24673WAT     H274262   5.029   4.099   1.821
24674WAT      O74263   8.611   8.479   5.003
24674WAT     H174264   8.647   8.567   4.973
24674WAT     H274265   8.556   8.492   5.085
24675WAT      O74266   2.542   7.804   6.504
24675WAT     H174267   2.502   7.738   6.567
24675WAT     H274268   2.637   7.821   6.529
24676WAT      O74269   1.248   8.330   1.117
24676WAT     H174270   1.294   8.241   1.121
24676WAT     H274271   1.217   8.348   1.024
24677WAT      O74272   1.432   0.833   3.615
24677WAT     H174273   1.374   0.800   3.689
24677WAT     H274274   1.527   0.809   3.634
24678WAT      O74275   6.432   7.628   6.790
24678WAT     H174276   6.342   7.636   6.834
24678WAT     H274277   6.490   7.705   6.818
24679WAT      O74278   6.807   9.448   4.746
24679WAT     H174279   6.739   9.504   4.699
24679WAT     H274280   6.760   9.377   4.799
24680WAT      O74281   6.927   5.197   7.412
24680WAT     H174282   6.969   5.116   7.370
24680WAT     H274283   6.828   5.188   7.410
24681WAT      O74284   5.099   1.464   4.389
24681WAT     H174285   5.150   1.549   4.371
24681WAT     H274286   5.039   1.477   4.467
24682WAT      O74287   6.677   4.866   0.056
24682WAT     H174288   6.717   4.812  -0.017
24682WAT     H274289   6.723   4.955   0.060
24683WAT      O74290   5.633   7.146   3.561
24683WAT     H174291   5.636   7.056   3.518
24683WAT     H274292   5.688   7.211   3.509
24684WAT      O74293   1.562   9.539   3.101
24684WAT     H174294   1.598   9.452   3.066
24684WAT     H274295   1.583   9.548   3.198
24685WAT      O74296   9.626   1.110   4.889
24685WAT     H174297   9.683   1.028   4.893
24685WAT     H274298   9.597   1.125   4.794
24686WAT      O74299   3.647   7.949   2.125
24686WAT     H174300   3.660   7.878   2.057
24686WAT     H274301   3.712   7.937   2.200
24687WAT      O74302   6.603   0.995   8.776
24687WAT     H174303   6.651   0.927   8.720
24687WAT     H274304   6.574   1.071   8.718
24688WAT      O74305   4.768   9.251   0.028
24688WAT     H174306   4.854   9.273   0.074
24688WAT     H274307   4.714   9.334   0.017
24689WAT      O74308   2.355   2.447   5.410
24689WAT     H174309   2.274   2.444   5.351
24689WAT     H274310   2.349   2.374   5.478
24690WAT      O74311   7.887   1.036   5.032
24690WAT     H174312   7.934   0.986   5.105
24690WAT     H274313   7.877   1.132   5.060
24691WAT      O74314   3.258   9.764   0.849
24691WAT     H174315   3.224   9.846   0.802
24691WAT     H274316   3.181   9.704   0.871
24692WAT      O74317   8.515   9.738   3.126
24692WAT     H174318   8.504   9.670   3.054
24692WAT     H274319   8.541   9.826   3.086
24693WAT      O74320   0.663   7.850   0.882
24693WAT     H174321   0.625   7.929   0.929
24693WAT     H274322   0.659   7.865   0.783
24694WAT      O74323   1.907   4.964   0.206
24694WAT     H174324   1.946   4.969   0.298
24694WAT     H274325   1.812   4.996   0.208
24695WAT      O74326   0.708   3.257   4.298
24695WAT     H174327   0.675   3.346   4.266
24695WAT     H274328   0.741   3.266   4.392
24696WAT      O74329   3.250   7.942   3.130
24696WAT     H174330   3.251   7.890   3.045
24696WAT     H274331   3.324   8.010   3.128
24697WAT      O74332   8.716   9.721   1.777
24697WAT     H174333   8.805   9.734   1.732
24697WAT     H274334   8.644   9.718   1.708
24698WAT      O74335   2.719   3.832   3.577
24698WAT     H174336   2.810   3.815   3.538
24698WAT     H274337   2.721   3.812   3.675
24699WAT      O74338   6.004   3.426   1.494
24699WAT     H174339   5.946   3.399   1.417
24699WAT     H274340   5.947   3.454   1.571
24700WAT      O74341   9.010   0.242   9.443
24700WAT     H174342   9.073   0.194   9.503
24700WAT     H274343   9.015   0.340   9.461
24701WAT      O74344   7.274   9.159   4.096
24701WAT     H174345   7.184   9.191   4.068
24701WAT     H274346   7.268   9.109   4.182
24702WAT      O74347   5.109   5.362   7.750
24702WAT     H174348   5.106   5.287   7.817
24702WAT     H274349   5.202   5.399   7.746
24703WAT      O74350   8.361   8.106   1.410
24703WAT     H174351   8.365   8.025   1.352
24703WAT     H274352   8.351   8.188   1.354
24704WAT      O74353   1.580   9.104   3.742
24704WAT     H174354   1.624   9.118   3.831
24704WAT     H274355   1.487   9.139   3.745
24705WAT      O74356   0.144   2.354   5.558
24705WAT     H174357   0.091   2.269   5.562
24705WAT     H274358   0.121   2.411   5.636
24706WAT      O74359   0.979   1.328   8.658
24706WAT     H174360   0.998   1.318   8.756
24706WAT     H274361   0.898   1.274   8.635
24707WAT      O74362   1.358   5.734   1.067
24707WAT     H174363   1.349   5.833   1.080
24707WAT     H274364   1.352   5.688   1.156
24708WAT      O74365   5.095   5.864   5.596
24708WAT     H174366   5.162   5.869   5.670
24708WAT     H274367   5.048   5.951   5.587
24709WAT      O74368   7.408   5.505   9.616
24709WAT     H174369   7.491   5.561   9.616
24709WAT     H274370   7.412   5.439   9.692
24710WAT      O74371   6.535   1.740   0.331
24710WAT     H174372   6.613   1.707   0.383
24710WAT     H274373   6.552   1.833   0.300
24711WAT      O74374   5.332   3.894   9.865
24711WAT     H174375   5.267   3.838   9.814
24711WAT     H274376   5.346   3.981   9.817
24712WAT      O74377   1.386   4.375   1.065
24712WAT     H174378   1.403   4.373   0.966
24712WAT     H274379   1.319   4.447   1.085
24713WAT      O74380   1.326   6.097   2.695
24713WAT     H174381   1.309   6.082   2.598
24713WAT     H274382   1.407   6.154   2.707
24714WAT      O74383   5.259   0.577   2.111
24714WAT     H174384   5.244   0.478   2.119
24714WAT     H274385   5.177   0.619   2.071
24715WAT      O74386   3.399   6.626   9.461
24715WAT     H174387   3.364   6.535   9.439
24715WAT     H274388   3.456   6.621   9.542
24716WAT      O74389   0.951   5.371   8.065
24716WAT     H174390   0.869   5.386   8.009
24716WAT     H274391   0.933   5.298   8.131
24717WAT      O74392   8.333   1.054   2.560
24717WAT     H174393   8.331   1.102   2.648
24717WAT     H274394   8.404   1.094   2.502
24718WAT      O74395   5.452   2.463   2.453
24718WAT     H174396   5.475   2.554   2.489
24718WAT     H274397   5.355   2.460   2.429
24719WAT      O74398   1.643   1.304   7.040
24719WAT     H174399   1.611   1.224   7.091
24719WAT     H274400   1.730   1.282   6.997
24720WAT      O74401   6.807   4.772   8.274
24720WAT     H174402   6.786   4.847   8.337
24720WAT     H274403   6.903   4.776   8.249
24721WAT      O74404   1.479   2.613   6.715
24721WAT     H174405   1.482   2.519   6.681
24721WAT     H274406   1.391   2.630   6.759
24722WAT      O74407   9.742   4.625   9.497
24722WAT     H174408   9.733   4.630   9.596
24722WAT     H274409   9.686   4.697   9.455
24723WAT      O74410   0.626   6.088   5.992
24723WAT     H174411   0.694   6.159   6.010
24723WAT     H274412   0.536   6.120   6.022
24724WAT      O74413   7.102   0.932   1.228
24724WAT     H174414   7.196   0.964   1.224
24724WAT     H274415   7.096   0.841   1.186
24725WAT      O74416   8.179   7.936   0.936
24725WAT     H174417   8.194   7.848   0.982
24725WAT     H274418   8.232   7.937   0.851
24726WAT      O74419   9.409   7.055   5.045
24726WAT     H174420   9.369   6.977   5.093
24726WAT     H274421   9.485   7.091   5.099
24727WAT      O74422   4.114   3.153   2.827
24727WAT     H174423   4.024   3.189   2.851
24727WAT     H274424   4.108   3.055   2.808
24728WAT      O74425   3.303   5.269   2.923
24728WAT     H174426   3.345   5.301   2.837
24728WAT     H274427   3.206   5.293   2.923
24729WAT      O74428   1.600   0.372   5.006
24729WAT     H174429   1.638   0.429   4.934
24729WAT     H274430   1.618   0.276   4.987
24730WAT      O74431   3.805   6.490   7.599
24730WAT     H174432   3.894   6.453   7.574
24730WAT     H274433   3.802   6.507   7.698
24731WAT      O74434   0.698   6.359   6.761
24731WAT     H174435   0.678   6.266   6.790
24731WAT     H274436   0.659   6.375   6.670
24732WAT      O74437   4.797   6.992   5.334
24732WAT     H174438   4.730   6.965   5.265
24732WAT     H274439   4.888   6.963   5.305
24733WAT      O74440   2.257   0.242   9.867
24733WAT     H174441   2.296   0.186   9.940
24733WAT     H274442   2.284   0.205   9.779
24734WAT      O74443   3.753   0.874   8.813
24734WAT     H174444   3.841   0.885   8.861
24734WAT     H274445   3.753   0.787   8.764
24735WAT      O74446   8.277   7.222   3.963
24735WAT     H174447   8.331   7.140   3.945
24735WAT     H274448   8.326   7.302   3.931
24736WAT      O74449   7.809   4.848   7.704
24736WAT     H174450   7.767   4.757   7.698
24736WAT     H274451   7.749   4.916   7.661
24737WAT      O74452   2.494   7.925   3.553
24737WAT     H174453   2.507   7.843   3.608
24737WAT     H274454   2.454   7.997   3.609
24738WAT      O74455   7.976   9.563   3.813
24738WAT     H174456   8.071   9.560   3.845
24738WAT     H274457   7.923   9.491   3.857
24739WAT      O74458   8.439   7.441   5.021
24739WAT     H174459   8.342   7.465   5.024
24739WAT     H274460   8.477   7.443   5.114
24740WAT      O74461   6.219   0.825   0.272
24740WAT     H174462   6.175   0.789   0.189
24740WAT     H274463   6.151   0.873   0.328
24741WAT      O74464   6.128   1.380   4.640
24741WAT     H174465   6.211   1.360   4.692
24741WAT     H274466   6.143   1.361   4.543
24742WAT      O74467   4.915   8.818   2.667
24742WAT     H174468   4.970   8.816   2.750
24742WAT     H274469   4.930   8.905   2.619
24743WAT      O74470   7.470   4.409   8.128
24743WAT     H174471   7.483   4.311   8.140
24743WAT     H274472   7.388   4.426   8.073
24744WAT      O74473   1.046   4.583   7.397
24744WAT     H174474   1.012   4.635   7.319
24744WAT     H274475   0.996   4.497   7.404
24745WAT      O74476   5.072   5.984   6.327
24745WAT     H174477   5.018   5.938   6.397
24745WAT     H274478   5.020   6.062   6.291
24746WAT      O74479   3.177   2.784   0.873
24746WAT     H174480   3.271   2.767   0.842
24746WAT     H274481   3.117   2.714   0.836
24747WAT      O74482   3.503   1.496   8.435
24747WAT     H174483   3.459   1.547   8.509
24747WAT     H274484   3.455   1.514   8.350
24748WAT      O74485   4.626   2.229   5.866
24748WAT     H174486   4.647   2.165   5.940
24748WAT     H274487   4.586   2.312   5.905
24749WAT      O74488   2.039   9.837   5.257
24749WAT     H174489   2.101   9.896   5.205
24749WAT     H274490   2.013   9.884   5.342
24750WAT      O74491   1.411   9.738   7.111
24750WAT     H174492   1.311   9.741   7.105
24750WAT     H274493   1.446   9.830   7.131
24751WAT      O74494   3.250   2.198   4.212
24751WAT     H174495   3.326   2.142   4.180
24751WAT     H274496   3.281   2.258   4.285
24752WAT      O74497   6.614   7.751   0.817
24752WAT     H174498   6.570   7.685   0.878
24752WAT     H274499   6.545   7.796   0.761
24753WAT      O74500   7.273   8.728   4.491
24753WAT     H174501   7.293   8.642   4.539
24753WAT     H274502   7.353   8.754   4.436
24754WAT      O74503   2.654   8.028   4.619
24754WAT     H174504   2.670   8.082   4.701
24754WAT     H274505   2.564   8.050   4.580
24755WAT      O74506   3.638   0.434   1.105
24755WAT     H174507   3.583   0.410   1.185
24755WAT     H274508   3.683   0.352   1.070
24756WAT      O74509   4.042   2.028   6.613
24756WAT     H174510   4.124   2.011   6.558
24756WAT     H274511   4.017   1.943   6.660
24757WAT      O74512   8.006   5.155   8.449
24757WAT     H174513   7.925   5.158   8.508
24757WAT     H274514   8.059   5.073   8.470
24758WAT      O74515   5.432   4.546   3.470
24758WAT     H174516   5.378   4.477   3.422
24758WAT     H274517   5.469   4.612   3.404
24759WAT      O74518   4.248   8.131   6.826
24759WAT     H174519   4.191   8.079   6.890
24759WAT     H274520   4.341   8.139   6.864
24760WAT      O74521   8.425   9.651   4.253
24760WAT     H174522   8.350   9.707   4.218
24760WAT     H274523   8.451   9.683   4.344
24761WAT      O74524   0.508   1.401   7.267
24761WAT     H174525   0.575   1.420   7.338
24761WAT     H274526   0.491   1.484   7.214
24762WAT      O74527   2.772   0.146   6.282
24762WAT     H174528   2.789   0.244   6.272
24762WAT     H274529   2.703   0.118   6.215
24763WAT      O74530   1.458   5.269   9.532
24763WAT     H174531   1.405   5.240   9.453
24763WAT     H274532   1.459   5.195   9.600
24764WAT      O74533   5.598   2.172   4.005
24764WAT     H174534   5.521   2.120   4.043
24764WAT     H274535   5.577   2.270   4.008
24765WAT      O74536   8.028   5.259   0.585
24765WAT     H174537   7.928   5.258   0.586
24765WAT     H274538   8.061   5.212   0.503
24766WAT      O74539   2.091   6.107   3.017
24766WAT     H174540   1.992   6.098   3.027
24766WAT     H274541   2.113   6.124   2.921
24767WAT      O74542   1.505   0.746   6.933
24767WAT     H174543   1.498   0.843   6.913
24767WAT     H274544   1.601   0.718   6.933
24768WAT      O74545   5.440   1.742   7.503
24768WAT     H174546   5.448   1.731   7.602
24768WAT     H274547   5.344   1.750   7.478
24769WAT      O74548   6.268   6.706   9.448
24769WAT     H174549   6.218   6.677   9.366
24769WAT     H274550   6.366   6.697   9.432
24770WAT      O74551   1.349   3.165   4.725
24770WAT     H174552   1.386   3.225   4.654
24770WAT     H274553   1.372   3.070   4.703
24771WAT      O74554   2.249   9.500   4.118
24771WAT     H174555   2.171   9.530   4.063
24771WAT     H274556   2.231   9.408   4.154
24772WAT      O74557   0.313   4.801   0.869
24772WAT     H174558   0.275   4.716   0.904
24772WAT     H274559   0.281   4.815   0.775
24773WAT      O74560   8.444   5.681   0.810
24773WAT     H174561   8.447   5.658   0.908
24773WAT     H274562   8.534   5.710   0.780
24774WAT      O74563   7.201   4.399   2.202
24774WAT     H174564   7.261   4.420   2.125
24774WAT     H274565   7.106   4.403   2.172
24775WAT      O74566   0.084   5.778   2.062
24775WAT     H174567   0.084   5.868   2.105
24775WAT     H274568   0.155   5.721   2.105
24776WAT      O74569   7.477   6.982   6.545
24776WAT     H174570   7.414   6.940   6.610
24776WAT     H274571   7.520   6.910   6.490
24777WAT      O74572   3.819   5.906   6.286
24777WAT     H174573   3.842   5.988   6.234
24777WAT     H274574   3.746   5.926   6.351
24778WAT      O74575   4.420   8.096   6.274
24778WAT     H174576   4.405   7.997   6.274
24778WAT     H274577   4.332   8.142   6.280
24779WAT      O74578   2.150   2.855   4.590
24779WAT     H174579   2.134   2.785   4.521
24779WAT     H274580   2.095   2.836   4.671
24780WAT      O74581   8.711   5.845   1.913
24780WAT     H174582   8.720   5.747   1.931
24780WAT     H274583   8.665   5.859   1.825
24781WAT      O74584   1.709   4.382   6.012
24781WAT     H174585   1.685   4.432   5.928
24781WAT     H274586   1.625   4.351   6.057
24782WAT      O74587   6.463   7.788   1.768
24782WAT     H174588   6.443   7.856   1.698
24782WAT     H274589   6.503   7.707   1.726
24783WAT      O74590   7.541   2.280   7.267
24783WAT     H174591   7.480   2.201   7.271
24783WAT     H274592   7.510   2.343   7.196
24784WAT      O74593   5.371   5.905   8.033
24784WAT     H174594   5.391   6.002   8.024
24784WAT     H274595   5.431   5.852   7.972
24785WAT      O74596   7.705   4.328   0.816
24785WAT     H174597   7.629   4.264   0.829
24785WAT     H274598   7.686   4.388   0.739
24786WAT      O74599   6.217   2.006   4.064
24786WAT     H174600   6.243   1.970   3.974
24786WAT     H274601   6.119   1.993   4.078
24787WAT      O74602   9.072   9.217   3.837
24787WAT     H174603   9.104   9.149   3.772
24787WAT     H274604   8.995   9.268   3.797
24788WAT      O74605   2.226   4.252   3.967
24788WAT     H174606   2.287   4.180   4.000
24788WAT     H274607   2.222   4.325   4.035
24789WAT      O74608   2.300   4.794   2.546
24789WAT     H174609   2.344   4.708   2.518
24789WAT     H274610   2.363   4.870   2.530
24790WAT      O74611   0.389   5.767   9.385
24790WAT     H174612   0.381   5.801   9.479
24790WAT     H274613   0.299   5.767   9.342
24791WAT      O74614   8.617   3.413   6.907
24791WAT     H174615   8.572   3.408   6.818
24791WAT     H274616   8.582   3.340   6.966
24792WAT      O74617   0.348   7.489   1.766
24792WAT     H174618   0.437   7.534   1.765
24792WAT     H274619   0.289   7.531   1.697
24793WAT      O74620   0.398   2.083   4.835
24793WAT     H174621   0.381   2.041   4.924
24793WAT     H274622   0.410   2.181   4.845
24794WAT      O74623   5.399   4.953   4.067
24794WAT     H174624   5.384   4.919   4.160
24794WAT     H274625   5.488   4.922   4.035
24795WAT      O74626   5.499   9.597   1.018
24795WAT     H174627   5.578   9.537   1.028
24795WAT     H274628   5.421   9.558   1.067
24796WAT      O74629   7.636   4.420   7.521
24796WAT     H174630   7.693   4.359   7.466
24796WAT     H274631   7.557   4.370   7.556
24797WAT      O74632   8.604   9.203   5.474
24797WAT     H174633   8.632   9.292   5.510
24797WAT     H274634   8.588   9.211   5.375
24798WAT      O74635   6.012   1.890   0.503
24798WAT     H174636   6.077   1.863   0.574
24798WAT     H274637   6.061   1.938   0.429
24799WAT      O74638   6.007   1.757   5.523
24799WAT     H174639   6.015   1.832   5.589
24799WAT     H274640   6.096   1.737   5.484
24800WAT      O74641   4.786   6.205   0.482
24800WAT     H174642   4.790   6.234   0.578
24800WAT     H274643   4.706   6.146   0.469
24801WAT      O74644   9.459   2.283   3.148
24801WAT     H174645   9.443   2.262   3.245
24801WAT     H274646   9.539   2.233   3.116
24802WAT      O74647   5.855   4.980   4.979
24802WAT     H174648   5.860   5.000   5.077
24802WAT     H274649   5.856   5.065   4.927
24803WAT      O74650   0.513   3.919   5.885
24803WAT     H174651   0.417   3.894   5.868
24803WAT     H274652   0.519   3.973   5.969
24804WAT      O74653   0.238   4.303   2.774
24804WAT     H174654   0.197   4.217   2.744
24804WAT     H274655   0.289   4.344   2.698
24805WAT      O74656   3.171   9.196   5.654
24805WAT     H174657   3.204   9.266   5.591
24805WAT     H274658   3.245   9.131   5.673
24806WAT      O74659   9.845   9.042   7.728
24806WAT     H174660   9.757   9.089   7.727
24806WAT     H274661   9.888   9.049   7.638
24807WAT      O74662   0.623   1.005   5.582
24807WAT     H174663   0.568   1.035   5.660
24807WAT     H274664   0.611   0.907   5.568
24808WAT      O74665   3.206   4.286   7.315
24808WAT     H174666   3.188   4.378   7.348
24808WAT     H274667   3.301   4.280   7.284
24809WAT      O74668   0.096   2.607   4.996
24809WAT     H174669   0.106   2.542   4.921
24809WAT     H274670   0.057   2.560   5.076
24810WAT      O74671   0.771   8.607   7.970
24810WAT     H174672   0.714   8.608   8.052
24810WAT     H274673   0.861   8.568   7.993
24811WAT      O74674   2.344   6.000   4.212
24811WAT     H174675   2.383   6.053   4.288
24811WAT     H274676   2.304   6.063   4.145
24812WAT      O74677   6.374   6.224   4.492
24812WAT     H174678   6.405   6.250   4.400
24812WAT     H274679   6.315   6.295   4.528
24813WAT      O74680   3.400   9.458   6.544
24813WAT     H174681   3.352   9.534   6.501
24813WAT     H274682   3.424   9.482   6.638
24814WAT      O74683   4.166   8.126   3.645
24814WAT     H174684   4.205   8.037   3.622
24814WAT     H274685   4.240   8.191   3.662
24815WAT      O74686   7.032   7.175   1.200
24815WAT     H174687   6.975   7.100   1.234
24815WAT     H274688   6.981   7.227   1.132
24816WAT      O74689   8.095   4.436   6.072
24816WAT     H174690   8.037   4.451   6.153
24816WAT     H274691   8.116   4.525   6.030
24817WAT      O74692   9.301   8.001   8.850
24817WAT     H174693   9.396   8.010   8.821
24817WAT     H274694   9.240   8.028   8.776
24818WAT      O74695   7.816   4.902   0.209
24818WAT     H174696   7.817   4.852   0.123
24818WAT     H274697   7.782   4.995   0.193
24819WAT      O74698   4.324   3.273   5.022
24819WAT     H174699   4.364   3.266   5.113
24819WAT     H274700   4.259   3.349   5.020
24820WAT      O74701   9.081   9.126   5.387
24820WAT     H174702   9.140   9.201   5.415
24820WAT     H274703   9.132   9.040   5.393
24821WAT      O74704   1.146   6.518   5.742
24821WAT     H174705   1.163   6.609   5.705
24821WAT     H274706   1.126   6.454   5.668
24822WAT      O74707   4.276   6.382   3.903
24822WAT     H174708   4.309   6.477   3.904
24822WAT     H274709   4.267   6.349   3.997
24823WAT      O74710   6.989   8.910   6.623
24823WAT     H174711   6.996   8.923   6.524
24823WAT     H274712   7.051   8.836   6.651
24824WAT      O74713   1.782   5.250   2.527
24824WAT     H174714   1.812   5.154   2.522
24824WAT     H274715   1.847   5.308   2.479
24825WAT      O74716   5.207   1.518   1.853
24825WAT     H174717   5.143   1.510   1.930
24825WAT     H274718   5.174   1.462   1.777
24826WAT      O74719   2.372   8.156   0.032
24826WAT     H174720   2.387   8.073  -0.022
24826WAT     H274721   2.319   8.222  -0.022
24827WAT      O74722   1.369   8.844   3.200
24827WAT     H174723   1.303   8.890   3.141
24827WAT     H274724   1.372   8.891   3.289
24828WAT      O74725   5.314  -0.000   2.273
24828WAT     H174726   5.316   0.054   2.357
24828WAT     H274727   5.408  -0.017   2.241
24829WAT      O74728   9.858   5.475   4.668
24829WAT     H174729   9.926   5.458   4.597
24829WAT     H274730   9.783   5.529   4.630
24830WAT      O74731   4.847   0.895   6.092
24830WAT     H174732   4.895   0.818   6.051
24830WAT     H274733   4.749   0.873   6.099
24831WAT      O74734   6.817   2.252   5.202
24831WAT     H174735   6.850   2.158   5.194
24831WAT     H274736   6.748   2.257   5.275
24832WAT      O74737   1.011   5.527   1.028
24832WAT     H174738   1.105   5.555   1.009
24832WAT     H274739   0.956   5.536   0.945
24833WAT      O74740   4.509   4.230   1.190
24833WAT     H174741   4.433   4.167   1.176
24833WAT     H274742   4.520   4.287   1.108
24834WAT      O74743   1.943   6.012   1.962
24834WAT     H174744   1.856   6.062   1.963
24834WAT     H274745   1.988   6.023   2.050
24835WAT      O74746   8.468   7.541   0.119
24835WAT     H174747   8.519   7.626   0.103
24835WAT     H274748   8.401   7.528   0.045
24836WAT      O74749   5.905   2.698   2.995
24836WAT     H174750   5.824   2.712   2.938
24836WAT     H274751   5.985   2.737   2.949
24837WAT      O74752   8.188   8.010   9.130
24837WAT     H174753   8.222   7.953   9.055
24837WAT     H274754   8.245   7.996   9.211
24838WAT      O74755   4.413   8.488   9.231
24838WAT     H174756   4.344   8.554   9.202
24838WAT     H274757   4.401   8.403   9.179
24839WAT      O74758   1.815   4.208   0.840
24839WAT     H174759   1.906   4.177   0.813
24839WAT     H274760   1.817   4.238   0.935
24840WAT      O74761   7.013   8.326   8.618
24840WAT     H174762   7.095   8.333   8.562
24840WAT     H274763   6.955   8.252   8.585
24841WAT      O74764   3.743   5.555   5.474
24841WAT     H174765   3.797   5.561   5.558
24841WAT     H274766   3.649   5.528   5.496
24842WAT      O74767   4.345   6.977   8.405
24842WAT     H174768   4.290   6.925   8.340
24842WAT     H274769   4.294   6.990   8.490
24843WAT      O74770   2.227   7.335   5.919
24843WAT     H174771   2.187   7.418   5.957
24843WAT     H274772   2.221   7.338   5.819
24844WAT      O74773   1.228   2.324   9.711
24844WAT     H174774   1.240   2.270   9.795
24844WAT     H274775   1.259   2.270   9.633
24845WAT      O74776   2.998   9.070   4.411
24845WAT     H174777   2.962   9.006   4.479
24845WAT     H274778   2.947   9.062   4.326
24846WAT      O74779   2.417   9.205   8.069
24846WAT     H174780   2.358   9.125   8.070
24846WAT     H274781   2.361   9.287   8.057
24847WAT      O74782   7.040   7.701   4.770
24847WAT     H174783   7.032   7.732   4.675
24847WAT     H274784   6.984   7.759   4.829
24848WAT      O74785   1.033   6.183   4.889
24848WAT     H174786   1.131   6.197   4.906
24848WAT     H274787   0.987   6.165   4.976
24849WAT      O74788   7.772   5.094   1.771
24849WAT     H174789   7.724   5.171   1.729
24849WAT     H274790   7.759   5.098   1.870
24850WAT      O74791   8.716   2.568   2.358
24850WAT     H174792   8.689   2.624   2.437
24850WAT     H274793   8.816   2.565   2.352
24851WAT      O74794   7.241   1.593   5.434
24851WAT     H174795   7.271   1.685   5.462
24851WAT     H274796   7.262   1.580   5.337
24852WAT      O74797   9.026   0.247   2.153
24852WAT     H174798   8.980   0.276   2.237
24852WAT     H274799   9.068   0.157   2.168
24853WAT      O74800   2.325   5.750   4.943
24853WAT     H174801   2.422   5.732   4.927
24853WAT     H274802   2.315   5.817   5.017
24854WAT      O74803   1.950   2.219   4.765
24854WAT     H174804   1.939   2.146   4.697
24854WAT     H274805   2.022   2.192   4.830
24855WAT      O74806   6.695   7.387   7.494
24855WAT     H174807   6.710   7.451   7.570
24855WAT     H274808   6.767   7.318   7.494
24856WAT      O74809   7.715   5.174   0.188
24856WAT     H174810   7.736   5.254   0.132
24856WAT     H274811   7.724   5.198   0.284
24857WAT      O74812   3.445   8.458   2.588
24857WAT     H174813   3.471   8.366   2.616
24857WAT     H274814   3.493   8.525   2.645
24858WAT      O74815   3.595   8.467   4.677
24858WAT     H174816   3.658   8.392   4.659
24858WAT     H274817   3.597   8.491   4.774
24859WAT      O74818   8.355   2.124   3.898
24859WAT     H174819   8.266   2.159   3.868
24859WAT     H274820   8.387   2.176   3.977
24860WAT      O74821   8.998   6.027   1.937
24860WAT     H174822   8.953   6.116   1.946
24860WAT     H274823   8.930   5.959   1.910
24861WAT      O74824   0.975   0.996   1.578
24861WAT     H174825   1.039   1.049   1.522
24861WAT     H274826   1.006   0.901   1.583
24862WAT      O74827   2.330   1.411   8.068
24862WAT     H174828   2.391   1.401   8.147
24862WAT     H274829   2.375   1.375   7.987
24863WAT      O74830   2.947   6.111   3.620
24863WAT     H174831   3.019   6.173   3.651
24863WAT     H274832   2.859   6.159   3.621
24864WAT      O74833   2.231   2.809   5.269
24864WAT     H174834   2.168   2.883   5.245
24864WAT     H274835   2.245   2.751   5.188
24865WAT      O74836   1.274   9.726   1.667
24865WAT     H174837   1.371   9.716   1.692
24865WAT     H274838   1.263   9.806   1.608
24866WAT      O74839   4.765   9.227   3.214
24866WAT     H174840   4.756   9.180   3.301
24866WAT     H274841   4.814   9.313   3.227
24867WAT      O74842   4.561   5.601   7.005
24867WAT     H174843   4.584   5.669   7.074
24867WAT     H274844   4.643   5.551   6.978
24868WAT      O74845   1.028   4.600   7.808
24868WAT     H174846   1.005   4.529   7.743
24868WAT     H274847   0.952   4.663   7.818
24869WAT      O74848   0.650   5.829   2.980
24869WAT     H174849   0.578   5.855   2.916
24869WAT     H274850   0.733   5.880   2.958
24870WAT      O74851   9.644   5.997   2.328
24870WAT     H174852   9.595   6.077   2.292
24870WAT     H274853   9.578   5.930   2.361
24871WAT      O74854   5.511   1.127   0.938
24871WAT     H174855   5.587   1.193   0.945
24871WAT     H274856   5.431   1.173   0.899
24872WAT      O74857   4.127   8.300   2.555
24872WAT     H174858   4.117   8.276   2.651
24872WAT     H274859   4.173   8.388   2.547
24873WAT      O74860   4.321   7.545   7.888
24873WAT     H174861   4.334   7.447   7.902
24873WAT     H274862   4.224   7.568   7.896
24874WAT      O74863   9.081   3.736   8.761
24874WAT     H174864   8.996   3.719   8.812
24874WAT     H274865   9.137   3.802   8.811
24875WAT      O74866   2.378   4.101   0.628
24875WAT     H174867   2.283   4.072   0.640
24875WAT     H274868   2.437   4.020   0.622
24876WAT      O74869   5.317   0.451   7.800
24876WAT     H174870   5.398   0.426   7.747
24876WAT     H274871   5.267   0.523   7.752
24877WAT      O74872   7.131   1.755   7.141
24877WAT     H174873   7.049   1.809   7.126
24877WAT     H274874   7.134   1.680   7.074
24878WAT      O74875   5.908   8.693   8.973
24878WAT     H174876   5.818   8.657   8.950
24878WAT     H274877   5.914   8.707   9.072
24879WAT      O74878   8.815   5.580   2.788
24879WAT     H174879   8.861   5.499   2.753
24879WAT     H274880   8.862   5.612   2.870
24880WAT      O74881   2.694   1.856   5.187
24880WAT     H174882   2.599   1.888   5.188
24880WAT     H274883   2.715   1.812   5.275
24881WAT      O74884   3.291   6.698   0.690
24881WAT     H174885   3.237   6.782   0.681
24881WAT     H274886   3.259   6.646   0.769
24882WAT      O74887   3.762   2.255   2.648
24882WAT     H174888   3.678   2.200   2.642
24882WAT     H274889   3.738   2.351   2.661
24883WAT      O74890   0.771   8.541   7.632
24883WAT     H174891   0.751   8.627   7.680
24883WAT     H274892   0.689   8.512   7.581
24884WAT      O74893   9.512   8.488   9.834
24884WAT     H174894   9.485   8.582   9.857
24884WAT     H274895   9.490   8.428   9.911
24885WAT      O74896   4.592   6.634   2.831
24885WAT     H174897   4.560   6.719   2.789
24885WAT     H274898   4.534   6.612   2.909
24886WAT      O74899   8.632   1.410   0.890
24886WAT     H174900   8.663   1.476   0.959
24886WAT     H274901   8.708   1.350   0.865
24887WAT      O74902   1.729   8.387   4.951
24887WAT     H174903   1.790   8.324   5.000
24887WAT     H274904   1.703   8.346   4.864
24888WAT      O74905   8.308   9.147   6.533
24888WAT     H174906   8.401   9.136   6.497
24888WAT     H274907   8.244   9.093   6.478
24889WAT      O74908   8.642   2.417   6.760
24889WAT     H174909   8.732   2.451   6.784
24889WAT     H274910   8.648   2.360   6.678
24890WAT      O74911   2.002   8.492   3.850
24890WAT     H174912   2.040   8.541   3.929
24890WAT     H274913   1.903   8.505   3.848
24891WAT      O74914   6.177   2.626   7.810
24891WAT     H174915   6.159   2.721   7.788
24891WAT     H274916   6.114   2.567   7.759
24892WAT      O74917   3.457   0.317   2.262
24892WAT     H174918   3.498   0.259   2.332
24892WAT     H274919   3.459   0.270   2.174
24893WAT      O74920   1.509   9.420   1.354
24893WAT     H174921   1.433   9.468   1.398
24893WAT     H274922   1.594   9.471   1.368
24894WAT      O74923   6.385   3.227   4.113
24894WAT     H174924   6.362   3.291   4.039
24894WAT     H274925   6.390   3.277   4.199
24895WAT      O74926   6.586   2.486   2.485
24895WAT     H174927   6.642   2.556   2.441
24895WAT     H274928   6.492   2.519   2.494
24896WAT      O74929   4.956   1.307   5.577
24896WAT     H174930   4.902   1.256   5.510
24896WAT     H274931   5.053   1.289   5.562
24897WAT      O74932   0.005   1.605   9.221
24897WAT     H174933  -0.003   1.664   9.141
24897WAT     H274934  -0.074   1.544   9.226
24898WAT      O74935   7.392   0.356   8.529
24898WAT     H174936   7.293   0.361   8.542
24898WAT     H274937   7.415   0.272   8.480
24899WAT      O74938   2.404   6.341   8.924
24899WAT     H174939   2.477   6.308   8.984
24899WAT     H274940   2.319   6.294   8.946
24900WAT      O74941   0.500   9.796   5.538
24900WAT     H174942   0.484   9.796   5.637
24900WAT     H274943   0.459   9.876   5.497
24901WAT      O74944   5.555   3.542   5.524
24901WAT     H174945   5.636   3.589   5.560
24901WAT     H274946   5.480   3.607   5.517
24902WAT      O74947   7.692   0.010   3.474
24902WAT     H174948   7.704  -0.083   3.438
24902WAT     H274949   7.701   0.076   3.400
24903WAT      O74950   6.312   7.532   7.326
24903WAT     H174951   6.237   7.538   7.261
24903WAT     H274952   6.318   7.617   7.379
24904WAT      O74953   6.876   7.963   1.786
24904WAT     H174954   6.954   7.903   1.770
24904WAT     H274955   6.880   8.041   1.724
24905WAT      O74956   3.998   5.758   9.836
24905WAT     H174957   4.010   5.659   9.829
24905WAT     H274958   4.036   5.803   9.756
24906WAT      O74959   5.212   7.088   8.807
24906WAT     H174960   5.214   7.111   8.904
24906WAT     H274961   5.161   7.158   8.757
24907WAT      O74962   2.579   9.823   4.125
24907WAT     H174963   2.541   9.731   4.126
24907WAT     H274964   2.547   9.872   4.044
24908WAT      O74965   3.450   6.644   7.585
24908WAT     H174966   3.445   6.688   7.495
24908WAT     H274967   3.504   6.702   7.647
24909WAT      O74968   3.105   7.126   9.269
24909WAT     H174969   3.090   7.157   9.363
24909WAT     H274970   3.067   7.194   9.206
24910WAT      O74971   6.180   5.357   5.817
24910WAT     H174972   6.227   5.444   5.799
24910WAT     H274973   6.207   5.290   5.748
24911WAT      O74974   1.506   4.444   8.367
24911WAT     H174975   1.412   4.445   8.333
24911WAT     H274976   1.520   4.522   8.428
24912WAT      O74977   9.196   1.037   3.161
24912WAT     H174978   9.145   1.114   3.199
24912WAT     H274979   9.164   0.952   3.203
24913WAT      O74980   0.379   1.945   7.155
24913WAT     H174981   0.302   1.993   7.113
24913WAT     H274982   0.348   1.857   7.191
24914WAT      O74983   1.487   1.611   2.021
24914WAT     H174984   1.468   1.643   1.928
24914WAT     H274985   1.475   1.687   2.085
24915WAT      O74986   4.402   6.362   7.892
24915WAT     H174987   4.466   6.290   7.866
24915WAT     H274988   4.333   6.324   7.953
24916WAT      O74989   2.104   0.945   2.863
24916WAT     H174990   2.188   1.000   2.857
24916WAT     H274991   2.024   1.005   2.859
24917WAT      O74992   0.366   3.743   4.473
24917WAT     H174993   0.394   3.678   4.543
24917WAT     H274994   0.270   3.728   4.451
24918WAT      O74995   6.097   7.601   7.666
24918WAT     H174996   6.110   7.522   7.726
24918WAT     H274997   6.187   7.635   7.637
24919WAT      O74998   5.605   3.036   4.966
24919WAT     H174999   5.556   3.122   4.952
24919WAT     H275000   5.546   2.960   4.939
24920WAT      O75001   9.730   5.852   5.143
24920WAT     H175002   9.702   5.758   5.123
24920WAT     H275003   9.757   5.859   5.239
24921WAT      O75004   0.700   5.447   0.284
24921WAT     H175005   0.713   5.517   0.355
24921WAT     H275006   0.603   5.437   0.265
24922WAT      O75007   8.751   6.623   0.504
24922WAT     H175008   8.664   6.623   0.454
24922WAT     H275009   8.740   6.677   0.588
24923WAT      O75010   3.801   5.967   3.562
24923WAT     H175011   3.846   5.907   3.496
24923WAT     H275012   3.846   6.057   3.561
24924WAT      O75013   7.316   8.012   5.806
24924WAT     H175014   7.284   8.063   5.886
24924WAT     H275015   7.289   8.059   5.722
24925WAT      O75016   9.027   0.163   2.979
24925WAT     H175017   8.946   0.110   3.004
24925WAT     H275018   9.098   0.101   2.946
24926WAT      O75019   2.978   3.587   3.622
24926WAT     H175020   3.037   3.663   3.596
24926WAT     H275021   3.034   3.511   3.656
24927WAT      O75022   9.189   2.482   7.955
24927WAT     H175023   9.189   2.562   8.015
24927WAT     H275024   9.217   2.509   7.863
24928WAT      O75025   2.903   8.252   8.004
24928WAT     H175026   2.866   8.307   8.078
24928WAT     H275027   2.872   8.289   7.916
24929WAT      O75028   8.231   4.284   4.473
24929WAT     H175029   8.151   4.260   4.528
24929WAT     H275030   8.212   4.366   4.420
24930WAT      O75031   9.825   0.611   5.263
24930WAT     H175032   9.869   0.669   5.332
24930WAT     H275033   9.781   0.534   5.308
24931WAT      O75034   8.377   3.308   1.187
24931WAT     H175035   8.295   3.346   1.143
24931WAT     H275036   8.392   3.354   1.275
24932WAT      O75037   2.513   8.854   8.833
24932WAT     H175038   2.542   8.761   8.857
24932WAT     H275039   2.488   8.903   8.916
24933WAT      O75040   0.333   1.551   3.385
24933WAT     H175041   0.233   1.553   3.386
24933WAT     H275042   0.367   1.541   3.478
24934WAT      O75043   6.861   2.089   6.927
24934WAT     H175044   6.905   2.050   6.846
24934WAT     H275045   6.796   2.160   6.898
24935WAT      O75046   2.026   2.847   4.864
24935WAT     H175047   2.078   2.802   4.937
24935WAT     H275048   1.928   2.838   4.883
24936WAT      O75049   4.583   8.684   2.914
24936WAT     H175050   4.593   8.725   2.823
24936WAT     H275051   4.633   8.739   2.981
24937WAT      O75052   1.877   5.530   1.899
24937WAT     H175053   1.779   5.535   1.880
24937WAT     H275054   1.922   5.611   1.862
24938WAT      O75055   8.499   6.624   2.565
24938WAT     H175056   8.519   6.709   2.614
24938WAT     H275057   8.454   6.560   2.627
24939WAT      O75058   6.387   9.196   8.422
24939WAT     H175059   6.400   9.291   8.449
24939WAT     H275060   6.374   9.139   8.503
24940WAT      O75061   1.222   5.559   7.197
24940WAT     H175062   1.228   5.630   7.127
24940WAT     H275063   1.220   5.601   7.288
24941WAT      O75064   5.052   0.596   6.446
24941WAT     H175065   5.103   0.566   6.365
24941WAT     H275066   4.963   0.631   6.418
24942WAT      O75067   1.491   3.497   7.761
24942WAT     H175068   1.586   3.530   7.756
24942WAT     H275069   1.489   3.409   7.808
24943WAT      O75070   3.322   8.464   9.874
24943WAT     H175071   3.240   8.409   9.893
24943WAT     H275072   3.402   8.405   9.877
24944WAT      O75073   9.305   9.312   2.453
24944WAT     H175074   9.319   9.386   2.388
24944WAT     H275075   9.377   9.243   2.442
24945WAT      O75076   0.624   8.193   2.975
24945WAT     H175077   0.703   8.137   3.002
24945WAT     H275078   0.643   8.289   2.996
24946WAT      O75079   7.211   0.665   5.182
24946WAT     H175080   7.129   0.636   5.231
24946WAT     H275081   7.192   0.665   5.083
24947WAT      O75082   9.358   6.895   2.804
24947WAT     H175083   9.288   6.849   2.750
24947WAT     H275084   9.385   6.837   2.881
24948WAT      O75085   5.928   0.595   7.197
24948WAT     H175086   5.869   0.627   7.271
24948WAT     H275087   5.975   0.673   7.156
24949WAT      O75088   8.472   4.509   0.874
24949WAT     H175089   8.402   4.565   0.918
24949WAT     H275090   8.430   4.454   0.801
24950WAT      O75091   3.783   2.735   6.542
24950WAT     H175092   3.807   2.642   6.515
24950WAT     H275093   3.702   2.733   6.601
24951WAT      O75094   2.260   7.923   3.751
24951WAT     H175095   2.256   7.824   3.739
24951WAT     H275096   2.173   7.964   3.724
24952WAT      O75097   8.681   9.211   3.301
24952WAT     H175098   8.740   9.147   3.350
24952WAT     H275099   8.619   9.160   3.240
24953WAT      O75100   1.142   4.658   8.801
24953WAT     H175101   1.181   4.711   8.726
24953WAT     H275102   1.210   4.650   8.875
24954WAT      O75103   2.852   6.152   0.570
24954WAT     H175104   2.934   6.142   0.514
24954WAT     H275105   2.799   6.067   0.568
24955WAT      O75106   1.553   5.702   8.725
24955WAT     H175107   1.465   5.731   8.688
24955WAT     H275108   1.621   5.702   8.652
24956WAT      O75109   8.220   7.644   2.933
24956WAT     H175110   8.186   7.591   2.856
24956WAT     H275111   8.300   7.599   2.972
24957WAT      O75112   0.471   3.780   4.124
24957WAT     H175113   0.549   3.779   4.186
24957WAT     H275114   0.387   3.762   4.175
24958WAT      O75115   7.094   2.025   3.047
24958WAT     H175116   7.141   1.937   3.043
24958WAT     H275117   6.998   2.013   3.022
24959WAT      O75118   9.414   2.474   5.169
24959WAT     H175119   9.440   2.550   5.109
24959WAT     H275120   9.340   2.422   5.126
24960WAT      O75121   1.154   1.737   4.697
24960WAT     H175122   1.206   1.716   4.780
24960WAT     H275123   1.098   1.819   4.713
24961WAT      O75124   4.713   6.809   4.686
24961WAT     H175125   4.614   6.801   4.674
24961WAT     H275126   4.744   6.898   4.652
24962WAT      O75127   4.519   8.152   8.633
24962WAT     H175128   4.519   8.094   8.552
24962WAT     H275129   4.437   8.209   8.634
24963WAT      O75130   4.044   0.513   2.699
24963WAT     H175131   4.103   0.582   2.657
24963WAT     H275132   4.097   0.429   2.712
24964WAT      O75133   4.893   5.955   8.504
24964WAT     H175134   4.973   6.015   8.497
24964WAT     H275135   4.909   5.887   8.576
24965WAT      O75136   2.356   8.703   4.879
24965WAT     H175137   2.270   8.654   4.865
24965WAT     H275138   2.337   8.789   4.926
24966WAT      O75139   4.859   2.931   0.231
24966WAT     H175140   4.836   2.850   0.285
24966WAT     H275141   4.901   3.000   0.290
24967WAT      O75142   7.766   5.388   5.715
24967WAT     H175143   7.859   5.372   5.681
24967WAT     H275144   7.716   5.301   5.715
24968WAT      O75145   9.793   1.549   2.082
24968WAT     H175146   9.699   1.517   2.091
24968WAT     H275147   9.837   1.549   2.172
24969WAT      O75148   6.692   5.953   7.435
24969WAT     H175149   6.743   5.931   7.518
24969WAT     H275150   6.655   5.870   7.395
24970WAT      O75151   8.144   4.926   8.560
24970WAT     H175152   8.228   4.888   8.599
24970WAT     H275153   8.067   4.865   8.581
24971WAT      O75154   9.650   2.071   8.605
24971WAT     H175155   9.648   2.170   8.623
24971WAT     H275156   9.591   2.024   8.671
24972WAT      O75157   5.750   1.594   5.055
24972WAT     H175158   5.719   1.577   4.961
24972WAT     H275159   5.683   1.651   5.102
24973WAT      O75160   1.666   5.572   5.624
24973WAT     H175161   1.733   5.644   5.641
24973WAT     H275162   1.607   5.599   5.548
24974WAT      O75163   1.907   5.383   0.584
24974WAT     H175164   1.923   5.295   0.541
24974WAT     H275165   1.985   5.443   0.567
24975WAT      O75166   0.385   8.087   0.457
24975WAT     H175167   0.478   8.124   0.458
24975WAT     H275168   0.346   8.092   0.549
24976WAT      O75169   5.617   7.281   2.130
24976WAT     H175170   5.568   7.368   2.122
24976WAT     H275171   5.551   7.207   2.143
24977WAT      O75172   2.106   2.451   4.707
24977WAT     H175173   2.070   2.362   4.679
24977WAT     H275174   2.138   2.445   4.802
24978WAT      O75175   3.933   0.509   5.884
24978WAT     H175176   3.915   0.608   5.880
24978WAT     H275177   3.923   0.478   5.979
24979WAT      O75178   0.468   3.910   1.092
24979WAT     H175179   0.549   3.853   1.101
24979WAT     H275180   0.386   3.853   1.098
24980WAT      O75181   7.267   0.937   9.145
24980WAT     H175182   7.332   0.932   9.069
24980WAT     H275183   7.181   0.893   9.119
24981WAT      O75184   2.292   3.964   9.011
24981WAT     H175185   2.386   3.973   8.978
24981WAT     H275186   2.250   4.055   9.016
24982WAT      O75187   9.378   2.590   2.209
24982WAT     H175188   9.435   2.520   2.252
24982WAT     H275189   9.405   2.600   2.114
24983WAT      O75190   1.291   5.248   5.859
24983WAT     H175191   1.326   5.203   5.777
24983WAT     H275192   1.341   5.215   5.939
24984WAT      O75193   2.575   3.129   5.278
24984WAT     H175194   2.565   3.094   5.185
24984WAT     H275195   2.627   3.214   5.277
24985WAT      O75196   7.669   8.051   1.512
24985WAT     H175197   7.730   8.111   1.564
24985WAT     H275198   7.611   8.107   1.453
24986WAT      O75199   8.739   5.111   6.169
24986WAT     H175200   8.646   5.113   6.205
24986WAT     H275201   8.778   5.020   6.185
24987WAT      O75202   8.634   2.708   9.524
24987WAT     H175203   8.601   2.792   9.567
24987WAT     H275204   8.586   2.630   9.564
24988WAT      O75205   7.071   9.643   6.315
24988WAT     H175206   7.113   9.711   6.375
24988WAT     H275207   7.143   9.597   6.263
24989WAT      O75208   3.695   1.124   7.091
24989WAT     H175209   3.756   1.062   7.044
24989WAT     H275210   3.724   1.135   7.186
24990WAT      O75211   2.291   5.669   5.545
24990WAT     H175212   2.274   5.675   5.644
24990WAT     H275213   2.366   5.730   5.521
24991WAT      O75214   5.309   0.916   0.925
24991WAT     H175215   5.341   0.921   0.831
24991WAT     H275216   5.235   0.982   0.939
24992WAT      O75217   1.395   8.206   5.176
24992WAT     H175218   1.412   8.293   5.222
24992WAT     H275219   1.437   8.132   5.229
24993WAT      O75220   2.701   5.461   2.978
24993WAT     H175221   2.794   5.480   2.946
24993WAT     H275222   2.704   5.433   3.074
24994WAT      O75223   1.292   4.759   1.292
24994WAT     H175224   1.232   4.772   1.371
24994WAT     H275225   1.371   4.704   1.318
24995WAT      O75226   1.421   0.882   7.814
24995WAT     H175227   1.333   0.887   7.860
24995WAT     H275228   1.422   0.946   7.737
24996WAT      O75229   3.524   5.132   0.965
24996WAT     H175230   3.485   5.093   0.882
24996WAT     H275231   3.594   5.070   1.001
24997WAT      O75232   2.447   0.793   9.829
24997WAT     H175233   2.347   0.792   9.816
24997WAT     H275234   2.481   0.699   9.827
24998WAT      O75235   8.127   2.265   8.993
24998WAT     H175236   8.187   2.315   8.932
24998WAT     H275237   8.034   2.266   8.958
24999WAT      O75238   8.733   4.169   4.528
24999WAT     H175239   8.671   4.179   4.605
24999WAT     H275240   8.754   4.072   4.513
25000WAT      O75241   1.471   6.481   6.061
25000WAT     H175242   1.420   6.406   6.020
25000WAT     H275243   1.460   6.479   6.160
25001WAT      O75244   4.716   5.277   8.980
25001WAT     H175245   4.698   5.371   8.950
25001WAT     H275246   4.636   5.220   8.962
25002WAT      O75247   4.209   0.015   0.286
25002WAT     H175248   4.125  -0.001   0.234
25002WAT     H275249   4.192   0.084   0.356
25003WAT      O75250   6.944   3.800   4.215
25003WAT     H175251   7.007   3.768   4.144
25003WAT     H275252   6.977   3.772   4.304
25004WAT      O75253   4.383   2.551   3.793
25004WAT     H175254   4.308   2.521   3.735
25004WAT     H275255   4.348   2.580   3.881
25005WAT      O75256   6.620   0.433   5.147
25005WAT     H175257   6.582   0.343   5.129
25005WAT     H275258   6.563   0.481   5.214
25006WAT      O75259   2.584   4.365   2.241
25006WAT     H175260   2.488   4.367   2.267
25006WAT     H275261   2.641   4.372   2.323
25007WAT      O75262   2.126   2.333   8.469
25007WAT     H175263   2.195   2.399   8.439
25007WAT     H275264   2.170   2.258   8.518
25008WAT      O75265   0.490   1.943   0.046
25008WAT     H175266   0.450   1.861   0.086
25008WAT     H275267   0.518   1.924  -0.049
25009WAT      O75268   5.207   5.931   2.242
25009WAT     H175269   5.279   6.000   2.242
25009WAT     H275270   5.158   5.934   2.155
25010WAT      O75271   8.875   8.077   7.509
25010WAT     H175272   8.931   8.047   7.586
25010WAT     H275273   8.809   8.005   7.486
25011WAT      O75274   5.429   6.809   2.397
25011WAT     H175275   5.404   6.779   2.489
25011WAT     H275276   5.348   6.809   2.338
25012WAT      O75277   0.444   6.338   5.471
25012WAT     H175278   0.436   6.418   5.530
25012WAT     H275279   0.416   6.256   5.521
25013WAT      O75280   9.347   9.762   7.565
25013WAT     H175281   9.393   9.695   7.506
25013WAT     H275282   9.336   9.848   7.515
25014WAT      O75283   2.770   6.878   2.646
25014WAT     H175284   2.828   6.803   2.614
25014WAT     H275285   2.812   6.965   2.621
25015WAT      O75286   4.216   3.239   9.673
25015WAT     H175287   4.170   3.160   9.633
25015WAT     H275288   4.186   3.323   9.626
25016WAT      O75289   5.247   0.491   6.266
25016WAT     H175290   5.272   0.555   6.193
25016WAT     H275291   5.310   0.503   6.343
25017WAT      O75292   3.745   3.024   2.035
25017WAT     H175293   3.679   3.022   1.960
25017WAT     H275294   3.761   3.119   2.063
25018WAT      O75295   5.668   1.336   6.311
25018WAT     H175296   5.619   1.297   6.389
25018WAT     H275297   5.680   1.266   6.240
25019WAT      O75298   4.273   4.194   8.906
25019WAT     H175299   4.225   4.153   8.983
25019WAT     H275300   4.300   4.288   8.930
25020WAT      O75301   7.453   7.956   1.652
25020WAT     H175302   7.484   8.048   1.626
25020WAT     H275303   7.418   7.958   1.746
25021WAT      O75304   0.453   1.746   5.702
25021WAT     H175305   0.480   1.794   5.786
25021WAT     H275306   0.495   1.791   5.623
25022WAT      O75307   3.428   0.822   9.653
25022WAT     H175308   3.441   0.880   9.734
25022WAT     H275309   3.358   0.753   9.673
25023WAT      O75310   4.872   6.729   4.064
25023WAT     H175311   4.789   6.678   4.042
25023WAT     H275312   4.946   6.664   4.081
25024WAT      O75313   0.604   5.956   2.420
25024WAT     H175314   0.556   6.017   2.482
25024WAT     H275315   0.595   5.862   2.453
25025WAT      O75316   1.442   6.866   6.718
25025WAT     H175317   1.522   6.809   6.739
25025WAT     H275318   1.368   6.843   6.782
25026WAT      O75319   5.854   3.785   3.532
25026WAT     H175320   5.814   3.876   3.522
25026WAT     H275321   5.940   3.792   3.582
25027WAT      O75322   8.998   6.190   7.805
25027WAT     H175323   9.010   6.252   7.728
25027WAT     H275324   8.965   6.241   7.884
25028WAT      O75325   3.833   6.452   1.649
25028WAT     H175326   3.744   6.450   1.605
25028WAT     H275327   3.826   6.497   1.738
25029WAT      O75328   3.395   1.907   9.487
25029WAT     H175329   3.398   1.905   9.387
25029WAT     H275330   3.377   2.001   9.518
25030WAT      O75331   8.555   7.220   9.288
25030WAT     H175332   8.628   7.177   9.342
25030WAT     H275333   8.590   7.304   9.247
25031WAT      O75334   9.015   5.358   5.943
25031WAT     H175335   9.019   5.290   6.016
25031WAT     H275336   9.105   5.368   5.900
25032WAT      O75337   8.338   7.369   3.326
25032WAT     H175338   8.391   7.443   3.367
25032WAT     H275339   8.356   7.284   3.374
25033WAT      O75340   3.126   1.879   3.379
25033WAT     H175341   3.107   1.945   3.306
25033WAT     H275342   3.225   1.871   3.392
25034WAT      O75343   3.573   6.037   0.329
25034WAT     H175344   3.589   5.978   0.407
25034WAT     H275345   3.647   6.026   0.263
25035WAT      O75346   5.315   0.361   5.081
25035WAT     H175347   5.403   0.317   5.101
25035WAT     H275348   5.289   0.420   5.157
25036WAT      O75349   4.122   7.219   9.335
25036WAT     H175350   4.165   7.155   9.398
25036WAT     H275351   4.051   7.172   9.283
25037WAT      O75352   5.610   6.588   9.287
25037WAT     H175353   5.561   6.566   9.203
25037WAT     H275354   5.666   6.511   9.315
25038WAT      O75355   8.713   0.004   5.605
25038WAT     H175356   8.759   0.089   5.632
25038WAT     H275357   8.633   0.026   5.548
25039WAT      O75358   0.228   7.100   2.737
25039WAT     H175359   0.186   7.191   2.741
25039WAT     H275360   0.169   7.035   2.786
25040WAT      O75361   3.673   2.870   7.717
25040WAT     H175362   3.717   2.954   7.749
25040WAT     H275363   3.736   2.793   7.727
25041WAT      O75364   8.841   1.581   8.575
25041WAT     H175365   8.856   1.492   8.619
25041WAT     H275366   8.743   1.597   8.563
25042WAT      O75367   5.120   6.480   3.454
25042WAT     H175368   5.039   6.508   3.506
25042WAT     H275369   5.202   6.495   3.509
25043WAT      O75370   0.129   2.482   9.491
25043WAT     H175371   0.159   2.389   9.470
25043WAT     H275372   0.043   2.502   9.442
25044WAT      O75373   6.658   3.183   6.721
25044WAT     H175374   6.713   3.264   6.700
25044WAT     H275375   6.564   3.197   6.691
25045WAT      O75376   6.347   4.548   2.984
25045WAT     H175377   6.369   4.524   3.079
25045WAT     H275378   6.388   4.637   2.963
25046WAT      O75379   7.998   4.814   5.790
25046WAT     H175380   8.059   4.747   5.833
25046WAT     H275381   7.967   4.880   5.858
25047WAT      O75382   7.169   2.165   1.156
25047WAT     H175383   7.190   2.245   1.212
25047WAT     H275384   7.202   2.082   1.201
25048WAT      O75385   3.167   2.882   0.123
25048WAT     H175386   3.109   2.875   0.204
25048WAT     H275387   3.254   2.923   0.149
25049WAT      O75388   2.910   1.490   2.832
25049WAT     H175389   2.902   1.573   2.887
25049WAT     H275390   2.963   1.422   2.881
25050WAT      O75391   7.893   9.097   9.698
25050WAT     H175392   7.857   9.157   9.769
25050WAT     H275393   7.959   9.033   9.739
25051WAT      O75394   2.289   9.205   1.255
25051WAT     H175395   2.239   9.154   1.325
25051WAT     H275396   2.355   9.145   1.210
25052WAT      O75397   2.524   3.901   5.921
25052WAT     H175398   2.503   3.990   5.963
25052WAT     H275399   2.603   3.861   5.967
25053WAT      O75400   6.960   5.962   2.333
25053WAT     H175401   6.988   6.056   2.353
25053WAT     H275402   6.869   5.945   2.371
25054WAT      O75403   4.671   9.382   1.047
25054WAT     H175404   4.740   9.376   0.975
25054WAT     H275405   4.649   9.478   1.064
25055WAT      O75406   3.806   6.997   4.785
25055WAT     H175407   3.732   7.059   4.760
25055WAT     H275408   3.771   6.924   4.843
25056WAT      O75409   7.456   7.312   1.183
25056WAT     H175410   7.370   7.364   1.188
25056WAT     H275411   7.460   7.246   1.258
25057WAT      O75412   0.319   0.945   2.413
25057WAT     H175413   0.360   0.855   2.396
25057WAT     H275414   0.246   0.961   2.346
25058WAT      O75415   6.370   3.194   2.728
25058WAT     H175416   6.344   3.234   2.640
25058WAT     H275417   6.451   3.136   2.716
25059WAT      O75418   3.685   7.581   6.545
25059WAT     H175419   3.618   7.508   6.554
25059WAT     H275420   3.750   7.559   6.472
25060WAT      O75421   1.371   0.465   7.869
25060WAT     H175422   1.442   0.498   7.807
25060WAT     H275423   1.283   0.506   7.844
25061WAT      O75424   6.701   7.681   2.412
25061WAT     H175425   6.666   7.647   2.324
25061WAT     H275426   6.635   7.745   2.451
25062WAT      O75427   2.101   5.638   4.211
25062WAT     H175428   2.087   5.671   4.304
25062WAT     H275429   2.036   5.683   4.150
25063WAT      O75430   6.687   3.898   8.212
25063WAT     H175431   6.718   3.852   8.295
25063WAT     H275432   6.738   3.864   8.133
25064WAT      O75433   2.001   4.540   3.275
25064WAT     H175434   2.097   4.533   3.304
25064WAT     H275435   1.997   4.570   3.180
25065WAT      O75436   6.522   7.825   2.737
25065WAT     H175437   6.425   7.816   2.761
25065WAT     H275438   6.570   7.742   2.766
25066WAT      O75439   9.855   5.931   6.252
25066WAT     H175440   9.770   5.977   6.277
25066WAT     H275441   9.919   5.997   6.213
25067WAT      O75442   2.268   8.630   7.787
25067WAT     H175443   2.344   8.692   7.803
25067WAT     H275444   2.270   8.596   7.693
25068WAT      O75445   2.174   1.477   5.183
25068WAT     H175446   2.194   1.505   5.089
25068WAT     H275447   2.075   1.472   5.196
25069WAT      O75448   4.934   1.692   2.171
25069WAT     H175449   4.943   1.689   2.071
25069WAT     H275450   5.005   1.750   2.210
25070WAT      O75451   7.652   9.011   9.555
25070WAT     H175452   7.601   8.936   9.598
25070WAT     H275453   7.725   9.041   9.617
25071WAT      O75454   9.798   2.916   2.906
25071WAT     H175455   9.776   2.868   2.991
25071WAT     H275456   9.855   2.856   2.848
25072WAT      O75457   4.222   1.828   0.993
25072WAT     H175458   4.239   1.869   0.903
25072WAT     H275459   4.273   1.878   1.062
25073WAT      O75460   9.322   4.865   7.885
25073WAT     H175461   9.421   4.870   7.893
25073WAT     H275462   9.297   4.798   7.816
25074WAT      O75463   2.916   4.542   4.305
25074WAT     H175464   2.882   4.448   4.313
25074WAT     H275465   2.953   4.572   4.393
25075WAT      O75466   3.499   8.112   1.165
25075WAT     H175467   3.586   8.146   1.129
25075WAT     H275468   3.424   8.162   1.121
25076WAT      O75469   5.004   6.033   5.217
25076WAT     H175470   4.956   6.043   5.130
25076WAT     H275471   4.942   5.992   5.284
25077WAT      O75472   4.552   6.164   7.821
25077WAT     H175473   4.636   6.126   7.784
25077WAT     H275474   4.474   6.111   7.789
25078WAT      O75475   9.236   4.344   3.747
25078WAT     H175476   9.299   4.266   3.758
25078WAT     H275477   9.155   4.314   3.697
25079WAT      O75478   9.003   4.662   1.197
25079WAT     H175479   9.035   4.715   1.275
25079WAT     H275480   9.078   4.647   1.133
25080WAT      O75481   0.862   7.597   6.967
25080WAT     H175482   0.908   7.508   6.954
25080WAT     H275483   0.931   7.669   6.975
25081WAT      O75484   9.724   6.414   4.432
25081WAT     H175485   9.646   6.389   4.374
25081WAT     H275486   9.693   6.425   4.527
25082WAT      O75487   0.274   8.460   5.098
25082WAT     H175488   0.254   8.519   5.020
25082WAT     H275489   0.242   8.503   5.182
25083WAT      O75490   8.394   1.494   2.814
25083WAT     H175491   8.331   1.424   2.780
25083WAT     H275492   8.482   1.485   2.766
25084WAT      O75493   3.989   2.728   9.368
25084WAT     H175494   3.892   2.750   9.382
25084WAT     H275495   4.042   2.812   9.365
25085WAT      O75496   4.827   8.430   8.082
25085WAT     H175497   4.776   8.471   8.157
25085WAT     H275498   4.869   8.502   8.027
25086WAT      O75499   6.155   9.649   1.529
25086WAT     H175500   6.212   9.592   1.588
25086WAT     H275501   6.182   9.637   1.434
25087WAT      O75502   0.459   5.457   1.704
25087WAT     H175503   0.456   5.412   1.794
25087WAT     H275504   0.543   5.509   1.696
25088WAT      O75505   6.717   7.112   1.000
25088WAT     H175506   6.683   7.167   0.923
25088WAT     H275507   6.792   7.054   0.968
25089WAT      O75508   9.400   7.038   7.679
25089WAT     H175509   9.454   7.116   7.650
25089WAT     H275510   9.304   7.065   7.686
25090WAT      O75511   6.305   9.206   2.571
25090WAT     H175512   6.400   9.214   2.541
25090WAT     H275513   6.275   9.111   2.560
25091WAT      O75514   0.343   5.777   8.040
25091WAT     H175515   0.274   5.847   8.056
25091WAT     H275516   0.430   5.807   8.078
25092WAT      O75517   8.396   2.253   9.618
25092WAT     H175518   8.431   2.214   9.704
25092WAT     H275519   8.418   2.191   9.542
25093WAT      O75520   9.015   5.830   2.462
25093WAT     H175521   9.067   5.915   2.459
25093WAT     H275522   8.926   5.848   2.504
25094WAT      O75523   9.561   1.963   5.653
25094WAT     H175524   9.468   1.952   5.617
25094WAT     H275525   9.618   1.888   5.620
25095WAT      O75526   1.987   9.162   1.321
25095WAT     H175527   1.930   9.132   1.398
25095WAT     H275528   2.054   9.229   1.353
25096WAT      O75529   1.719   9.020   6.079
25096WAT     H175530   1.735   9.102   6.024
25096WAT     H275531   1.774   9.026   6.162
25097WAT      O75532   9.742   6.044   1.990
25097WAT     H175533   9.689   6.128   1.996
25097WAT     H275534   9.810   6.042   2.063
25098WAT      O75535   0.409   3.265   7.091
25098WAT     H175536   0.421   3.236   7.185
25098WAT     H275537   0.499   3.276   7.047
25099WAT      O75538   3.137   0.852   7.930
25099WAT     H175539   3.144   0.856   8.029
25099WAT     H275540   3.104   0.762   7.902
25100WAT      O75541   0.078   7.024   7.310
25100WAT     H175542  -0.017   6.998   7.294
25100WAT     H275543   0.082   7.121   7.336
25101WAT      O75544   9.758   3.219   0.695
25101WAT     H175545   9.847   3.206   0.738
25101WAT     H275546   9.763   3.297   0.632
25102WAT      O75547   9.173   6.948   0.985
25102WAT     H175548   9.231   6.883   1.034
25102WAT     H275549   9.088   6.963   1.036
25103WAT      O75550   4.267   2.870   0.147
25103WAT     H175551   4.206   2.803   0.104
25103WAT     H275552   4.345   2.888   0.087
25104WAT      O75553   5.086   0.092   0.491
25104WAT     H175554   5.004   0.148   0.503
25104WAT     H275555   5.128   0.113   0.403
25105WAT      O75556   1.227   5.060   4.426
25105WAT     H175557   1.273   5.076   4.514
25105WAT     H275558   1.194   4.965   4.423
25106WAT      O75559   5.324   6.003   1.851
25106WAT     H175560   5.392   6.012   1.923
25106WAT     H275561   5.357   5.941   1.780
25107WAT      O75562   2.650   8.679   8.501
25107WAT     H175563   2.579   8.615   8.531
25107WAT     H275564   2.734   8.629   8.482
25108WAT      O75565   4.097   4.404   8.246
25108WAT     H175566   4.157   4.484   8.243
25108WAT     H275567   4.039   4.402   8.165
25109WAT      O75568   9.017   2.572   1.946
25109WAT     H175569   8.928   2.533   1.969
25109WAT     H275570   9.086   2.500   1.947
25110WAT      O75571   1.013   0.509   5.342
25110WAT     H175572   0.975   0.601   5.330
25110WAT     H275573   1.112   0.516   5.354
25111WAT      O75574   9.713   0.335   8.640
25111WAT     H175575   9.704   0.358   8.543
25111WAT     H275576   9.728   0.237   8.649
25112WAT      O75577   2.881   2.588   5.376
25112WAT     H175578   2.893   2.497   5.338
25112WAT     H275579   2.942   2.652   5.329
25113WAT      O75580   8.682   3.810   7.347
25113WAT     H175581   8.634   3.737   7.397
25113WAT     H275582   8.623   3.890   7.341
25114WAT      O75583   9.688   6.078   7.081
25114WAT     H175584   9.692   6.063   7.180
25114WAT     H275585   9.702   6.175   7.062
25115WAT      O75586   7.181   7.754   8.990
25115WAT     H175587   7.180   7.660   9.025
25115WAT     H275588   7.090   7.777   8.956
25116WAT      O75589   3.225   1.116   7.875
25116WAT     H175590   3.174   1.030   7.884
25116WAT     H275591   3.249   1.149   7.967
25117WAT      O75592   7.949   1.253   0.819
25117WAT     H175593   8.035   1.204   0.832
25117WAT     H275594   7.874   1.186   0.813
25118WAT      O75595   0.595   5.161   1.061
25118WAT     H175596   0.675   5.117   1.102
25118WAT     H275597   0.624   5.226   0.991
25119WAT      O75598   2.593   9.765   0.732
25119WAT     H175599   2.627   9.852   0.769
25119WAT     H275600   2.534   9.720   0.800
25120WAT      O75601   1.638   8.655   1.923
25120WAT     H175602   1.574   8.668   1.848
25120WAT     H275603   1.721   8.610   1.888
25121WAT      O75604   5.459   3.251   0.052
25121WAT     H175605   5.541   3.299   0.019
25121WAT     H275606   5.486   3.161   0.087
25122WAT      O75607   3.488   5.328   1.327
25122WAT     H175608   3.456   5.246   1.279
25122WAT     H275609   3.571   5.362   1.283
25123WAT      O75610   2.561   7.442   9.717
25123WAT     H175611   2.482   7.468   9.772
25123WAT     H275612   2.541   7.357   9.667
25124WAT      O75613   1.563   4.734   9.056
25124WAT     H175614   1.576   4.824   9.099
25124WAT     H275615   1.651   4.685   9.055
25125WAT      O75616   6.000   1.963   7.420
25125WAT     H175617   6.044   1.877   7.395
25125WAT     H275618   6.035   1.995   7.507
25126WAT      O75619   3.398   8.149   1.608
25126WAT     H175620   3.301   8.131   1.627
25126WAT     H275621   3.432   8.082   1.542
25127WAT      O75622   3.784   0.192   9.536
25127WAT     H175623   3.696   0.169   9.577
25127WAT     H275624   3.771   0.216   9.440
25128WAT      O75625   6.099   0.402   3.666
25128WAT     H175626   6.085   0.355   3.579
25128WAT     H275627   6.164   0.351   3.722
25129WAT      O75628   2.753   4.655   1.148
25129WAT     H175629   2.752   4.576   1.210
25129WAT     H275630   2.661   4.673   1.116
25130WAT      O75631   2.863   3.989   9.445
25130WAT     H175632   2.776   4.000   9.494
25130WAT     H275633   2.845   3.990   9.346
25131WAT      O75634   8.516   5.445   8.098
25131WAT     H175635   8.569   5.472   8.017
25131WAT     H275636   8.577   5.441   8.177
25132WAT      O75637   3.122   1.146   5.376
25132WAT     H175638   3.200   1.131   5.316
25132WAT     H275639   3.115   1.071   5.442
25133WAT      O75640   5.476   9.751   7.698
25133WAT     H175641   5.510   9.778   7.788
25133WAT     H275642   5.532   9.676   7.662
25134WAT      O75643   0.313   2.289   9.364
25134WAT     H175644   0.351   2.286   9.456
25134WAT     H275645   0.339   2.375   9.319
25135WAT      O75646   5.505   9.213   0.559
25135WAT     H175647   5.476   9.262   0.477
25135WAT     H275648   5.487   9.269   0.640
25136WAT      O75649   6.104   4.656   3.039
25136WAT     H175650   6.196   4.620   3.022
25136WAT     H275651   6.068   4.694   2.954
25137WAT      O75652   6.414   7.690   9.125
25137WAT     H175653   6.315   7.685   9.128
25137WAT     H275654   6.446   7.677   9.031
25138WAT      O75655   5.098   1.983   3.780
25138WAT     H175656   5.193   1.998   3.756
25138WAT     H275657   5.084   1.887   3.806
25139WAT      O75658   4.626   4.218   7.575
25139WAT     H175659   4.694   4.289   7.559
25139WAT     H275660   4.534   4.257   7.564
25140WAT      O75661   9.368   3.029   2.996
25140WAT     H175662   9.430   3.105   3.016
25140WAT     H275663   9.413   2.942   3.018
25141WAT      O75664   5.428   0.589   9.163
25141WAT     H175665   5.510   0.593   9.106
25141WAT     H275666   5.348   0.574   9.105
25142WAT      O75667   6.637   4.620   7.455
25142WAT     H175668   6.556   4.571   7.488
25142WAT     H275669   6.609   4.697   7.399
25143WAT      O75670   3.969   2.975   0.613
25143WAT     H175671   4.009   2.886   0.592
25143WAT     H275672   3.899   2.964   0.684
25144WAT      O75673   1.120   1.794   9.319
25144WAT     H175674   1.141   1.703   9.283
25144WAT     H275675   1.025   1.796   9.351
25145WAT      O75676   8.740   6.628   1.711
25145WAT     H175677   8.757   6.727   1.716
25145WAT     H275678   8.695   6.606   1.625
25146WAT      O75679   3.287   1.671   5.767
25146WAT     H175680   3.266   1.589   5.713
25146WAT     H275681   3.375   1.659   5.813
25147WAT      O75682   1.637   3.125   1.248
25147WAT     H175683   1.712   3.117   1.314
25147WAT     H275684   1.579   3.044   1.253
25148WAT      O75685   0.211   7.207   6.674
25148WAT     H175686   0.274   7.179   6.601
25148WAT     H275687   0.197   7.306   6.669
25149WAT      O75688   8.327   0.652   4.528
25149WAT     H175689   8.326   0.561   4.488
25149WAT     H275690   8.422   0.680   4.543
25150WAT      O75691   7.434   2.941   5.735
25150WAT     H175692   7.405   3.013   5.672
25150WAT     H275693   7.524   2.963   5.773
25151WAT      O75694   6.641   5.707   6.930
25151WAT     H175695   6.590   5.628   6.964
25151WAT     H275696   6.650   5.775   7.003
25152WAT      O75697   2.093   0.608   5.793
25152WAT     H175698   2.090   0.700   5.754
25152WAT     H275699   2.003   0.566   5.787
25153WAT      O75700   0.645   1.400   1.638
25153WAT     H175701   0.670   1.332   1.569
25153WAT     H275702   0.645   1.357   1.728
25154WAT      O75703   2.609   5.409   4.312
25154WAT     H175704   2.593   5.459   4.227
25154WAT     H275705   2.707   5.411   4.334
25155WAT      O75706   5.443   6.313   0.812
25155WAT     H175707   5.508   6.332   0.885
25155WAT     H275708   5.491   6.284   0.730
25156WAT      O75709   5.587   3.214   1.548
25156WAT     H175710   5.614   3.168   1.633
25156WAT     H275711   5.601   3.312   1.556
25157WAT      O75712   1.016   3.704   2.323
25157WAT     H175713   1.027   3.712   2.422
25157WAT     H275714   0.963   3.623   2.301
25158WAT      O75715   4.879   7.164   1.108
25158WAT     H175716   4.873   7.103   1.029
25158WAT     H275717   4.921   7.251   1.079
25159WAT      O75718   7.981   6.200   7.016
25159WAT     H175719   8.071   6.215   7.058
25159WAT     H275720   7.976   6.250   6.930
25160WAT      O75721   5.785   4.056   4.201
25160WAT     H175722   5.802   4.029   4.107
25160WAT     H275723   5.687   4.049   4.221
25161WAT      O75724   6.752   3.195   3.769
25161WAT     H175725   6.773   3.284   3.729
25161WAT     H275726   6.828   3.132   3.755
25162WAT      O75727   1.168   9.322   0.904
25162WAT     H175728   1.253   9.373   0.919
25162WAT     H275729   1.121   9.311   0.991
25163WAT      O75730   8.060   8.946   4.199
25163WAT     H175731   8.029   8.899   4.117
25163WAT     H275732   7.985   8.952   4.265
25164WAT      O75733   4.958   6.091   1.348
25164WAT     H175734   4.868   6.121   1.381
25164WAT     H275735   4.951   6.063   1.252
25165WAT      O75736   0.166   3.596   8.141
25165WAT     H175737   0.123   3.557   8.060
25165WAT     H275738   0.259   3.626   8.119
25166WAT      O75739   8.998   8.939   5.012
25166WAT     H175740   8.920   8.968   5.067
25166WAT     H275741   8.967   8.900   4.926
25167WAT      O75742   7.992   4.276   9.715
25167WAT     H175743   7.930   4.354   9.720
25167WAT     H275744   7.938   4.191   9.717
25168WAT      O75745   2.165   5.467   7.059
25168WAT     H175746   2.217   5.477   6.974
25168WAT     H275747   2.195   5.384   7.107
25169WAT      O75748   4.106   7.245   8.525
25169WAT     H175749   4.009   7.268   8.519
25169WAT     H275750   4.115   7.147   8.541
25170WAT      O75751   2.286   5.838   2.255
25170WAT     H175752   2.287   5.763   2.189
25170WAT     H275753   2.272   5.802   2.347
25171WAT      O75754   6.522   7.686   8.366
25171WAT     H175755   6.467   7.684   8.282
25171WAT     H275756   6.613   7.721   8.345
25172WAT      O75757   0.484   3.039   4.240
25172WAT     H175758   0.575   3.007   4.265
25172WAT     H275759   0.492   3.118   4.179
25173WAT      O75760   6.666   7.188   8.937
25173WAT     H175761   6.738   7.257   8.941
25173WAT     H275762   6.648   7.154   9.029
25174WAT      O75763   5.349   3.878   9.296
25174WAT     H175764   5.379   3.834   9.211
25174WAT     H275765   5.254   3.853   9.314
25175WAT      O75766   1.991   9.698   2.213
25175WAT     H175767   1.948   9.740   2.293
25175WAT     H275768   1.967   9.602   2.209
25176WAT      O75769   8.002   5.767   7.807
25176WAT     H175770   7.962   5.833   7.743
25176WAT     H275771   7.963   5.676   7.789
25177WAT      O75772   1.790   0.910   5.810
25177WAT     H175773   1.798   0.914   5.711
25177WAT     H275774   1.755   0.997   5.844
25178WAT      O75775   1.265   6.021   9.767
25178WAT     H175776   1.316   6.005   9.852
25178WAT     H275777   1.168   6.007   9.783
25179WAT      O75778   2.790   5.899   2.430
25179WAT     H175779   2.840   5.839   2.368
25179WAT     H275780   2.692   5.891   2.412
25180WAT      O75781   5.737   2.986   7.105
25180WAT     H175782   5.782   2.898   7.088
25180WAT     H275783   5.781   3.031   7.183
25181WAT      O75784   9.699   8.489   1.343
25181WAT     H175785   9.678   8.420   1.413
25181WAT     H275786   9.797   8.509   1.346
25182WAT      O75787   6.387   8.055   9.723
25182WAT     H175788   6.452   8.112   9.773
25182WAT     H275789   6.424   8.034   9.632
25183WAT      O75790   4.894   7.208   5.201
25183WAT     H175791   4.941   7.159   5.128
25183WAT     H275792   4.873   7.145   5.276
25184WAT      O75793   1.798   4.742   9.848
25184WAT     H175794   1.706   4.779   9.832
25184WAT     H275795   1.860   4.774   9.777
25185WAT      O75796   6.203   3.100   8.106
25185WAT     H175797   6.168   3.189   8.136
25185WAT     H275798   6.244   3.109   8.015
25186WAT      O75799   3.796   2.492   4.053
25186WAT     H175800   3.751   2.581   4.050
25186WAT     H275801   3.855   2.487   4.134
25187WAT      O75802   9.436   4.756   0.828
25187WAT     H175803   9.465   4.849   0.806
25187WAT     H275804   9.368   4.725   0.760
25188WAT      O75805   7.491   6.789   5.041
25188WAT     H175806   7.553   6.867   5.025
25188WAT     H275807   7.539   6.719   5.093
25189WAT      O75808   0.750   5.702   5.151
25189WAT     H175809   0.670   5.707   5.091
25189WAT     H275810   0.825   5.755   5.112
25190WAT      O75811   2.530   3.338   8.850
25190WAT     H175812   2.434   3.348   8.823
25190WAT     H275813   2.538   3.352   8.949
25191WAT      O75814   6.868   5.169   6.826
25191WAT     H175815   6.858   5.262   6.862
25191WAT     H275816   6.811   5.158   6.745
25192WAT      O75817   5.887   6.142   0.379
25192WAT     H175818   5.957   6.207   0.407
25192WAT     H275819   5.913   6.050   0.406
25193WAT      O75820   2.116   2.464   9.156
25193WAT     H175821   2.110   2.445   9.058
25193WAT     H275822   2.209   2.444   9.188
25194WAT      O75823   3.806   0.515   1.386
25194WAT     H175824   3.895   0.484   1.418
25194WAT     H275825   3.792   0.611   1.412
25195WAT      O75826   6.902   9.370   8.723
25195WAT     H175827   6.902   9.273   8.747
25195WAT     H275828   6.989   9.394   8.681
25196WAT      O75829   1.777   7.621   1.478
25196WAT     H175830   1.721   7.698   1.507
25196WAT     H275831   1.865   7.654   1.443
25197WAT      O75832   5.278   6.097   8.700
25197WAT     H175833   5.339   6.041   8.756
25197WAT     H275834   5.209   6.139   8.759
25198WAT      O75835   1.245   3.353   3.314
25198WAT     H175836   1.159   3.305   3.304
25198WAT     H275837   1.259   3.414   3.236
25199WAT      O75838   8.531   6.910   0.121
25199WAT     H175839   8.443   6.875   0.089
25199WAT     H275840   8.520   7.006   0.147
25200WAT      O75841   1.315   1.455   6.390
25200WAT     H175842   1.380   1.528   6.415
25200WAT     H275843   1.362   1.367   6.394
25201WAT      O75844   6.697   2.725   4.167
25201WAT     H175845   6.693   2.740   4.068
25201WAT     H275846   6.608   2.689   4.199
25202WAT      O75847   5.805   4.674   1.423
25202WAT     H175848   5.903   4.688   1.417
25202WAT     H275849   5.773   4.698   1.515
25203WAT      O75850   9.400   2.839   7.816
25203WAT     H175851   9.376   2.746   7.786
25203WAT     H275852   9.490   2.838   7.860
25204WAT      O75853   5.966   0.182   6.185
25204WAT     H175854   6.014   0.134   6.112
25204WAT     H275855   5.868   0.186   6.163
25205WAT      O75856   0.634   9.175   1.067
25205WAT     H175857   0.704   9.191   0.997
25205WAT     H275858   0.651   9.234   1.146
25206WAT      O75859   0.294   9.666   5.186
25206WAT     H175860   0.303   9.616   5.099
25206WAT     H275861   0.200   9.659   5.218
25207WAT      O75862   0.969   5.739   8.281
25207WAT     H175863   0.938   5.800   8.353
25207WAT     H275864   0.889   5.699   8.234
25208WAT      O75865   0.287   9.713   6.837
25208WAT     H175866   0.213   9.686   6.898
25208WAT     H275867   0.272   9.806   6.804
25209WAT      O75868   7.959   0.604   4.230
25209WAT     H175869   8.048   0.651   4.229
25209WAT     H275870   7.892   0.659   4.181
25210WAT      O75871   9.167   1.726   2.642
25210WAT     H175872   9.140   1.768   2.556
25210WAT     H275873   9.253   1.766   2.674
25211WAT      O75874   5.212   3.170   8.874
25211WAT     H175875   5.134   3.113   8.900
25211WAT     H275876   5.202   3.199   8.779
25212WAT      O75877   0.391   0.071   3.287
25212WAT     H175878   0.386   0.125   3.371
25212WAT     H275879   0.305   0.082   3.236
25213WAT      O75880   1.559   4.402   1.851
25213WAT     H175881   1.506   4.463   1.792
25213WAT     H275882   1.583   4.450   1.936
25214WAT      O75883   3.678   5.257   2.269
25214WAT     H175884   3.683   5.169   2.315
25214WAT     H275885   3.754   5.315   2.300
25215WAT      O75886   3.077   8.744   3.326
25215WAT     H175887   3.120   8.833   3.342
25215WAT     H275888   3.144   8.682   3.285
25216WAT      O75889   0.905   5.795   1.183
25216WAT     H175890   0.834   5.725   1.173
25216WAT     H275891   0.950   5.810   1.095
25217WAT      O75892   2.189   4.659   7.190
25217WAT     H175893   2.158   4.731   7.129
25217WAT     H275894   2.255   4.601   7.142
25218WAT      O75895   2.350   6.017   6.424
25218WAT     H175896   2.260   6.030   6.466
25218WAT     H275897   2.416   6.081   6.463
25219WAT      O75898   5.641   7.286   0.196
25219WAT     H175899   5.651   7.385   0.205
25219WAT     H275900   5.615   7.265   0.102
25220WAT      O75901   4.640   7.856   7.735
25220WAT     H175902   4.575   7.924   7.702
25220WAT     H275903   4.688   7.816   7.656
25221WAT      O75904   2.550   6.844   8.084
25221WAT     H175905   2.646   6.868   8.073
25221WAT     H275906   2.534   6.753   8.047
25222WAT      O75907   7.538   2.122   1.264
25222WAT     H175908   7.560   2.048   1.200
25222WAT     H275909   7.553   2.210   1.219
25223WAT      O75910   6.008   7.438   3.148
25223WAT     H175911   5.935   7.494   3.108
25223WAT     H275912   6.006   7.447   3.247
25224WAT      O75913   2.166   7.969   7.598
25224WAT     H175914   2.124   7.879   7.598
25224WAT     H275915   2.147   8.014   7.511
25225WAT      O75916   8.271   4.210   0.673
25225WAT     H175917   8.312   4.297   0.644
25225WAT     H275918   8.172   4.219   0.673
25226WAT      O75919   5.970   4.275   7.927
25226WAT     H175920   5.889   4.219   7.908
25226WAT     H275921   5.986   4.278   8.026
25227WAT      O75922   1.502   9.655   7.352
25227WAT     H175923   1.426   9.615   7.402
25227WAT     H275924   1.471   9.684   7.261
25228WAT      O75925   1.782   7.119   6.627
25228WAT     H175926   1.722   7.116   6.706
25228WAT     H275927   1.816   7.213   6.615
25229WAT      O75928   7.298   1.578   5.155
25229WAT     H175929   7.204   1.553   5.132
25229WAT     H275930   7.353   1.585   5.071
25230WAT      O75931   1.048   6.352   5.541
25230WAT     H175932   1.071   6.435   5.490
25230WAT     H275933   1.028   6.278   5.477
25231WAT      O75934   6.922   8.665   8.908
25231WAT     H175935   6.991   8.657   8.836
25231WAT     H275936   6.889   8.574   8.933
25232WAT      O75937   2.329   5.601   8.898
25232WAT     H175938   2.285   5.575   8.984
25232WAT     H275939   2.426   5.575   8.901
25233WAT      O75940   6.919   7.723   7.460
25233WAT     H175941   6.891   7.804   7.408
25233WAT     H275942   7.011   7.738   7.498
25234WAT      O75943   1.539   5.839   2.155
25234WAT     H175944   1.523   5.805   2.248
25234WAT     H275945   1.636   5.831   2.133
25235WAT      O75946   7.047   9.806   4.797
25235WAT     H175947   6.977   9.840   4.861
25235WAT     H275948   7.041   9.706   4.792
25236WAT      O75949   4.198   0.785   2.701
25236WAT     H175950   4.229   0.823   2.788
25236WAT     H275951   4.276   0.777   2.639
25237WAT      O75952   4.946   0.367   7.878
25237WAT     H175953   4.915   0.439   7.816
25237WAT     H275954   4.990   0.294   7.826
25238WAT      O75955   0.882   5.973   6.799
25238WAT     H175956   0.800   6.021   6.767
25238WAT     H275957   0.900   5.895   6.740
25239WAT      O75958   6.511   5.089   6.180
25239WAT     H175959   6.604   5.122   6.166
25239WAT     H275960   6.506   4.992   6.158
25240WAT      O75961   9.649   5.696   4.164
25240WAT     H175962   9.611   5.617   4.116
25240WAT     H275963   9.738   5.719   4.125
25241WAT      O75964   4.369   8.709   0.725
25241WAT     H175965   4.409   8.775   0.662
25241WAT     H275966   4.315   8.642   0.674
25242WAT      O75967   0.595   8.077   2.170
25242WAT     H175968   0.576   8.126   2.255
25242WAT     H275969   0.564   8.131   2.092
25243WAT      O75970   7.791   4.844   6.950
25243WAT     H175971   7.702   4.798   6.938
25243WAT     H275972   7.778   4.931   6.996
25244WAT      O75973   0.699   9.832   7.455
25244WAT     H175974   0.682   9.776   7.537
25244WAT     H275975   0.653   9.920   7.465
25245WAT      O75976   5.738   7.931   8.786
25245WAT     H175977   5.670   7.983   8.736
25245WAT     H275978   5.707   7.917   8.880
25246WAT      O75979   1.531   9.155   8.701
25246WAT     H175980   1.586   9.074   8.719
25246WAT     H275981   1.513   9.163   8.603
25247WAT      O75982   1.542   6.686   2.653
25247WAT     H175983   1.622   6.626   2.646
25247WAT     H275984   1.553   6.763   2.590
25248WAT      O75985   2.509   6.735   5.400
25248WAT     H175986   2.563   6.734   5.316
25248WAT     H275987   2.502   6.829   5.434
25249WAT      O75988   7.869   1.841   7.219
25249WAT     H175989   7.781   1.861   7.261
25249WAT     H275990   7.942   1.873   7.279
25250WAT      O75991   5.145   4.274   6.047
25250WAT     H175992   5.099   4.361   6.065
25250WAT     H275993   5.180   4.274   5.953
25251WAT      O75994   9.233   2.523   6.352
25251WAT     H175995   9.285   2.483   6.276
25251WAT     H275996   9.285   2.511   6.437
25252WAT      O75997   2.098   9.581   4.349
25252WAT     H175998   2.160   9.551   4.277
25252WAT     H275999   2.007   9.542   4.333
25253WAT      O76000   1.587   1.078   1.750
25253WAT     H176001   1.609   1.119   1.839
25253WAT     H276002   1.533   1.142   1.696
25254WAT      O76003   8.986   2.350   7.572
25254WAT     H176004   9.068   2.329   7.518
25254WAT     H276005   8.996   2.442   7.612
25255WAT      O76006   5.019   7.562   6.226
25255WAT     H176007   5.116   7.536   6.229
25255WAT     H276008   4.966   7.501   6.286
25256WAT      O76009   7.059   8.573   0.009
25256WAT     H176010   7.090   8.568  -0.086
25256WAT     H276011   7.004   8.655   0.022
25257WAT      O76012   5.589   2.511   1.610
25257WAT     H176013   5.586   2.602   1.650
25257WAT     H276014   5.627   2.447   1.676
25258WAT      O76015   6.219   8.805   3.917
25258WAT     H176016   6.151   8.866   3.876
25258WAT     H276017   6.309   8.827   3.881
25259WAT      O76018   1.374   0.970   6.184
25259WAT     H176019   1.368   0.883   6.136
25259WAT     H276020   1.348   1.044   6.122
25260WAT      O76021   7.873   0.918   7.099
25260WAT     H176022   7.928   0.977   7.039
25260WAT     H276023   7.901   0.934   7.194
25261WAT      O76024   5.767   6.941   5.339
25261WAT     H176025   5.846   7.001   5.329
25261WAT     H276026   5.794   6.857   5.385
25262WAT      O76027   1.299   3.922   8.721
25262WAT     H176028   1.261   3.986   8.654
25262WAT     H276029   1.389   3.954   8.751
25263WAT      O76030   2.728   7.434   0.923
25263WAT     H176031   2.779   7.517   0.942
25263WAT     H276032   2.688   7.440   0.831
25264WAT      O76033   3.120   2.216   5.518
25264WAT     H176034   3.113   2.118   5.537
25264WAT     H276035   3.105   2.232   5.420
25265WAT      O76036   7.697   8.111   4.140
25265WAT     H176037   7.667   8.186   4.198
25265WAT     H276038   7.631   8.036   4.144
25266WAT      O76039   7.374   7.959   8.604
25266WAT     H176040   7.317   7.881   8.632
25266WAT     H276041   7.470   7.931   8.603
25267WAT      O76042   2.949   8.052   6.431
25267WAT     H176043   3.041   8.013   6.422
25267WAT     H276044   2.938   8.128   6.368
25268WAT      O76045   7.168   5.383   1.495
25268WAT     H176046   7.086   5.325   1.491
25268WAT     H276047   7.151   5.462   1.553
25269WAT      O76048   5.457   7.012   8.526
25269WAT     H176049   5.379   7.076   8.523
25269WAT     H276050   5.541   7.063   8.545
25270WAT      O76051   1.120   5.198   0.505
25270WAT     H176052   1.209   5.203   0.460
25270WAT     H276053   1.126   5.137   0.585
25271WAT      O76054   6.468   4.317   9.162
25271WAT     H176055   6.431   4.254   9.229
25271WAT     H276056   6.468   4.410   9.199
25272WAT      O76057   8.677   9.146   0.983
25272WAT     H176058   8.632   9.196   1.057
25272WAT     H276059   8.760   9.194   0.956
25273WAT      O76060   0.261   2.551   3.805
25273WAT     H176061   0.183   2.491   3.786
25273WAT     H276062   0.228   2.631   3.856
25274WAT      O76063   2.559   6.328   3.413
25274WAT     H176064   2.574   6.427   3.416
25274WAT     H276065   2.526   6.302   3.322
25275WAT      O76066   8.867   9.534   9.104
25275WAT     H176067   8.820   9.454   9.143
25275WAT     H276068   8.811   9.573   9.031
25276WAT      O76069   9.639   7.520   3.549
25276WAT     H176070   9.650   7.549   3.644
25276WAT     H276071   9.706   7.568   3.492
25277WAT      O76072   5.221   6.277   4.216
25277WAT     H176073   5.131   6.240   4.190
25277WAT     H276074   5.269   6.308   4.134
25278WAT      O76075   7.538   0.948   7.144
25278WAT     H176076   7.449   0.993   7.131
25278WAT     H276077   7.599   0.972   7.069
25279WAT      O76078   5.820   7.004   7.339
25279WAT     H176079   5.870   6.979   7.256
25279WAT     H276080   5.800   7.102   7.338
25280WAT      O76081   6.717   5.929   4.965
25280WAT     H176082   6.769   5.987   4.901
25280WAT     H276083   6.660   5.865   4.914
25281WAT      O76084   2.752   4.169   0.661
25281WAT     H176085   2.705   4.082   0.650
25281WAT     H276086   2.691   4.244   0.633
25282WAT      O76087   5.934   1.037   5.401
25282WAT     H176088   5.912   1.133   5.422
25282WAT     H276089   5.869   1.003   5.333
25283WAT      O76090   5.256   5.429   6.650
25283WAT     H176091   5.159   5.406   6.644
25283WAT     H276092   5.289   5.458   6.560
25284WAT      O76093   2.358   0.178   9.598
25284WAT     H176094   2.431   0.111   9.607
25284WAT     H276095   2.397   0.269   9.584
25285WAT      O76096   1.752   1.074   3.543
25285WAT     H176097   1.704   1.159   3.562
25285WAT     H276098   1.747   1.053   3.445
25286WAT      O76099   6.699   4.418   3.289
25286WAT     H176100   6.726   4.444   3.382
25286WAT     H276101   6.774   4.368   3.246
25287WAT      O76102   0.899   6.252   8.102
25287WAT     H176103   0.885   6.175   8.041
25287WAT     H276104   0.964   6.227   8.174
25288WAT      O76105   1.697   2.821   0.503
25288WAT     H176106   1.644   2.819   0.418
25288WAT     H276107   1.671   2.902   0.556
25289WAT      O76108   4.766   8.147   1.731
25289WAT     H176109   4.858   8.133   1.695
25289WAT     H276110   4.747   8.244   1.739
25290WAT      O76111   6.192   8.773   0.161
25290WAT     H176112   6.232   8.759   0.071
25290WAT     H276113   6.243   8.720   0.229
25291WAT      O76114   4.618   5.798   6.216
25291WAT     H176115   4.645   5.718   6.270
25291WAT     H276116   4.523   5.786   6.185
25292WAT      O76117   4.983   5.332   4.820
25292WAT     H176118   4.907   5.396   4.813
25292WAT     H276119   5.069   5.384   4.826
25293WAT      O76120   2.565   7.008   7.134
25293WAT     H176121   2.662   7.030   7.136
25293WAT     H276122   2.512   7.090   7.113
25294WAT      O76123   0.864   8.856   8.321
25294WAT     H176124   0.782   8.798   8.324
25294WAT     H276125   0.866   8.905   8.234
25295WAT      O76126   2.333   8.109   8.399
25295WAT     H176127   2.252   8.104   8.457
25295WAT     H276128   2.308   8.093   8.304
25296WAT      O76129   0.265   8.097   1.397
25296WAT     H176130   0.244   8.088   1.300
25296WAT     H276131   0.186   8.137   1.444
25297WAT      O76132   0.260   2.810   1.230
25297WAT     H176133   0.229   2.881   1.293
25297WAT     H276134   0.360   2.804   1.234
25298WAT      O76135   3.743   4.483   1.032
25298WAT     H176136   3.706   4.426   1.106
25298WAT     H276137   3.732   4.436   0.945
25299WAT      O76138   6.826   8.393   8.895
25299WAT     H176139   6.887   8.397   8.815
25299WAT     H276140   6.731   8.393   8.865
25300WAT      O76141   1.955   7.651   8.154
25300WAT     H176142   1.891   7.599   8.097
25300WAT     H276143   1.913   7.738   8.179
25301WAT      O76144   0.497   6.600   5.548
25301WAT     H176145   0.433   6.664   5.506
25301WAT     H276146   0.493   6.609   5.648
25302WAT      O76147   6.795   0.562   5.920
25302WAT     H176148   6.848   0.479   5.901
25302WAT     H276149   6.856   0.635   5.949
25303WAT      O76150   1.718   6.649   2.095
25303WAT     H176151   1.816   6.645   2.072
25303WAT     H276152   1.685   6.742   2.080
25304WAT      O76153   5.482   1.095   9.693
25304WAT     H176154   5.385   1.116   9.687
25304WAT     H276155   5.505   1.022   9.630
25305WAT      O76156   7.491   5.829   9.346
25305WAT     H176157   7.549   5.878   9.281
25305WAT     H276158   7.506   5.731   9.338
25306WAT      O76159   0.447   0.096   7.002
25306WAT     H176160   0.360   0.141   7.023
25306WAT     H276161   0.433  -0.003   6.995
25307WAT      O76162   3.584   1.425   1.249
25307WAT     H176163   3.652   1.470   1.191
25307WAT     H276164   3.586   1.327   1.232
25308WAT      O76165   7.696   6.937   6.888
25308WAT     H176166   7.633   7.011   6.912
25308WAT     H276167   7.647   6.865   6.839
25309WAT      O76168   0.612   0.453   0.442
25309WAT     H176169   0.539   0.403   0.490
25309WAT     H276170   0.603   0.550   0.460
25310WAT      O76171   4.437   2.756   8.027
25310WAT     H176172   4.474   2.693   7.960
25310WAT     H276173   4.337   2.750   8.028
25311WAT      O76174   7.630   5.607   4.529
25311WAT     H176175   7.565   5.666   4.578
25311WAT     H276176   7.673   5.544   4.593
25312WAT      O76177   0.439   8.956   9.792
25312WAT     H176178   0.435   8.992   9.699
25312WAT     H276179   0.355   8.981   9.840
25313WAT      O76180   6.824   9.736   6.996
25313WAT     H176181   6.808   9.755   7.092
25313WAT     H276182   6.764   9.793   6.940
25314WAT      O76183   9.284   6.384   2.373
25314WAT     H176184   9.187   6.369   2.391
25314WAT     H276185   9.334   6.389   2.459
25315WAT      O76186   0.066   6.898   8.798
25315WAT     H176187  -0.003   6.847   8.747
25315WAT     H276188   0.120   6.955   8.736
25316WAT      O76189   2.316   5.989   4.800
25316WAT     H176190   2.337   5.907   4.853
25316WAT     H276191   2.397   6.048   4.797
25317WAT      O76192   1.125   0.042   1.240
25317WAT     H176193   1.194   0.040   1.168
25317WAT     H276194   1.084  -0.049   1.250
25318WAT      O76195   5.989   4.035   7.507
25318WAT     H176196   5.948   3.953   7.549
25318WAT     H276197   6.085   4.041   7.533
25319WAT      O76198   7.616   1.825   5.206
25319WAT     H176199   7.610   1.788   5.113
25319WAT     H276200   7.678   1.903   5.206
25320WAT      O76201   2.385   4.512   9.492
25320WAT     H176202   2.439   4.581   9.444
25320WAT     H276203   2.443   4.465   9.559
25321WAT      O76204   5.931   6.377   7.441
25321WAT     H176205   5.876   6.327   7.374
25321WAT     H276206   6.009   6.419   7.395
25322WAT      O76207   8.663   3.016   8.700
25322WAT     H176208   8.595   3.071   8.652
25322WAT     H276209   8.750   3.020   8.651
25323WAT      O76210   6.381   2.247   6.006
25323WAT     H176211   6.388   2.211   6.099
25323WAT     H276212   6.466   2.228   5.956
25324WAT      O76213   7.446   0.665   3.665
25324WAT     H176214   7.359   0.664   3.715
25324WAT     H276215   7.463   0.757   3.631
25325WAT      O76216   6.476   2.784   4.772
25325WAT     H176217   6.450   2.853   4.839
25325WAT     H276218   6.487   2.826   4.683
25326WAT      O76219   2.580   7.706   4.145
25326WAT     H176220   2.589   7.653   4.230
25326WAT     H276221   2.664   7.700   4.093
25327WAT      O76222   0.312   7.082   7.852
25327WAT     H176223   0.296   7.171   7.809
25327WAT     H276224   0.403   7.082   7.895
25328WAT      O76225   7.161   7.737   7.599
25328WAT     H176226   7.172   7.833   7.625
25328WAT     H276227   7.129   7.684   7.678
25329WAT      O76228   9.418   8.402   8.667
25329WAT     H176229   9.492   8.398   8.735
25329WAT     H276230   9.336   8.441   8.709
25330WAT      O76231   5.791   6.717   4.390
25330WAT     H176232   5.706   6.691   4.434
25330WAT     H276233   5.868   6.696   4.450
25331WAT      O76234   3.417   1.171   0.849
25331WAT     H176235   3.394   1.268   0.849
25331WAT     H276236   3.516   1.160   0.852
25332WAT      O76237   9.726   5.825   7.498
25332WAT     H176238   9.789   5.845   7.423
25332WAT     H276239   9.746   5.734   7.535
25333WAT      O76240   7.462   2.700   6.498
25333WAT     H176241   7.547   2.731   6.542
25333WAT     H276242   7.485   2.641   6.420
25334WAT      O76243   6.667   4.864   6.463
25334WAT     H176244   6.585   4.810   6.447
25334WAT     H276245   6.646   4.942   6.523
25335WAT      O76246   9.083   3.244   7.611
25335WAT     H176247   9.140   3.320   7.641
25335WAT     H276248   9.106   3.162   7.663
25336WAT      O76249   0.788   7.024   2.162
25336WAT     H176250   0.740   6.972   2.233
25336WAT     H276251   0.818   7.111   2.200
25337WAT      O76252   6.251   4.037   7.595
25337WAT     H176253   6.311   3.975   7.645
25337WAT     H276254   6.218   4.109   7.656
25338WAT      O76255   3.016   0.517   4.068
25338WAT     H176256   2.934   0.501   4.013
25338WAT     H276257   3.025   0.614   4.088
25339WAT      O76258   3.688   3.684   5.733
25339WAT     H176259   3.670   3.603   5.790
25339WAT     H276260   3.652   3.669   5.641
25340WAT      O76261   8.376   8.700   1.520
25340WAT     H176262   8.428   8.621   1.487
25340WAT     H276263   8.366   8.695   1.619
25341WAT      O76264   4.339   3.473   3.807
25341WAT     H176265   4.360   3.385   3.766
25341WAT     H276266   4.306   3.460   3.900
25342WAT      O76267   1.341   5.527   9.179
25342WAT     H176268   1.301   5.465   9.112
25342WAT     H276269   1.414   5.580   9.136
25343WAT      O76270   6.205   0.530   6.572
25343WAT     H176271   6.278   0.462   6.564
25343WAT     H276272   6.140   0.518   6.497
25344WAT      O76273   6.026   3.548   4.981
25344WAT     H176274   5.935   3.570   5.017
25344WAT     H276275   6.066   3.474   5.034
25345WAT      O76276   6.860   0.950   1.672
25345WAT     H176277   6.931   0.998   1.723
25345WAT     H276278   6.894   0.928   1.580
25346WAT      O76279   7.204   7.233   8.168
25346WAT     H176280   7.294   7.207   8.201
25346WAT     H276281   7.213   7.292   8.088
25347WAT      O76282   7.752   8.252   6.160
25347WAT     H176283   7.752   8.152   6.151
25347WAT     H276284   7.661   8.288   6.137
25348WAT      O76285   7.836   7.214   8.349
25348WAT     H176286   7.787   7.289   8.394
25348WAT     H276287   7.774   7.137   8.336
25349WAT      O76288   8.358   0.236   0.238
25349WAT     H176289   8.274   0.289   0.250
25349WAT     H276290   8.334   0.144   0.206
25350WAT      O76291   4.823   9.459   8.212
25350WAT     H176292   4.882   9.421   8.283
25350WAT     H276293   4.739   9.406   8.207
25351WAT      O76294   3.542   9.495   5.323
25351WAT     H176295   3.603   9.566   5.360
25351WAT     H276296   3.449   9.532   5.317
25352WAT      O76297   3.869   4.969   3.074
25352WAT     H176298   3.952   4.988   3.126
25352WAT     H276299   3.849   5.045   3.013
25353WAT      O76300   4.967   2.637   1.340
25353WAT     H176301   5.060   2.605   1.324
25353WAT     H276302   4.936   2.608   1.430
25354WAT      O76303   6.971   6.481   0.104
25354WAT     H176304   7.043   6.465   0.037
25354WAT     H276305   6.913   6.557   0.073
25355WAT      O76306   5.878   7.400   9.071
25355WAT     H176307   5.977   7.402   9.067
25355WAT     H276308   5.845   7.316   9.027
25356WAT      O76309   8.512   0.059   7.320
25356WAT     H176310   8.430   0.052   7.262
25356WAT     H276311   8.532   0.155   7.338
25357WAT      O76312   8.840   2.963   3.583
25357WAT     H176313   8.788   2.914   3.513
25357WAT     H276314   8.910   3.019   3.539
25358WAT      O76315   0.630   3.530   4.291
25358WAT     H176316   0.676   3.539   4.380
25358WAT     H276317   0.534   3.506   4.306
25359WAT      O76318   1.885   6.531   9.816
25359WAT     H176319   1.840   6.557   9.730
25359WAT     H276320   1.897   6.612   9.873
25360WAT      O76321   1.669   2.810   7.535
25360WAT     H176322   1.603   2.758   7.589
25360WAT     H276323   1.668   2.779   7.441
25361WAT      O76324   7.941   6.068   3.694
25361WAT     H176325   7.886   6.025   3.623
25361WAT     H276326   7.940   6.011   3.776
25362WAT      O76327   8.406   3.747   2.590
25362WAT     H176328   8.354   3.760   2.675
25362WAT     H276329   8.464   3.827   2.575
25363WAT      O76330   8.746   4.353   0.946
25363WAT     H176331   8.658   4.360   0.994
25363WAT     H276332   8.795   4.273   0.979
25364WAT      O76333   3.595   1.183   4.498
25364WAT     H176334   3.505   1.158   4.463
25364WAT     H276335   3.616   1.126   4.578
25365WAT      O76336   9.228   0.287   0.181
25365WAT     H176337   9.177   0.370   0.203
25365WAT     H276338   9.265   0.248   0.265
25366WAT      O76339   0.807   1.547   5.067
25366WAT     H176340   0.884   1.540   5.004
25366WAT     H276341   0.836   1.596   5.149
25367WAT      O76342   9.333   6.833   7.017
25367WAT     H176343   9.345   6.758   7.081
25367WAT     H276344   9.254   6.815   6.958
25368WAT      O76345   2.103   4.484   8.535
25368WAT     H176346   2.090   4.387   8.559
25368WAT     H276347   2.151   4.490   8.448
25369WAT      O76348   4.187   0.248   7.383
25369WAT     H176349   4.089   0.231   7.372
25369WAT     H276350   4.224   0.187   7.453
25370WAT      O76351   5.112   8.759   7.524
25370WAT     H176352   5.149   8.730   7.435
25370WAT     H276353   5.131   8.688   7.592
25371WAT      O76354   3.148   6.526   3.999
25371WAT     H176355   3.169   6.572   4.085
25371WAT     H276356   3.051   6.536   3.979
25372WAT      O76357   1.103   7.070   9.075
25372WAT     H176358   1.088   6.984   9.026
25372WAT     H276359   1.076   7.059   9.171
25373WAT      O76360   3.931   4.672   0.969
25373WAT     H176361   3.942   4.635   0.877
25373WAT     H276362   3.862   4.619   1.018
25374WAT      O76363   8.003   4.846   7.889
25374WAT     H176364   8.058   4.767   7.862
25374WAT     H276365   7.921   4.851   7.832
25375WAT      O76366   8.127   6.949   2.347
25375WAT     H176367   8.134   6.879   2.276
25375WAT     H276368   8.051   7.011   2.325
25376WAT      O76369   2.877   1.353   1.973
25376WAT     H176370   2.852   1.418   2.045
25376WAT     H276371   2.937   1.283   2.010
25377WAT      O76372   6.165   8.624   8.848
25377WAT     H176373   6.080   8.659   8.887
25377WAT     H276374   6.208   8.562   8.914
25378WAT      O76375   2.007   7.086   9.057
25378WAT     H176376   1.929   7.024   9.064
25378WAT     H276377   2.087   7.035   9.025
25379WAT      O76378   6.064   2.839   3.321
25379WAT     H176379   6.123   2.782   3.265
25379WAT     H276380   6.009   2.899   3.263
25380WAT      O76381   2.054   6.014   5.067
25380WAT     H176382   2.046   6.072   5.148
25380WAT     H276383   2.144   5.971   5.064
25381WAT      O76384   2.876   0.860   5.798
25381WAT     H176385   2.965   0.818   5.814
25381WAT     H276386   2.808   0.789   5.781
25382WAT      O76387   4.641   4.409   2.987
25382WAT     H176388   4.555   4.457   3.002
25382WAT     H276389   4.648   4.332   3.050
25383WAT      O76390   8.428   9.668   2.061
25383WAT     H176391   8.416   9.652   1.963
25383WAT     H276392   8.350   9.631   2.111
25384WAT      O76393   0.568   4.668   6.632
25384WAT     H176394   0.562   4.619   6.544
25384WAT     H276395   0.486   4.722   6.645
25385WAT      O76396   3.928   0.566   0.803
25385WAT     H176397   3.880   0.492   0.756
25385WAT     H276398   3.869   0.605   0.872
25386WAT      O76399   0.827   6.734   0.447
25386WAT     H176400   0.734   6.771   0.454
25386WAT     H276401   0.839   6.693   0.356
25387WAT      O76402   1.264   4.661   6.988
25387WAT     H176403   1.263   4.599   7.067
25387WAT     H276404   1.214   4.619   6.913
25388WAT      O76405   1.841   5.548   4.995
25388WAT     H176406   1.851   5.451   5.016
25388WAT     H276407   1.867   5.602   5.075
25389WAT      O76408   5.664   6.084   7.841
25389WAT     H176409   5.599   6.142   7.889
25389WAT     H276410   5.698   6.014   7.903
25390WAT      O76411   5.801   1.866   7.728
25390WAT     H176412   5.714   1.881   7.773
25390WAT     H276413   5.786   1.821   7.640
25391WAT      O76414   2.404   6.282   2.702
25391WAT     H176415   2.491   6.259   2.745
25391WAT     H276416   2.419   6.352   2.631
25392WAT      O76417   7.556   2.488   6.305
25392WAT     H176418   7.462   2.477   6.271
25392WAT     H276419   7.612   2.412   6.273
25393WAT      O76420   7.781   2.104   9.585
25393WAT     H176421   7.859   2.105   9.522
25393WAT     H276422   7.700   2.138   9.537
25394WAT      O76423   2.206   8.587   0.414
25394WAT     H176424   2.267   8.528   0.468
25394WAT     H276425   2.137   8.627   0.475
25395WAT      O76426   6.680   5.064   0.733
25395WAT     H176427   6.674   5.160   0.760
25395WAT     H276428   6.614   5.045   0.660
25396WAT      O76429   9.661   9.362   7.932
25396WAT     H176430   9.612   9.333   8.014
25396WAT     H276431   9.737   9.300   7.914
25397WAT      O76432   8.075   6.354   7.319
25397WAT     H176433   8.093   6.365   7.416
25397WAT     H276434   7.977   6.342   7.304
25398WAT      O76435   8.894   3.420   2.133
25398WAT     H176436   8.840   3.341   2.162
25398WAT     H276437   8.837   3.482   2.079
25399WAT      O76438   4.458   6.376   3.628
25399WAT     H176439   4.436   6.406   3.721
25399WAT     H276440   4.498   6.284   3.632
25400WAT      O76441   0.447   8.304   6.235
25400WAT     H176442   0.356   8.340   6.256
25400WAT     H276443   0.481   8.252   6.313
25401WAT      O76444   4.363   0.338   1.140
25401WAT     H176445   4.406   0.248   1.145
25401WAT     H276446   4.297   0.347   1.215
25402WAT      O76447   6.181   6.816   9.863
25402WAT     H176448   6.173   6.862   9.774
25402WAT     H276449   6.261   6.851   9.912
25403WAT      O76450   4.596   6.109   3.459
25403WAT     H176451   4.610   6.098   3.557
25403WAT     H276452   4.603   6.020   3.414
25404WAT      O76453   2.720   6.670   5.241
25404WAT     H176454   2.763   6.734   5.176
25404WAT     H276455   2.787   6.642   5.309
25405WAT      O76456   9.752   8.079   3.224
25405WAT     H176457   9.847   8.106   3.216
25405WAT     H276458   9.710   8.126   3.302
25406WAT      O76459   0.283   1.348   3.033
25406WAT     H176460   0.186   1.341   3.058
25406WAT     H276461   0.291   1.396   2.945
25407WAT      O76462   0.261   8.153   5.492
25407WAT     H176463   0.315   8.135   5.574
25407WAT     H276464   0.206   8.236   5.505
25408WAT      O76465   8.961   5.115   1.473
25408WAT     H176466   9.028   5.055   1.516
25408WAT     H276467   8.874   5.066   1.464
25409WAT      O76468   6.111   2.286   3.228
25409WAT     H176469   6.059   2.255   3.307
25409WAT     H276470   6.204   2.251   3.233
25410WAT      O76471   1.025   2.410   4.485
25410WAT     H176472   0.929   2.386   4.498
25410WAT     H276473   1.051   2.393   4.390
25411WAT      O76474   8.526   8.378   5.498
25411WAT     H176475   8.447   8.396   5.557
25411WAT     H276476   8.535   8.280   5.485
25412WAT      O76477   9.173   0.463   3.545
25412WAT     H176478   9.263   0.501   3.523
25412WAT     H276479   9.147   0.396   3.476
25413WAT      O76480   0.300   7.551   9.638
25413WAT     H176481   0.245   7.470   9.617
25413WAT     H276482   0.262   7.631   9.590
25414WAT      O76483   5.526   6.345   1.858
25414WAT     H176484   5.455   6.385   1.800
25414WAT     H276485   5.613   6.345   1.809
25415WAT      O76486   2.593   5.498   5.110
25415WAT     H176487   2.530   5.435   5.065
25415WAT     H276488   2.606   5.579   5.053
25416WAT      O76489   1.201   4.646   0.046
25416WAT     H176490   1.188   4.634  -0.053
25416WAT     H276491   1.113   4.641   0.092
25417WAT      O76492   1.782   1.384   4.301
25417WAT     H176493   1.695   1.346   4.333
25417WAT     H276494   1.840   1.403   4.380
25418WAT      O76495   8.422   8.162   5.248
25418WAT     H176496   8.477   8.131   5.325
25418WAT     H276497   8.325   8.154   5.271
25419WAT      O76498   8.416   5.546   8.635
25419WAT     H176499   8.440   5.623   8.694
25419WAT     H276500   8.444   5.461   8.679
25420WAT      O76501   1.648   2.304   1.990
25420WAT     H176502   1.638   2.385   1.933
25420WAT     H276503   1.722   2.247   1.955
25421WAT      O76504   8.667   5.090   1.069
25421WAT     H176505   8.598   5.052   1.131
25421WAT     H276506   8.749   5.032   1.070
25422WAT      O76507   9.208   5.646   9.834
25422WAT     H176508   9.226   5.628   9.931
25422WAT     H276509   9.136   5.714   9.826
25423WAT      O76510   0.736   9.288   0.541
25423WAT     H176511   0.727   9.386   0.520
25423WAT     H276512   0.693   9.235   0.468
25424WAT      O76513   3.604   0.671   9.024
25424WAT     H176514   3.530   0.603   9.022
25424WAT     H276515   3.565   0.763   9.020
25425WAT      O76516   9.119   6.308   4.758
25425WAT     H176517   9.022   6.311   4.784
25425WAT     H276518   9.127   6.274   4.664
25426WAT      O76519   4.554   0.142   8.188
25426WAT     H176520   4.628   0.166   8.126
25426WAT     H276521   4.576   0.056   8.234
25427WAT      O76522   4.369   2.385   7.378
25427WAT     H176523   4.403   2.293   7.402
25427WAT     H276524   4.302   2.414   7.446
25428WAT      O76525   8.316   9.133   2.397
25428WAT     H176526   8.407   9.163   2.369
25428WAT     H276527   8.257   9.123   2.317
25429WAT      O76528   9.386   9.064   5.176
25429WAT     H176529   9.456   9.062   5.105
25429WAT     H276530   9.335   8.978   5.175
25430WAT      O76531   1.881   1.459   3.232
25430WAT     H176532   1.786   1.428   3.244
25430WAT     H276533   1.910   1.507   3.315
25431WAT      O76534   3.320   0.299   9.719
25431WAT     H176535   3.277   0.308   9.809
25431WAT     H276536   3.378   0.378   9.701
25432WAT      O76537   5.097   8.067   4.585
25432WAT     H176538   5.142   8.153   4.565
25432WAT     H276539   5.008   8.063   4.539
25433WAT      O76540   6.447   2.914   9.776
25433WAT     H176541   6.529   2.953   9.817
25433WAT     H276542   6.383   2.986   9.753
25434WAT      O76543   9.216   9.005   0.328
25434WAT     H176544   9.136   8.946   0.344
25434WAT     H276545   9.215   9.082   0.392
25435WAT      O76546   6.747   8.142   9.537
25435WAT     H176547   6.702   8.224   9.501
25435WAT     H276548   6.787   8.162   9.626
25436WAT      O76549   7.509   2.178   9.510
25436WAT     H176550   7.442   2.252   9.523
25436WAT     H276551   7.468   2.091   9.537
25437WAT      O76552   1.794   2.861   1.704
25437WAT     H176553   1.811   2.770   1.668
25437WAT     H276554   1.741   2.914   1.638
25438WAT      O76555   0.399   0.191   3.575
25438WAT     H176556   0.497   0.206   3.588
25438WAT     H276557   0.373   0.103   3.614
25439WAT      O76558   1.166   7.617   6.453
25439WAT     H176559   1.125   7.694   6.501
25439WAT     H276560   1.175   7.539   6.515
25440WAT      O76561   3.723   7.159   7.022
25440WAT     H176562   3.811   7.186   7.062
25440WAT     H276563   3.656   7.232   7.039
25441WAT      O76564   9.366   2.372   1.361
25441WAT     H176565   9.457   2.348   1.396
25441WAT     H276566   9.370   2.387   1.262
25442WAT      O76567   4.866   5.507   7.995
25442WAT     H176568   4.805   5.450   7.940
25442WAT     H276569   4.892   5.458   8.078
25443WAT      O76570   0.326   9.054   2.462
25443WAT     H176571   0.407   9.103   2.497
25443WAT     H276572   0.323   8.962   2.503
25444WAT      O76573   7.871   2.313   3.754
25444WAT     H176574   7.888   2.220   3.723
25444WAT     H276575   7.898   2.378   3.683
25445WAT      O76576   4.991   3.156   9.741
25445WAT     H176577   5.041   3.130   9.658
25445WAT     H276578   4.998   3.083   9.809
25446WAT      O76579   7.311   1.829   6.514
25446WAT     H176580   7.240   1.870   6.572
25446WAT     H276581   7.276   1.816   6.422
25447WAT      O76582   2.014   1.200   5.843
25447WAT     H176583   2.058   1.131   5.786
25447WAT     H276584   2.083   1.245   5.899
25448WAT      O76585   5.008   7.520   3.696
25448WAT     H176586   4.924   7.478   3.662
25448WAT     H276587   5.081   7.452   3.698
25449WAT      O76588   8.381   5.790   8.220
25449WAT     H176589   8.334   5.716   8.268
25449WAT     H276590   8.478   5.790   8.245
25450WAT      O76591   3.244   8.593   0.782
25450WAT     H176592   3.342   8.605   0.765
25450WAT     H276593   3.220   8.496   0.773
25451WAT      O76594   5.884   6.053   4.688
25451WAT     H176595   5.847   6.011   4.605
25451WAT     H276596   5.976   6.088   4.671
25452WAT      O76597   7.234   2.183   6.070
25452WAT     H176598   7.194   2.257   6.015
25452WAT     H276599   7.224   2.096   6.022
25453WAT      O76600   5.097   6.719   6.390
25453WAT     H176601   5.083   6.627   6.354
25453WAT     H276602   5.083   6.719   6.489
25454WAT      O76603   6.407   1.761   8.449
25454WAT     H176604   6.406   1.861   8.440
25454WAT     H276605   6.395   1.736   8.545
25455WAT      O76606   3.545   4.485   7.234
25455WAT     H176607   3.612   4.546   7.275
25455WAT     H276608   3.591   4.421   7.172
25456WAT      O76609   4.010   8.867   6.988
25456WAT     H176610   3.940   8.877   6.917
25456WAT     H276611   4.091   8.822   6.949
25457WAT      O76612   6.421   4.951   0.125
25457WAT     H176613   6.509   4.926   0.084
25457WAT     H276614   6.380   4.871   0.168
25458WAT      O76615   8.902   1.675   4.693
25458WAT     H176616   8.886   1.669   4.594
25458WAT     H276617   8.895   1.771   4.722
25459WAT      O76618   3.387   1.962   4.447
25459WAT     H176619   3.424   2.027   4.513
25459WAT     H276620   3.439   1.877   4.452
25460WAT      O76621   1.710   8.831   7.018
25460WAT     H176622   1.760   8.897   6.962
25460WAT     H276623   1.626   8.873   7.052
25461WAT      O76624   5.195   0.941   6.488
25461WAT     H176625   5.249   0.876   6.435
25461WAT     H276626   5.105   0.952   6.445
25462WAT      O76627   4.492   2.692   9.368
25462WAT     H176628   4.551   2.734   9.299
25462WAT     H276629   4.542   2.685   9.454
25463WAT      O76630   9.365   5.621   4.986
25463WAT     H176631   9.405   5.531   4.968
25463WAT     H276632   9.268   5.620   4.962
25464WAT      O76633   9.292   6.071   5.330
25464WAT     H176634   9.293   6.167   5.360
25464WAT     H276635   9.274   6.067   5.232
25465WAT      O76636   1.068   6.139   6.230
25465WAT     H176637   1.124   6.116   6.150
25465WAT     H276638   1.082   6.234   6.254
25466WAT      O76639   6.949   6.627   7.638
25466WAT     H176640   7.023   6.638   7.705
25466WAT     H276641   6.987   6.618   7.547
25467WAT      O76642   7.347   1.551   8.469
25467WAT     H176643   7.404   1.526   8.546
25467WAT     H276644   7.308   1.642   8.485
25468WAT      O76645   0.832   0.759   0.511
25468WAT     H176646   0.811   0.845   0.557
25468WAT     H276647   0.931   0.746   0.507
25469WAT      O76648   1.898   5.535   3.372
25469WAT     H176649   1.931   5.451   3.328
25469WAT     H276650   1.863   5.512   3.463
25470WAT      O76651   3.739   6.644   7.141
25470WAT     H176652   3.776   6.600   7.059
25470WAT     H276653   3.720   6.740   7.121
25471WAT      O76654   8.469   3.908   6.830
25471WAT     H176655   8.406   3.905   6.752
25471WAT     H276656   8.490   3.815   6.860
25472WAT      O76657   6.912   1.521   7.338
25472WAT     H176658   6.938   1.511   7.242
25472WAT     H276659   6.982   1.480   7.396
25473WAT      O76660   7.506   0.946   3.576
25473WAT     H176661   7.574   0.937   3.502
25473WAT     H276662   7.423   0.988   3.539
25474WAT      O76663   9.000   5.336   6.755
25474WAT     H176664   8.970   5.291   6.839
25474WAT     H276665   8.920   5.355   6.697
25475WAT      O76666   1.000   5.437   2.037
25475WAT     H176667   0.940   5.512   2.065
25475WAT     H276668   0.984   5.359   2.097
25476WAT      O76669   3.365   2.946   5.452
25476WAT     H176670   3.391   2.955   5.356
25476WAT     H276671   3.427   3.000   5.508
25477WAT      O76672   2.371   2.002   4.943
25477WAT     H176673   2.384   2.078   5.008
25477WAT     H276674   2.459   1.981   4.900
25478WAT      O76675   2.712   8.548   3.334
25478WAT     H176676   2.644   8.616   3.307
25478WAT     H276677   2.671   8.457   3.330
25479WAT      O76678   5.975   4.143   1.979
25479WAT     H176679   5.911   4.215   1.952
25479WAT     H276680   6.014   4.101   1.897
25480WAT      O76681   1.397   6.259   3.595
25480WAT     H176682   1.475   6.311   3.562
25480WAT     H276683   1.417   6.161   3.587
25481WAT      O76684   1.781   7.916   0.235
25481WAT     H176685   1.696   7.969   0.243
25481WAT     H276686   1.858   7.979   0.222
25482WAT      O76687   7.284   2.923   6.464
25482WAT     H176688   7.354   2.852   6.466
25482WAT     H276689   7.194   2.881   6.449
25483WAT      O76690   0.350   3.726   0.162
25483WAT     H176691   0.405   3.656   0.208
25483WAT     H276692   0.265   3.686   0.129
25484WAT      O76693   2.350   3.623   1.773
25484WAT     H176694   2.386   3.628   1.680
25484WAT     H276695   2.404   3.557   1.826
25485WAT      O76696   1.351   8.503   9.847
25485WAT     H176697   1.338   8.435   9.776
25485WAT     H276698   1.448   8.518   9.863
25486WAT      O76699   8.590   0.030   9.567
25486WAT     H176700   8.574   0.089   9.646
25486WAT     H276701   8.518  -0.040   9.563
25487WAT      O76702   3.309   1.190   7.629
25487WAT     H176703   3.265   1.154   7.711
25487WAT     H276704   3.301   1.290   7.628
25488WAT      O76705   7.074   3.267   8.546
25488WAT     H176706   7.136   3.345   8.542
25488WAT     H276707   7.011   3.270   8.469
25489WAT      O76708   2.974   3.689   2.472
25489WAT     H176709   3.064   3.704   2.430
25489WAT     H276710   2.921   3.627   2.414
25490WAT      O76711   7.644   4.876   7.458
25490WAT     H176712   7.737   4.911   7.442
25490WAT     H276713   7.641   4.779   7.436
25491WAT      O76714   9.712   8.367   5.106
25491WAT     H176715   9.755   8.315   5.180
25491WAT     H276716   9.613   8.371   5.120
25492WAT      O76717   2.448   3.101   3.497
25492WAT     H176718   2.357   3.138   3.514
25492WAT     H276719   2.501   3.101   3.582
25493WAT      O76720   8.962   3.913   1.114
25493WAT     H176721   8.887   3.883   1.172
25493WAT     H276722   9.048   3.873   1.146
25494WAT      O76723   3.861   6.517   4.127
25494WAT     H176724   3.951   6.528   4.168
25494WAT     H276725   3.854   6.426   4.085
25495WAT      O76726   3.395   1.046   5.331
25495WAT     H176727   3.401   0.988   5.250
25495WAT     H276728   3.412   1.141   5.305
25496WAT      O76729   1.023   3.529   0.643
25496WAT     H176730   1.045   3.604   0.580
25496WAT     H276731   1.050   3.555   0.736
25497WAT      O76732   5.285   2.651   1.924
25497WAT     H176733   5.210   2.628   1.985
25497WAT     H276734   5.302   2.574   1.862
25498WAT      O76735   8.258   7.703   3.988
25498WAT     H176736   8.160   7.716   3.979
25498WAT     H276737   8.278   7.657   4.075
25499WAT      O76738   5.425   0.054   6.629
25499WAT     H176739   5.405  -0.010   6.704
25499WAT     H276740   5.339   0.088   6.591
25500WAT      O76741   7.674   4.142   8.101
25500WAT     H176742   7.624   4.117   8.019
25500WAT     H276743   7.646   4.083   8.177
25501WAT      O76744   3.173   6.935   6.865
25501WAT     H176745   3.099   6.876   6.896
25501WAT     H276746   3.154   6.967   6.773
25502WAT      O76747   1.124   2.336   3.060
25502WAT     H176748   1.037   2.329   3.010
25502WAT     H276749   1.182   2.406   3.018
25503WAT      O76750   8.188   3.792   1.087
25503WAT     H176751   8.108   3.762   1.138
25503WAT     H276752   8.161   3.861   1.019
25504WAT      O76753   9.534   1.867   2.943
25504WAT     H176754   9.565   1.962   2.943
25504WAT     H276755   9.482   1.849   3.026
25505WAT      O76756   5.700   2.418   7.808
25505WAT     H176757   5.648   2.352   7.862
25505WAT     H276758   5.730   2.375   7.723
25506WAT      O76759   0.719   7.664   8.246
25506WAT     H176760   0.772   7.580   8.254
25506WAT     H276761   0.657   7.671   8.324
25507WAT      O76762   1.548   4.836   9.815
25507WAT     H176763   1.529   4.828   9.912
25507WAT     H276764   1.465   4.816   9.763
25508WAT      O76765   7.280   4.156   3.643
25508WAT     H176766   7.377   4.176   3.655
25508WAT     H276767   7.229   4.242   3.642
25509WAT      O76768   4.078   6.236   3.760
25509WAT     H176769   4.158   6.284   3.797
25509WAT     H276770   4.106   6.146   3.726
25510WAT      O76771   2.756   2.626   2.476
25510WAT     H176772   2.728   2.598   2.384
25510WAT     H276773   2.849   2.661   2.473
25511WAT      O76774   3.616   9.140   7.533
25511WAT     H176775   3.580   9.131   7.440
25511WAT     H276776   3.691   9.075   7.546
25512WAT      O76777   3.290   9.249   3.369
25512WAT     H176778   3.204   9.292   3.395
25512WAT     H276779   3.310   9.269   3.273
25513WAT      O76780   7.223   6.008   3.754
25513WAT     H176781   7.274   5.983   3.672
25513WAT     H276782   7.265   5.965   3.834
25514WAT      O76783   4.766   2.921   4.967
25514WAT     H176784   4.836   2.916   4.896
25514WAT     H276785   4.733   2.829   4.989
25515WAT      O76786   5.408   1.026   4.432
25515WAT     H176787   5.427   1.038   4.529
25515WAT     H276788   5.328   1.081   4.407
25516WAT      O76789   9.056   1.459   7.879
25516WAT     H176790   9.113   1.405   7.817
25516WAT     H276791   9.109   1.485   7.960
25517WAT      O76792   9.685   1.046   4.385
25517WAT     H176793   9.657   0.956   4.354
25517WAT     H276794   9.733   1.094   4.311
25518WAT      O76795   0.204   3.644   9.108
25518WAT     H176796   0.169   3.561   9.153
25518WAT     H276797   0.152   3.723   9.140
25519WAT      O76798   0.763   7.538   4.673
25519WAT     H176799   0.712   7.624   4.660
25519WAT     H276800   0.749   7.479   4.593
25520WAT      O76801   2.251   5.753   2.511
25520WAT     H176802   2.183   5.818   2.545
25520WAT     H276803   2.207   5.667   2.488
25521WAT      O76804   7.633   0.750   8.738
25521WAT     H176805   7.730   0.767   8.755
25521WAT     H276806   7.595   0.827   8.686
25522WAT      O76807   7.309   7.568   1.726
25522WAT     H176808   7.229   7.524   1.684
25522WAT     H276809   7.383   7.574   1.660
25523WAT      O76810   8.405   2.169   3.339
25523WAT     H176811   8.316   2.124   3.333
25523WAT     H276812   8.393   2.258   3.384
25524WAT      O76813   9.500   7.521   9.166
25524WAT     H176814   9.443   7.465   9.106
25524WAT     H276815   9.441   7.579   9.223
25525WAT      O76816   8.179   4.269   2.202
25525WAT     H176817   8.130   4.277   2.115
25525WAT     H276818   8.213   4.176   2.212
25526WAT      O76819   6.662   5.912   9.527
25526WAT     H176820   6.677   5.997   9.577
25526WAT     H276821   6.612   5.931   9.443
25527WAT      O76822   1.942   3.411   0.262
25527WAT     H176823   1.901   3.339   0.206
25527WAT     H276824   2.042   3.405   0.257
25528WAT      O76825   8.961   9.667   1.069
25528WAT     H176826   8.977   9.685   1.166
25528WAT     H276827   8.885   9.603   1.059
25529WAT      O76828   4.978   7.033   3.425
25529WAT     H176829   5.054   6.969   3.437
25529WAT     H276830   4.955   7.041   3.328
25530WAT      O76831   9.863   8.857   5.789
25530WAT     H176832   9.947   8.886   5.744
25530WAT     H276833   9.827   8.775   5.743
25531WAT      O76834   2.473   1.317   7.870
25531WAT     H176835   2.479   1.231   7.920
25531WAT     H276836   2.490   1.301   7.773
25532WAT      O76837   1.041   4.439   5.662
25532WAT     H176838   1.112   4.508   5.675
25532WAT     H276839   1.068   4.376   5.590
25533WAT      O76840   9.542   1.257   8.401
25533WAT     H176841   9.463   1.312   8.429
25533WAT     H276842   9.549   1.176   8.459
25534WAT      O76843   5.283   6.372   7.726
25534WAT     H176844   5.294   6.356   7.824
25534WAT     H276845   5.206   6.318   7.692
25535WAT      O76846   5.405   7.310   7.107
25535WAT     H176847   5.440   7.403   7.124
25535WAT     H276848   5.439   7.248   7.178
25536WAT      O76849   8.897   4.172   4.067
25536WAT     H176850   8.850   4.087   4.045
25536WAT     H276851   8.982   4.151   4.116
25537WAT      O76852   9.167   4.152   4.965
25537WAT     H176853   9.125   4.240   4.939
25537WAT     H276854   9.226   4.166   5.044
25538WAT      O76855   2.212   6.941   2.736
25538WAT     H176856   2.118   6.909   2.746
25538WAT     H276857   2.242   6.985   2.820
25539WAT      O76858   7.606   1.245   0.985
25539WAT     H176859   7.677   1.307   1.017
25539WAT     H276860   7.618   1.155   1.028
25540WAT      O76861   9.158   6.447   5.845
25540WAT     H176862   9.077   6.495   5.877
25540WAT     H276863   9.145   6.348   5.855
25541WAT      O76864   6.468   2.197   7.045
25541WAT     H176865   6.381   2.150   7.062
25541WAT     H276866   6.479   2.270   7.112
25542WAT      O76867   4.978   3.529   0.539
25542WAT     H176868   4.902   3.593   0.525
25542WAT     H276869   4.957   3.442   0.494
25543WAT      O76870   0.747   0.704   6.381
25543WAT     H176871   0.777   0.706   6.476
25543WAT     H276872   0.810   0.648   6.327
25544WAT      O76873   8.761   3.995   0.113
25544WAT     H176874   8.740   3.904   0.150
25544WAT     H276875   8.836   3.987   0.047
25545WAT      O76876   1.319   4.376   5.975
25545WAT     H176877   1.243   4.362   6.038
25545WAT     H276878   1.330   4.474   5.957
25546WAT      O76879   7.840   6.916   3.264
25546WAT     H176880   7.782   6.958   3.333
25546WAT     H276881   7.855   6.980   3.188
25547WAT      O76882   6.745   9.485   8.554
25547WAT     H176883   6.798   9.497   8.470
25547WAT     H276884   6.794   9.424   8.616
25548WAT      O76885   2.779   7.599   0.254
25548WAT     H176886   2.834   7.634   0.330
25548WAT     H276887   2.839   7.560   0.184
25549WAT      O76888   6.416   7.069   0.941
25549WAT     H176889   6.461   7.104   0.859
25549WAT     H276890   6.482   7.021   0.998
25550WAT      O76891   9.153   3.203   6.494
25550WAT     H176892   9.091   3.146   6.547
25550WAT     H276893   9.102   3.281   6.457
25551WAT      O76894   4.037   6.835   6.904
25551WAT     H176895   3.959   6.772   6.907
25551WAT     H276896   4.029   6.894   6.824
25552WAT      O76897   7.930   7.509   0.102
25552WAT     H176898   7.846   7.547   0.065
25552WAT     H276899   7.968   7.442   0.037
25553WAT      O76900   9.866   0.864   8.768
25553WAT     H176901   9.776   0.825   8.750
25553WAT     H276902   9.859   0.963   8.773
25554WAT      O76903   3.533   1.604   6.521
25554WAT     H176904   3.487   1.610   6.432
25554WAT     H276905   3.491   1.669   6.585
25555WAT      O76906   8.081   6.860   4.756
25555WAT     H176907   8.163   6.855   4.813
25555WAT     H276908   8.025   6.937   4.787
25556WAT      O76909   3.559   2.328   4.782
25556WAT     H176910   3.492   2.402   4.790
25556WAT     H276911   3.629   2.339   4.853
25557WAT      O76912   7.414   0.727   1.449
25557WAT     H176913   7.509   0.695   1.443
25557WAT     H276914   7.407   0.794   1.522
25558WAT      O76915   3.229   5.637   2.274
25558WAT     H176916   3.239   5.573   2.350
25558WAT     H276917   3.295   5.615   2.202
25559WAT      O76918   6.607   0.431   9.314
25559WAT     H176919   6.704   0.410   9.325
25559WAT     H276920   6.596   0.525   9.283
25560WAT      O76921   7.934   3.876   4.681
25560WAT     H176922   7.857   3.874   4.617
25560WAT     H276923   8.015   3.838   4.638
25561WAT      O76924   8.777   7.606   6.854
25561WAT     H176925   8.706   7.624   6.922
25561WAT     H276926   8.861   7.577   6.900
25562WAT      O76927   7.808   1.418   8.149
25562WAT     H176928   7.848   1.476   8.077
25562WAT     H276929   7.787   1.475   8.228
25563WAT      O76930   2.950   6.792   4.753
25563WAT     H176931   2.945   6.892   4.753
25563WAT     H276932   2.890   6.755   4.682
25564WAT      O76933   3.871   4.931   3.849
25564WAT     H176934   3.855   5.019   3.804
25564WAT     H276935   3.941   4.881   3.799
25565WAT      O76936   7.289   8.506   4.658
25565WAT     H176937   7.218   8.527   4.725
25565WAT     H276938   7.370   8.472   4.705
25566WAT      O76939   6.322   3.571   5.255
25566WAT     H176940   6.246   3.546   5.315
25566WAT     H276941   6.365   3.488   5.218
25567WAT      O76942   4.743   6.421   8.736
25567WAT     H176943   4.841   6.439   8.744
25567WAT     H276944   4.728   6.322   8.737
25568WAT      O76945   7.474   4.761   9.086
25568WAT     H176946   7.522   4.676   9.108
25568WAT     H276947   7.377   4.743   9.072
25569WAT      O76948   6.739   9.475   4.307
25569WAT     H176949   6.712   9.571   4.296
25569WAT     H276950   6.758   9.436   4.216
25570WAT      O76951   4.532   4.345   0.937
25570WAT     H176952   4.607   4.280   0.921
25570WAT     H276953   4.445   4.303   0.912
25571WAT      O76954   7.483   6.428   1.407
25571WAT     H176955   7.579   6.404   1.417
25571WAT     H276956   7.464   6.451   1.312
25572WAT      O76957   9.309   9.422   7.787
25572WAT     H176958   9.282   9.429   7.884
25572WAT     H276959   9.387   9.482   7.770
25573WAT      O76960   9.352   4.782   8.813
25573WAT     H176961   9.381   4.866   8.858
25573WAT     H276962   9.269   4.800   8.760
25574WAT      O76963   3.259   5.022   2.769
25574WAT     H176964   3.293   5.095   2.829
25574WAT     H276965   3.257   5.055   2.675
25575WAT      O76966   3.484   4.887   8.810
25575WAT     H176967   3.555   4.884   8.740
25575WAT     H276968   3.416   4.957   8.786
25576WAT      O76969   3.747   7.703   7.520
25576WAT     H176970   3.780   7.706   7.615
25576WAT     H276971   3.661   7.752   7.513
25577WAT      O76972   3.662   0.469   5.487
25577WAT     H176973   3.747   0.522   5.489
25577WAT     H276974   3.675   0.387   5.430
25578WAT      O76975   1.469   9.184   6.422
25578WAT     H176976   1.387   9.173   6.478
25578WAT     H276977   1.539   9.231   6.476
25579WAT      O76978   2.983   2.348   4.667
25579WAT     H176979   2.946   2.288   4.737
25579WAT     H276980   3.040   2.295   4.604
25580WAT      O76981   8.380   5.931   6.152
25580WAT     H176982   8.331   5.990   6.087
25580WAT     H276983   8.411   5.849   6.104
25581WAT      O76984   8.568   9.429   2.680
25581WAT     H176985   8.500   9.449   2.751
25581WAT     H276986   8.625   9.510   2.666
25582WAT      O76987   9.221   1.815   6.706
25582WAT     H176988   9.137   1.857   6.671
25582WAT     H276989   9.206   1.783   6.799
25583WAT      O76990   0.968   4.845   6.185
25583WAT     H176991   0.879   4.889   6.192
25583WAT     H276992   1.032   4.906   6.139
25584WAT      O76993   7.986   3.773   6.249
25584WAT     H176994   7.973   3.863   6.290
25584WAT     H276995   8.058   3.724   6.298
25585WAT      O76996   7.091   1.648   3.906
25585WAT     H176997   7.133   1.557   3.910
25585WAT     H276998   7.121   1.702   3.984
25586WAT      O76999   4.342   9.380   9.033
25586WAT     H177000   4.243   9.390   9.022
25586WAT     H277001   4.365   9.377   9.130
25587WAT      O77002   8.657   2.785   2.540
25587WAT     H177003   8.639   2.882   2.557
25587WAT     H277004   8.715   2.749   2.613
25588WAT      O77005   6.621   7.649   5.559
25588WAT     H177006   6.676   7.567   5.542
25588WAT     H277007   6.598   7.692   5.471
25589WAT      O77008   3.380   5.111   1.183
25589WAT     H177009   3.421   5.149   1.101
25589WAT     H277010   3.304   5.051   1.159
25590WAT      O77011   0.091   0.017   5.440
25590WAT     H177012   0.051  -0.061   5.392
25590WAT     H277013   0.148   0.069   5.378
25591WAT      O77014   0.916   7.663   7.392
25591WAT     H177015   0.987   7.727   7.363
25591WAT     H277016   0.894   7.678   7.488
25592WAT      O77017   7.033   4.145   4.167
25592WAT     H177018   7.091   4.101   4.235
25592WAT     H277019   6.962   4.082   4.138
25593WAT      O77020   8.038   3.101   2.074
25593WAT     H177021   8.024   3.198   2.095
25593WAT     H277022   8.085   3.093   1.986
25594WAT      O77023   4.726   7.526   8.056
25594WAT     H177024   4.824   7.545   8.060
25594WAT     H277025   4.680   7.597   8.002
25595WAT      O77026   5.956   8.201   3.971
25595WAT     H177027   5.861   8.174   3.982
25595WAT     H277028   5.967   8.296   3.999
25596WAT      O77029   9.241   2.121   7.000
25596WAT     H177030   9.194   2.140   7.087
25596WAT     H277031   9.333   2.160   7.003
25597WAT      O77032   4.080   9.280   3.868
25597WAT     H177033   4.066   9.181   3.865
25597WAT     H277034   4.159   9.300   3.927
25598WAT      O77035   1.115   1.139   7.242
25598WAT     H177036   1.108   1.238   7.227
25598WAT     H277037   1.074   1.091   7.164
25599WAT      O77038   7.278   4.303   0.018
25599WAT     H177039   7.225   4.387   0.008
25599WAT     H277040   7.351   4.317   0.085
25600WAT      O77041   6.081   4.449   6.316
25600WAT     H177042   6.066   4.365   6.263
25600WAT     H277043   6.126   4.425   6.402
25601WAT      O77044   2.453   7.240   8.902
25601WAT     H177045   2.436   7.337   8.918
25601WAT     H277046   2.430   7.188   8.984
25602WAT      O77047   5.456   2.697   8.275
25602WAT     H177048   5.416   2.628   8.335
25602WAT     H277049   5.531   2.657   8.222
25603WAT      O77050   0.211   4.289   9.251
25603WAT     H177051   0.137   4.354   9.233
25603WAT     H277052   0.178   4.218   9.313
25604WAT      O77053   6.165   3.089   6.827
25604WAT     H177054   6.238   3.146   6.790
25604WAT     H277055   6.082   3.144   6.838
25605WAT      O77056   3.395   3.834   6.410
25605WAT     H177057   3.417   3.801   6.318
25605WAT     H277058   3.434   3.926   6.422
25606WAT      O77059   4.383   2.783   4.830
25606WAT     H177060   4.371   2.881   4.840
25606WAT     H277061   4.462   2.753   4.884
25607WAT      O77062   6.235   2.016   2.481
25607WAT     H177063   6.333   2.023   2.465
25607WAT     H277064   6.201   2.100   2.523
25608WAT      O77065   2.611   5.476   0.565
25608WAT     H177066   2.660   5.426   0.637
25608WAT     H277067   2.560   5.411   0.508
25609WAT      O77068   7.593   7.886   0.436
25609WAT     H177069   7.675   7.910   0.488
25609WAT     H277070   7.609   7.800   0.388
25610WAT      O77071   6.036   6.684   2.770
25610WAT     H177072   6.012   6.653   2.862
25610WAT     H277073   5.989   6.770   2.750
25611WAT      O77074   6.676   8.058   7.145
25611WAT     H177075   6.645   8.066   7.051
25611WAT     H277076   6.748   7.989   7.151
25612WAT      O77077   5.082   2.891   8.122
25612WAT     H177078   5.003   2.891   8.061
25612WAT     H277079   5.156   2.837   8.080
25613WAT      O77080   4.480   0.379   4.714
25613WAT     H177081   4.469   0.424   4.803
25613WAT     H277082   4.510   0.285   4.728
25614WAT      O77083   5.077   4.241   4.957
25614WAT     H177084   4.994   4.247   5.013
25614WAT     H277085   5.061   4.285   4.869
25615WAT      O77086   2.559   5.790   6.715
25615WAT     H177087   2.600   5.736   6.789
25615WAT     H277088   2.560   5.887   6.741
25616WAT      O77089   2.392   8.346   5.199
25616WAT     H177090   2.428   8.291   5.123
25616WAT     H277091   2.389   8.290   5.282
25617WAT      O77092   9.357   4.386   9.653
25617WAT     H177093   9.450   4.396   9.616
25617WAT     H277094   9.292   4.386   9.577
25618WAT      O77095   7.438   5.438   7.905
25618WAT     H177096   7.519   5.475   7.859
25618WAT     H277097   7.466   5.383   7.983
25619WAT      O77098   8.223   6.179   7.664
25619WAT     H177099   8.309   6.188   7.613
25619WAT     H277100   8.161   6.252   7.636
25620WAT      O77101   5.650   9.465   9.790
25620WAT     H177102   5.696   9.547   9.823
25620WAT     H277103   5.555   9.465   9.823
25621WAT      O77104   7.197   6.104   1.291
25621WAT     H177105   7.100   6.108   1.265
25621WAT     H277106   7.215   6.170   1.364
25622WAT      O77107   8.373   7.119   3.456
25622WAT     H177108   8.283   7.149   3.488
25622WAT     H277109   8.398   7.034   3.501
25623WAT      O77110   4.159   7.875   3.541
25623WAT     H177111   4.211   7.794   3.514
25623WAT     H277112   4.082   7.848   3.599
25624WAT      O77113   9.278   4.849   9.178
25624WAT     H177114   9.337   4.925   9.151
25624WAT     H277115   9.332   4.782   9.230
25625WAT      O77116   4.813   3.945   6.164
25625WAT     H177117   4.885   3.880   6.142
25625WAT     H277118   4.806   4.013   6.090
25626WAT      O77119   5.001   3.535   2.680
25626WAT     H177120   5.095   3.518   2.648
25626WAT     H277121   4.954   3.595   2.615
25627WAT      O77122   1.967   3.550   6.473
25627WAT     H177123   2.012   3.466   6.443
25627WAT     H277124   1.869   3.535   6.479
25628WAT      O77125   0.555   1.357   9.457
25628WAT     H177126   0.557   1.457   9.455
25628WAT     H277127   0.520   1.323   9.370
25629WAT      O77128   3.084   1.021   7.020
25629WAT     H177129   3.076   0.999   6.923
25629WAT     H277130   3.010   0.978   7.070
25630WAT      O77131   4.040   9.390   9.425
25630WAT     H177132   4.091   9.324   9.481
25630WAT     H277133   4.037   9.358   9.330
25631WAT      O77134   8.580   6.927   6.647
25631WAT     H177135   8.510   6.857   6.656
25631WAT     H277136   8.539   7.012   6.613
25632WAT      O77137   6.578   5.990   0.430
25632WAT     H177138   6.505   6.056   0.410
25632WAT     H277139   6.635   6.026   0.505
25633WAT      O77140   0.799   3.378   3.220
25633WAT     H177141   0.812   3.447   3.149
25633WAT     H277142   0.773   3.423   3.306
25634WAT      O77143   3.643   3.541   2.872
25634WAT     H177144   3.696   3.558   2.954
25634WAT     H277145   3.553   3.585   2.880
25635WAT      O77146   5.518   8.925   7.645
25635WAT     H177147   5.500   8.905   7.549
25635WAT     H277148   5.483   8.852   7.703
25636WAT      O77149   0.799   2.625   7.050
25636WAT     H177150   0.757   2.663   7.132
25636WAT     H277151   0.868   2.689   7.015
25637WAT      O77152   1.694   1.083   2.601
25637WAT     H177153   1.692   1.163   2.542
25637WAT     H277154   1.761   1.098   2.674
25638WAT      O77155   9.075   7.452   1.041
25638WAT     H177156   8.978   7.443   1.060
25638WAT     H277157   9.088   7.493   0.950
25639WAT      O77158   0.910   4.428   0.373
25639WAT     H177159   0.842   4.373   0.420
25639WAT     H277160   1.002   4.397   0.399
25640WAT      O77161   2.852   6.778   3.300
25640WAT     H177162   2.923   6.710   3.282
25640WAT     H277163   2.885   6.843   3.369
25641WAT      O77164   1.728   7.072   0.105
25641WAT     H177165   1.704   6.977   0.087
25641WAT     H277166   1.663   7.133   0.058
25642WAT      O77167   3.640   8.531   2.368
25642WAT     H177168   3.595   8.621   2.371
25642WAT     H277169   3.612   8.478   2.448
25643WAT      O77170   1.745   4.034   7.753
25643WAT     H177171   1.747   4.095   7.833
25643WAT     H277172   1.651   4.005   7.737
25644WAT      O77173   0.570   2.951   2.858
25644WAT     H177174   0.638   2.955   2.784
25644WAT     H277175   0.602   3.004   2.936
25645WAT      O77176   0.123   4.220   8.530
25645WAT     H177177   0.046   4.262   8.579
25645WAT     H277178   0.089   4.176   8.447
25646WAT      O77179   3.140   7.305   8.979
25646WAT     H177180   3.050   7.338   9.007
25646WAT     H277181   3.130   7.231   8.913
25647WAT      O77182   1.345   8.752   6.199
25647WAT     H177183   1.445   8.759   6.193
25647WAT     H277184   1.306   8.842   6.220
25648WAT      O77185   6.747   8.143   6.844
25648WAT     H177186   6.671   8.147   6.780
25648WAT     H277187   6.820   8.204   6.814
25649WAT      O77188   3.739   7.604   5.503
25649WAT     H177189   3.727   7.674   5.432
25649WAT     H277190   3.690   7.521   5.476
25650WAT      O77191   4.897   6.967   2.684
25650WAT     H177192   4.936   6.904   2.616
25650WAT     H277193   4.863   7.048   2.637
25651WAT      O77194   3.463   0.113   3.318
25651WAT     H177195   3.495   0.107   3.413
25651WAT     H277196   3.473   0.207   3.285
25652WAT      O77197   3.662   1.788   5.022
25652WAT     H177198   3.652   1.839   5.107
25652WAT     H277199   3.754   1.750   5.016
25653WAT      O77200   3.234   9.713   7.769
25653WAT     H177201   3.186   9.724   7.856
25653WAT     H277202   3.260   9.617   7.757
25654WAT      O77203   0.325   5.502   6.632
25654WAT     H177204   0.239   5.523   6.586
25654WAT     H277205   0.373   5.429   6.582
25655WAT      O77206   2.167   1.829   5.821
25655WAT     H177207   2.141   1.798   5.729
25655WAT     H277208   2.150   1.928   5.827
25656WAT      O77209   7.771   5.937   8.224
25656WAT     H177210   7.742   6.004   8.291
25656WAT     H277211   7.700   5.925   8.155
25657WAT      O77212   8.294   2.507   8.337
25657WAT     H177213   8.315   2.580   8.401
25657WAT     H277214   8.197   2.511   8.313
25658WAT      O77215   5.339   1.207   1.642
25658WAT     H177216   5.429   1.198   1.600
25658WAT     H277217   5.343   1.173   1.736
25659WAT      O77218   6.253   7.191   7.532
25659WAT     H177219   6.312   7.272   7.538
25659WAT     H277220   6.264   7.149   7.442
25660WAT      O77221   5.865   3.137   8.417
25660WAT     H177222   5.847   3.131   8.516
25660WAT     H277223   5.796   3.195   8.374
25661WAT      O77224   6.298   3.274   2.455
25661WAT     H177225   6.242   3.348   2.493
25661WAT     H277226   6.302   3.283   2.355
25662WAT      O77227   0.030   4.373   2.299
25662WAT     H177228   0.123   4.388   2.264
25662WAT     H277229  -0.021   4.316   2.235
25663WAT      O77230   6.892   7.377   8.928
25663WAT     H177231   6.923   7.335   9.013
25663WAT     H277232   6.969   7.388   8.865
25664WAT      O77233   7.574   3.347   2.337
25664WAT     H177234   7.526   3.393   2.262
25664WAT     H277235   7.639   3.410   2.379
25665WAT      O77236   5.764   1.033   4.430
25665WAT     H177237   5.855   1.036   4.390
25665WAT     H277238   5.696   1.020   4.357
25666WAT      O77239   4.404   2.630   6.160
25666WAT     H177240   4.483   2.640   6.221
25666WAT     H277241   4.320   2.634   6.213
25667WAT      O77242   5.352   3.580   5.972
25667WAT     H177243   5.254   3.566   5.963
25667WAT     H277244   5.378   3.576   6.069
25668WAT      O77245   1.300   1.720   3.832
25668WAT     H177246   1.382   1.770   3.859
25668WAT     H277247   1.327   1.630   3.796
25669WAT      O77248   7.161   0.871   7.436
25669WAT     H177249   7.244   0.927   7.437
25669WAT     H277250   7.176   0.790   7.379
25670WAT      O77251   6.375   8.989   3.731
25670WAT     H177252   6.433   8.914   3.699
25670WAT     H277253   6.291   8.993   3.676
25671WAT      O77254   1.914   9.792   5.802
25671WAT     H177255   1.858   9.873   5.784
25671WAT     H277256   2.010   9.815   5.787
25672WAT      O77257   1.244   6.949   7.544
25672WAT     H177258   1.239   6.955   7.644
25672WAT     H277259   1.178   6.882   7.511
25673WAT      O77260   2.807   2.320   0.521
25673WAT     H177261   2.783   2.369   0.437
25673WAT     H277262   2.724   2.286   0.565
25674WAT      O77263   2.538   7.619   8.236
25674WAT     H177264   2.523   7.717   8.221
25674WAT     H277265   2.541   7.572   8.148
25675WAT      O77266   1.328   4.641   2.502
25675WAT     H177267   1.246   4.678   2.545
25675WAT     H277268   1.320   4.542   2.496
25676WAT      O77269   9.121   6.654   9.852
25676WAT     H177270   9.124   6.657   9.752
25676WAT     H277271   9.054   6.587   9.881
25677WAT      O77272   9.704   2.203   3.573
25677WAT     H177273   9.757   2.118   3.573
25677WAT     H277274   9.627   2.195   3.637
25678WAT      O77275   8.899   4.610   4.161
25678WAT     H177276   8.823   4.669   4.135
25678WAT     H277277   8.928   4.556   4.082
25679WAT      O77278   0.117   6.852   1.177
25679WAT     H177279   0.074   6.772   1.134
25679WAT     H277280   0.064   6.934   1.154
25680WAT      O77281   4.136   3.252   2.110
25680WAT     H177282   4.182   3.283   2.027
25680WAT     H277283   4.200   3.201   2.167
25681WAT      O77284   3.414   8.503   7.684
25681WAT     H177285   3.315   8.498   7.693
25681WAT     H277286   3.443   8.448   7.606
25682WAT      O77287   8.086   0.790   2.816
25682WAT     H177288   8.039   0.860   2.869
25682WAT     H277289   8.161   0.831   2.765
25683WAT      O77290   7.165   6.298   0.329
25683WAT     H177291   7.254   6.264   0.300
25683WAT     H277292   7.097   6.226   0.321
25684WAT      O77293   6.242   3.798   0.605
25684WAT     H177294   6.162   3.823   0.659
25684WAT     H277295   6.322   3.789   0.665
25685WAT      O77296   4.580   9.810   9.750
25685WAT     H177297   4.532   9.867   9.684
25685WAT     H277298   4.663   9.857   9.781
25686WAT      O77299   4.637   1.154   2.232
25686WAT     H177300   4.588   1.169   2.318
25686WAT     H277301   4.579   1.179   2.155
25687WAT      O77302   9.733   8.525   3.589
25687WAT     H177303   9.712   8.618   3.557
25687WAT     H277304   9.827   8.522   3.624
25688WAT      O77305   8.130   0.906   6.205
25688WAT     H177306   8.171   0.816   6.221
25688WAT     H277307   8.174   0.974   6.263
25689WAT      O77308   6.839   1.376   5.694
25689WAT     H177309   6.906   1.302   5.694
25689WAT     H277310   6.873   1.451   5.637
25690WAT      O77311   1.089   4.064   3.402
25690WAT     H177312   1.135   4.117   3.331
25690WAT     H277313   1.106   4.107   3.491
25691WAT      O77314   7.823   5.569   9.067
25691WAT     H177315   7.818   5.480   9.020
25691WAT     H277316   7.913   5.578   9.111
25692WAT      O77317   9.149   2.609   4.554
25692WAT     H177318   9.241   2.589   4.586
25692WAT     H277319   9.140   2.707   4.536
25693WAT      O77320   9.041   0.523   4.624
25693WAT     H177321   9.023   0.617   4.593
25693WAT     H277322   9.130   0.493   4.588
25694WAT      O77323   0.809   2.374   9.863
25694WAT     H177324   0.851   2.432   9.933
25694WAT     H277325   0.710   2.370   9.878
25695WAT      O77326   3.636   0.040   1.085
25695WAT     H177327   3.714   0.033   1.023
25695WAT     H277328   3.590  -0.049   1.089
25696WAT      O77329   2.863   7.302   3.132
25696WAT     H177330   2.841   7.395   3.104
25696WAT     H277331   2.787   7.242   3.108
25697WAT      O77332   7.951   8.391   0.716
25697WAT     H177333   7.909   8.343   0.793
25697WAT     H277334   7.936   8.340   0.632
25698WAT      O77335   5.785   3.769   2.443
25698WAT     H177336   5.860   3.835   2.444
25698WAT     H277337   5.714   3.800   2.380
25699WAT      O77338   6.880   0.486   7.673
25699WAT     H177339   6.850   0.565   7.727
25699WAT     H277340   6.811   0.465   7.603
25700WAT      O77341   5.618   2.227   8.912
25700WAT     H177342   5.710   2.255   8.885
25700WAT     H277343   5.600   2.134   8.879
25701WAT      O77344   5.463   2.580   7.734
25701WAT     H177345   5.380   2.525   7.742
25701WAT     H277346   5.450   2.651   7.665
25702WAT      O77347   9.668   3.601   6.974
25702WAT     H177348   9.679   3.597   6.874
25702WAT     H277349   9.747   3.558   7.017
25703WAT      O77350   4.183   5.597   3.966
25703WAT     H177351   4.263   5.560   3.918
25703WAT     H277352   4.171   5.693   3.942
25704WAT      O77353   8.595   7.259   2.060
25704WAT     H177354   8.686   7.227   2.084
25704WAT     H277355   8.529   7.228   2.128
25705WAT      O77356   2.136   8.483   7.234
25705WAT     H177357   2.104   8.479   7.140
25705WAT     H277358   2.231   8.514   7.236
25706WAT      O77359   5.147   1.638   2.695
25706WAT     H177360   5.182   1.703   2.762
25706WAT     H277361   5.145   1.546   2.736
25707WAT      O77362   0.976   7.065   8.628
25707WAT     H177363   1.035   7.005   8.574
25707WAT     H277364   1.028   7.146   8.656
25708WAT      O77365   4.979   5.586   1.783
25708WAT     H177366   4.936   5.538   1.860
25708WAT     H277367   5.049   5.527   1.742
25709WAT      O77368   2.386   1.256   4.629
25709WAT     H177369   2.313   1.314   4.592
25709WAT     H277370   2.474   1.302   4.617
25710WAT      O77371   2.658   5.346   6.610
25710WAT     H177372   2.705   5.417   6.556
25710WAT     H277373   2.682   5.357   6.707
25711WAT      O77374   1.926   1.293   6.976
25711WAT     H177375   1.966   1.277   7.066
25711WAT     H277376   1.922   1.391   6.959
25712WAT      O77377   1.796   0.767   6.950
25712WAT     H177378   1.753   0.778   7.039
25712WAT     H277379   1.892   0.739   6.962
25713WAT      O77380   9.613   9.727   4.363
25713WAT     H177381   9.667   9.712   4.446
25713WAT     H277382   9.516   9.732   4.388
25714WAT      O77383   9.462   9.760   2.905
25714WAT     H177384   9.412   9.838   2.867
25714WAT     H277385   9.489   9.698   2.832
25715WAT      O77386   1.463   8.228   0.778
25715WAT     H177387   1.490   8.185   0.692
25715WAT     H277388   1.545   8.242   0.835
25716WAT      O77389   7.046   5.918   2.058
25716WAT     H177390   7.122   5.979   2.036
25716WAT     H277391   7.031   5.918   2.156
25717WAT      O77392   8.538   5.651   7.035
25717WAT     H177393   8.615   5.587   7.037
25717WAT     H277394   8.568   5.740   7.071
25718WAT      O77395   3.692   1.899   4.159
25718WAT     H177396   3.728   1.863   4.245
25718WAT     H277397   3.600   1.862   4.143
25719WAT      O77398   1.392   9.632   7.759
25719WAT     H177399   1.455   9.658   7.685
25719WAT     H277400   1.308   9.686   7.751
25720WAT      O77401   4.341   7.913   3.882
25720WAT     H177402   4.361   7.930   3.785
25720WAT     H277403   4.401   7.968   3.939
25721WAT      O77404   4.180   0.737   7.144
25721WAT     H177405   4.134   0.821   7.172
25721WAT     H277406   4.113   0.664   7.132
25722WAT      O77407   4.012   3.472   9.772
25722WAT     H177408   4.050   3.558   9.805
25722WAT     H277409   4.044   3.455   9.679
25723WAT      O77410   7.925   9.425   0.658
25723WAT     H177411   7.834   9.439   0.698
25723WAT     H277412   7.972   9.513   0.651
25724WAT      O77413   8.646   9.543   0.785
25724WAT     H177414   8.655   9.476   0.711
25724WAT     H277415   8.561   9.594   0.775
25725WAT      O77416   2.721   4.976   3.405
25725WAT     H177417   2.782   4.920   3.461
25725WAT     H277418   2.714   5.068   3.444
25726WAT      O77419   7.395   6.086   6.677
25726WAT     H177420   7.480   6.082   6.730
25726WAT     H277421   7.405   6.153   6.603
25727WAT      O77422   4.493   2.933   0.733
25727WAT     H177423   4.494   2.842   0.775
25727WAT     H277424   4.450   2.998   0.795
25728WAT      O77425   3.720   7.671   2.283
25728WAT     H177426   3.620   7.671   2.278
25728WAT     H277427   3.753   7.762   2.306
25729WAT      O77428   8.086   7.277   2.581
25729WAT     H177429   8.077   7.181   2.609
25729WAT     H277430   8.170   7.287   2.526
25730WAT      O77431   9.104   3.083   5.783
25730WAT     H177432   9.203   3.078   5.767
25730WAT     H277433   9.087   3.115   5.876
25731WAT      O77434   0.969   5.719   4.428
25731WAT     H177435   1.037   5.749   4.361
25731WAT     H277436   0.901   5.661   4.383
25732WAT      O77437   5.803   4.283   4.319
25732WAT     H177438   5.781   4.192   4.284
25732WAT     H277439   5.881   4.276   4.382
25733WAT      O77440   5.489   1.914   9.174
25733WAT     H177441   5.511   1.891   9.079
25733WAT     H277442   5.571   1.903   9.231
25734WAT      O77443   3.311   4.303   7.656
25734WAT     H177444   3.372   4.354   7.595
25734WAT     H277445   3.330   4.329   7.751
25735WAT      O77446   6.792   6.728   5.177
25735WAT     H177447   6.844   6.814   5.182
25735WAT     H277448   6.824   6.675   5.098
25736WAT      O77449   8.724   9.010   7.323
25736WAT     H177450   8.812   8.998   7.277
25736WAT     H277451   8.683   9.097   7.296
25737WAT      O77452   7.570   3.384   8.690
25737WAT     H177453   7.663   3.355   8.712
25737WAT     H277454   7.527   3.422   8.772
25738WAT      O77455   2.517   1.636   6.686
25738WAT     H177456   2.474   1.571   6.750
25738WAT     H277457   2.609   1.657   6.718
25739WAT      O77458   8.075   4.463   7.388
25739WAT     H177459   8.013   4.394   7.425
25739WAT     H277460   8.150   4.417   7.340
25740WAT      O77461   1.039   7.249   1.217
25740WAT     H177462   0.962   7.191   1.192
25740WAT     H277463   1.124   7.207   1.185
25741WAT      O77464   6.226   1.118   5.652
25741WAT     H177465   6.282   1.074   5.582
25741WAT     H277466   6.199   1.209   5.620
25742WAT      O77467   0.005   7.371   1.318
25742WAT     H177468   0.103   7.369   1.297
25742WAT     H277469  -0.048   7.361   1.233
25743WAT      O77470   4.695   3.567   7.949
25743WAT     H177471   4.683   3.614   7.861
25743WAT     H277472   4.734   3.630   8.015
25744WAT      O77473   3.415   7.050   8.692
25744WAT     H177474   3.436   7.041   8.595
25744WAT     H277475   3.389   6.961   8.729
25745WAT      O77476   8.968   3.827   6.031
25745WAT     H177477   8.961   3.909   6.088
25745WAT     H277478   8.921   3.842   5.944
25746WAT      O77479   2.634   4.727   8.324
25746WAT     H177480   2.697   4.664   8.278
25746WAT     H277481   2.649   4.820   8.290
25747WAT      O77482   7.061   5.951   4.680
25747WAT     H177483   7.091   5.948   4.775
25747WAT     H277484   7.023   5.863   4.654
25748WAT      O77485   1.595   4.251   7.896
25748WAT     H177486   1.568   4.254   7.992
25748WAT     H277487   1.634   4.339   7.869
25749WAT      O77488   1.008   6.592   5.026
25749WAT     H177489   0.955   6.509   5.008
25749WAT     H277490   0.977   6.666   4.965
25750WAT      O77491   0.361   2.604   2.518
25750WAT     H177492   0.446   2.596   2.467
25750WAT     H277493   0.346   2.699   2.543
25751WAT      O77494   8.197   4.130   9.162
25751WAT     H177495   8.178   4.045   9.211
25751WAT     H277496   8.243   4.109   9.076
25752WAT      O77497   9.105   5.196   4.922
25752WAT     H177498   9.149   5.206   4.833
25752WAT     H277499   9.172   5.211   4.995
25753WAT      O77500   8.199   3.176   0.828
25753WAT     H177501   8.299   3.173   0.837
25753WAT     H277502   8.157   3.114   0.893
25754WAT      O77503   2.869   6.961   8.749
25754WAT     H177504   2.818   6.927   8.828
25754WAT     H277505   2.818   6.944   8.665
25755WAT      O77506   8.530   8.420   4.563
25755WAT     H177507   8.583   8.501   4.591
25755WAT     H277508   8.527   8.355   4.639
25756WAT      O77509   8.591   9.462   2.315
25756WAT     H177510   8.588   9.468   2.215
25756WAT     H277511   8.617   9.369   2.342
25757WAT      O77512   2.293   7.850   6.073
25757WAT     H177513   2.201   7.857   6.034
25757WAT     H277514   2.288   7.851   6.172
25758WAT      O77515   1.283   8.172   7.752
25758WAT     H177516   1.329   8.249   7.706
25758WAT     H277517   1.308   8.087   7.707
25759WAT      O77518   8.239   6.041   9.035
25759WAT     H177519   8.329   6.030   8.991
25759WAT     H277520   8.171   6.067   8.965
25760WAT      O77521   3.257   1.430   2.644
25760WAT     H177522   3.286   1.458   2.736
25760WAT     H277523   3.182   1.364   2.652
25761WAT      O77524   1.713   5.649   4.211
25761WAT     H177525   1.748   5.675   4.121
25761WAT     H277526   1.776   5.682   4.281
25762WAT      O77527   4.028   1.291   8.955
25762WAT     H177528   4.046   1.194   8.942
25762WAT     H277529   4.060   1.342   8.875
25763WAT      O77530   2.017   5.979   9.201
25763WAT     H177531   2.086   5.913   9.232
25763WAT     H277532   1.979   5.949   9.114
25764WAT      O77533   3.632   3.529   3.579
25764WAT     H177534   3.698   3.508   3.651
25764WAT     H277535   3.576   3.607   3.608
25765WAT      O77536   0.828   1.744   0.099
25765WAT     H177537   0.788   1.829   0.064
25765WAT     H277538   0.923   1.736   0.068
25766WAT      O77539   6.091   4.623   3.333
25766WAT     H177540   6.133   4.537   3.361
25766WAT     H277541   6.082   4.626   3.234
25767WAT      O77542   3.315   9.462   7.734
25767WAT     H177543   3.226   9.418   7.722
25767WAT     H277544   3.374   9.438   7.657
25768WAT      O77545   1.982   8.766   2.807
25768WAT     H177546   1.957   8.752   2.903
25768WAT     H277547   1.940   8.695   2.751
25769WAT      O77548   2.946   5.360   0.465
25769WAT     H177549   2.940   5.427   0.539
25769WAT     H277550   2.854   5.333   0.438
25770WAT      O77551   6.989   8.063   3.181
25770WAT     H177552   6.914   7.999   3.197
25770WAT     H277553   7.009   8.067   3.083
25771WAT      O77554   6.716   3.242   9.529
25771WAT     H177555   6.657   3.316   9.561
25771WAT     H277556   6.786   3.279   9.468
25772WAT      O77557   6.916   2.617   4.277
25772WAT     H177558   6.834   2.639   4.223
25772WAT     H277559   6.996   2.615   4.217
25773WAT      O77560   4.018   0.873   2.514
25773WAT     H177561   3.928   0.835   2.534
25773WAT     H277562   4.085   0.836   2.578
25774WAT      O77563   4.629   9.276   4.035
25774WAT     H177564   4.538   9.316   4.044
25774WAT     H277565   4.621   9.176   4.038
25775WAT      O77566   8.817   2.627   1.506
25775WAT     H177567   8.898   2.660   1.555
25775WAT     H277568   8.739   2.686   1.528
25776WAT      O77569   7.639   6.694   5.927
25776WAT     H177570   7.647   6.600   5.894
25776WAT     H277571   7.693   6.755   5.869
25777WAT      O77572   8.706   4.094   3.037
25777WAT     H177573   8.672   4.018   3.093
25777WAT     H277574   8.659   4.093   2.949
25778WAT      O77575   8.016   3.356   9.609
25778WAT     H177576   8.058   3.438   9.649
25778WAT     H277577   8.083   3.282   9.608
25779WAT      O77578   7.705   0.835   3.385
25779WAT     H177579   7.775   0.768   3.409
25779WAT     H277580   7.655   0.804   3.304
25780WAT      O77581   1.612   4.778   1.976
25780WAT     H177582   1.553   4.708   1.936
25780WAT     H277583   1.645   4.839   1.903
25781WAT      O77584   2.779   3.491   8.795
25781WAT     H177585   2.682   3.475   8.814
25781WAT     H277586   2.812   3.569   8.848
25782WAT      O77587   8.292   4.771   6.342
25782WAT     H177588   8.273   4.763   6.244
25782WAT     H277589   8.298   4.679   6.382
25783WAT      O77590   7.725   3.037   1.842
25783WAT     H177591   7.734   3.026   1.940
25783WAT     H277592   7.632   3.012   1.814
25784WAT      O77593   9.876   5.821   1.183
25784WAT     H177594   9.959   5.774   1.152
25784WAT     H277595   9.860   5.800   1.280
25785WAT      O77596   9.884   6.852   7.985
25785WAT     H177597   9.816   6.786   8.017
25785WAT     H277598   9.895   6.844   7.886
25786WAT      O77599   0.535   3.412   5.237
25786WAT     H177600   0.449   3.362   5.224
25786WAT     H277601   0.521   3.485   5.303
25787WAT      O77602   0.493   6.793   7.950
25787WAT     H177603   0.429   6.753   7.885
25787WAT     H277604   0.528   6.879   7.913
25788WAT      O77605   1.132   2.409   4.738
25788WAT     H177606   1.145   2.385   4.642
25788WAT     H277607   1.064   2.483   4.744
25789WAT      O77608   0.723   9.371   1.226
25789WAT     H177609   0.764   9.401   1.312
25789WAT     H277610   0.685   9.451   1.179
25790WAT      O77611   0.093   7.810   8.861
25790WAT     H177612   0.062   7.775   8.949
25790WAT     H277613   0.017   7.858   8.816
25791WAT      O77614   8.879   6.753   2.663
25791WAT     H177615   8.875   6.710   2.754
25791WAT     H277616   8.936   6.835   2.668
25792WAT      O77617   3.511   3.729   7.409
25792WAT     H177618   3.548   3.817   7.381
25792WAT     H277619   3.549   3.704   7.498
25793WAT      O77620   8.013   2.770   1.309
25793WAT     H177621   7.974   2.731   1.392
25793WAT     H277622   8.079   2.841   1.333
25794WAT      O77623   8.892   1.462   4.337
25794WAT     H177624   8.952   1.421   4.406
25794WAT     H277625   8.857   1.549   4.371
25795WAT      O77626   1.792   4.031   9.538
25795WAT     H177627   1.729   4.087   9.591
25795WAT     H277628   1.866   3.999   9.598
25796WAT      O77629   4.880   3.882   7.366
25796WAT     H177630   4.846   3.874   7.460
25796WAT     H277631   4.911   3.793   7.333
25797WAT      O77632   9.625   6.801   2.467
25797WAT     H177633   9.552   6.764   2.524
25797WAT     H277634   9.713   6.787   2.512
25798WAT      O77635   6.909   8.109   8.452
25798WAT     H177636   6.969   8.043   8.497
25798WAT     H277637   6.915   8.098   8.353
25799WAT      O77638   9.444   2.718   9.154
25799WAT     H177639   9.358   2.738   9.108
25799WAT     H277640   9.430   2.647   9.223
25800WAT      O77641   3.145   8.129   1.649
25800WAT     H177642   3.141   8.084   1.738
25800WAT     H277643   3.080   8.085   1.587
25801WAT      O77644   0.064   7.433   5.990
25801WAT     H177645   0.103   7.372   5.921
25801WAT     H277646   0.095   7.406   6.081
25802WAT      O77647   2.148   2.400   4.993
25802WAT     H177648   2.243   2.432   5.005
25802WAT     H277649   2.148   2.301   4.983
25803WAT      O77650   8.050   8.351   0.391
25803WAT     H177651   8.042   8.340   0.292
25803WAT     H277652   8.023   8.266   0.437
25804WAT      O77653   6.606   5.703   7.326
25804WAT     H177654   6.555   5.643   7.388
25804WAT     H277655   6.542   5.750   7.265
25805WAT      O77656   8.613   0.922   4.653
25805WAT     H177657   8.697   0.975   4.639
25805WAT     H277658   8.591   0.921   4.751
25806WAT      O77659   4.399   1.409   3.351
25806WAT     H177660   4.447   1.432   3.435
25806WAT     H277661   4.431   1.469   3.277
25807WAT      O77662   2.908   2.069   8.822
25807WAT     H177663   2.889   2.159   8.781
25807WAT     H277664   2.822   2.026   8.850
25808WAT      O77665   9.414   0.394   2.144
25808WAT     H177666   9.405   0.462   2.217
25808WAT     H277667   9.341   0.406   2.078
25809WAT      O77668   9.241   6.968   7.258
25809WAT     H177669   9.266   6.928   7.170
25809WAT     H277670   9.197   6.898   7.315
25810WAT      O77671   0.606   6.575   9.393
25810WAT     H177672   0.573   6.669   9.402
25810WAT     H277673   0.549   6.526   9.327
25811WAT      O77674   1.122   0.023   3.563
25811WAT     H177675   1.170  -0.017   3.641
25811WAT     H277676   1.148   0.119   3.553
25812WAT      O77677   5.906   2.771   9.675
25812WAT     H177678   5.980   2.835   9.656
25812WAT     H277679   5.832   2.785   9.609
25813WAT      O77680   7.726   8.011   5.674
25813WAT     H177681   7.660   8.037   5.603
25813WAT     H277682   7.681   8.014   5.763
25814WAT      O77683   5.816   6.464   4.632
25814WAT     H177684   5.893   6.527   4.639
25814WAT     H277685   5.845   6.380   4.586
25815WAT      O77686   1.057   1.094   9.492
25815WAT     H177687   0.961   1.117   9.473
25815WAT     H277688   1.065   1.061   9.586
25816WAT      O77689   2.672   9.589   6.461
25816WAT     H177690   2.646   9.538   6.543
25816WAT     H277691   2.603   9.576   6.390
25817WAT      O77692   8.578   5.100   9.413
25817WAT     H177693   8.623   5.183   9.379
25817WAT     H277694   8.534   5.053   9.336
25818WAT      O77695   5.354   6.184   9.732
25818WAT     H177696   5.382   6.134   9.650
25818WAT     H277697   5.310   6.121   9.796
25819WAT      O77698   3.626   2.707   3.956
25819WAT     H177699   3.645   2.716   4.054
25819WAT     H277700   3.537   2.749   3.936
25820WAT      O77701   7.175   1.853   0.495
25820WAT     H177702   7.271   1.836   0.476
25820WAT     H277703   7.150   1.945   0.465
25821WAT      O77704   8.272   8.871   9.158
25821WAT     H177705   8.355   8.892   9.210
25821WAT     H277706   8.196   8.858   9.222
25822WAT      O77707   3.617   0.354   0.007
25822WAT     H177708   3.670   0.321   0.086
25822WAT     H277709   3.680   0.393  -0.061
25823WAT      O77710   0.015   2.421   4.505
25823WAT     H177711  -0.059   2.363   4.472
25823WAT     H277712  -0.018   2.515   4.514
25824WAT      O77713   4.419   5.266   4.308
25824WAT     H177714   4.497   5.286   4.367
25824WAT     H277715   4.414   5.334   4.235
25825WAT      O77716   7.190   6.514   2.815
25825WAT     H177717   7.288   6.533   2.811
25825WAT     H277718   7.140   6.580   2.759
25826WAT      O77719   4.047   5.541   5.600
25826WAT     H177720   4.070   5.472   5.669
25826WAT     H277721   4.070   5.506   5.509
25827WAT      O77722   4.999   7.568   8.070
25827WAT     H177723   5.089   7.546   8.106
25827WAT     H277724   5.000   7.661   8.032
25828WAT      O77725   3.640   6.976   3.262
25828WAT     H177726   3.613   7.067   3.232
25828WAT     H277727   3.722   6.982   3.319
25829WAT      O77728   4.250   2.385   8.255
25829WAT     H177729   4.330   2.437   8.225
25829WAT     H277730   4.215   2.423   8.340
25830WAT      O77731   8.712   0.168   2.485
25830WAT     H177732   8.648   0.235   2.520
25830WAT     H277733   8.678   0.131   2.398
25831WAT      O77734   8.562   1.306   9.551
25831WAT     H177735   8.654   1.293   9.513
25831WAT     H277736   8.554   1.255   9.636
25832WAT      O77737   8.460   1.363   5.838
25832WAT     H177738   8.538   1.309   5.867
25832WAT     H277739   8.431   1.334   5.746
25833WAT      O77740   8.122   4.509   8.910
25833WAT     H177741   8.148   4.480   8.818
25833WAT     H277742   8.190   4.477   8.976
25834WAT      O77743   4.635   3.039   1.711
25834WAT     H177744   4.634   2.952   1.761
25834WAT     H277745   4.719   3.044   1.656
25835WAT      O77746   2.712   2.001   9.331
25835WAT     H177747   2.744   1.957   9.415
25835WAT     H277748   2.613   1.993   9.324
25836WAT      O77749   7.629   2.482   4.144
25836WAT     H177750   7.711   2.503   4.197
25836WAT     H277751   7.646   2.401   4.087
25837WAT      O77752   0.029   6.444   5.690
25837WAT     H177753   0.053   6.351   5.663
25837WAT     H277754  -0.055   6.471   5.642
25838WAT      O77755   9.228   1.104   4.787
25838WAT     H177756   9.258   1.174   4.723
25838WAT     H277757   9.300   1.087   4.854
25839WAT      O77758   5.666   8.579   8.934
25839WAT     H177759   5.579   8.609   8.894
25839WAT     H277760   5.660   8.584   9.034
25840WAT      O77761   9.305   3.598   2.926
25840WAT     H177762   9.336   3.528   2.990
25840WAT     H277763   9.225   3.565   2.877
25841WAT      O77764   9.039   5.288   8.619
25841WAT     H177765   8.960   5.348   8.631
25841WAT     H277766   9.073   5.297   8.525
25842WAT      O77767   0.474   1.508   3.174
25842WAT     H177768   0.424   1.463   3.100
25842WAT     H277769   0.418   1.506   3.257
25843WAT      O77770   5.001   4.702   4.247
25843WAT     H177771   5.067   4.731   4.177
25843WAT     H277772   5.046   4.701   4.336
25844WAT      O77773   6.285   9.018   7.590
25844WAT     H177774   6.238   8.931   7.603
25844WAT     H277775   6.232   9.091   7.636
25845WAT      O77776   5.640   8.399   6.561
25845WAT     H177777   5.548   8.376   6.529
25845WAT     H277778   5.634   8.461   6.639
25846WAT      O77779   0.725   4.107   4.539
25846WAT     H177780   0.652   4.071   4.598
25846WAT     H277781   0.786   4.165   4.593
25847WAT      O77782   1.585   1.964   4.143
25847WAT     H177783   1.524   1.993   4.069
25847WAT     H277784   1.531   1.940   4.224
25848WAT      O77785   1.946   6.801   4.461
25848WAT     H177786   1.864   6.810   4.405
25848WAT     H277787   1.933   6.728   4.528
25849WAT      O77788   3.145   6.792   2.664
25849WAT     H177789   3.175   6.887   2.658
25849WAT     H277790   3.086   6.771   2.586
25850WAT      O77791   6.169   3.455   3.680
25850WAT     H177792   6.083   3.477   3.632
25850WAT     H277793   6.230   3.534   3.674
25851WAT      O77794   6.392   6.443   0.735
25851WAT     H177795   6.384   6.543   0.732
25851WAT     H277796   6.489   6.418   0.730
25852WAT      O77797   4.111   8.653   1.446
25852WAT     H177798   4.170   8.732   1.431
25852WAT     H277799   4.110   8.629   1.543
25853WAT      O77800   2.371   5.045   5.192
25853WAT     H177801   2.370   5.086   5.283
25853WAT     H277802   2.458   5.065   5.147
25854WAT      O77803   8.407   1.016   5.206
25854WAT     H177804   8.391   1.047   5.112
25854WAT     H277805   8.350   1.069   5.268
25855WAT      O77806   5.931   6.710   4.055
25855WAT     H177807   5.963   6.795   4.015
25855WAT     H277808   5.840   6.689   4.019
25856WAT      O77809   5.652   8.813   8.000
25856WAT     H177810   5.670   8.746   8.072
25856WAT     H277811   5.682   8.904   8.031
25857WAT      O77812   0.679   8.157   0.503
25857WAT     H177813   0.774   8.163   0.535
25857WAT     H277814   0.661   8.230   0.438
25858WAT      O77815   9.421   4.031   4.922
25858WAT     H177816   9.399   3.956   4.860
25858WAT     H277817   9.344   4.095   4.925
25859WAT      O77818   8.207   2.755   3.004
25859WAT     H177819   8.180   2.700   3.083
25859WAT     H277820   8.219   2.696   2.925
25860WAT      O77821   3.074   2.934   4.468
25860WAT     H177822   3.033   2.883   4.544
25860WAT     H277823   3.167   2.961   4.492
25861WAT      O77824   2.081   6.979   0.479
25861WAT     H177825   1.987   6.970   0.446
25861WAT     H277826   2.139   6.913   0.432
25862WAT      O77827   3.682   9.078   2.117
25862WAT     H177828   3.722   8.989   2.138
25862WAT     H277829   3.727   9.117   2.037
25863WAT      O77830   4.604   9.734   1.668
25863WAT     H177831   4.678   9.723   1.602
25863WAT     H277832   4.642   9.733   1.761
25864WAT      O77833   1.214   2.387   8.622
25864WAT     H177834   1.286   2.434   8.673
25864WAT     H277835   1.135   2.373   8.683
25865WAT      O77836   7.981   1.805   3.647
25865WAT     H177837   8.044   1.812   3.724
25865WAT     H277838   7.888   1.824   3.678
25866WAT      O77839   1.371   2.161   1.833
25866WAT     H177840   1.470   2.177   1.828
25866WAT     H277841   1.354   2.066   1.861
25867WAT      O77842   0.066   8.408   6.944
25867WAT     H177843   0.088   8.340   6.875
25867WAT     H277844  -0.032   8.410   6.960
25868WAT      O77845   1.957   1.607   2.556
25868WAT     H177846   1.891   1.631   2.486
25868WAT     H277847   1.926   1.640   2.645
25869WAT      O77848   6.805   9.305   8.050
25869WAT     H177849   6.743   9.227   8.045
25869WAT     H277850   6.881   9.284   8.112
25870WAT      O77851   5.428   7.306   6.839
25870WAT     H177852   5.409   7.304   6.937
25870WAT     H277853   5.342   7.299   6.788
25871WAT      O77854   0.285   3.941   2.509
25871WAT     H177855   0.328   3.927   2.599
25871WAT     H277856   0.337   3.893   2.439
25872WAT      O77857   1.052   1.150   1.310
25872WAT     H177858   1.152   1.150   1.307
25872WAT     H277859   1.017   1.060   1.286
25873WAT      O77860   5.483   5.684   8.988
25873WAT     H177861   5.519   5.618   8.923
25873WAT     H277862   5.423   5.638   9.053
25874WAT      O77863   5.922   4.437   4.088
25874WAT     H177864   5.886   4.369   4.153
25874WAT     H277865   5.887   4.527   4.112
25875WAT      O77866   8.966   7.490   1.412
25875WAT     H177867   9.051   7.449   1.381
25875WAT     H277868   8.913   7.423   1.463
25876WAT      O77869   2.087   7.294   2.788
25876WAT     H177870   2.036   7.342   2.717
25876WAT     H277871   2.135   7.216   2.749
25877WAT      O77872   1.941   2.574   3.515
25877WAT     H177873   1.964   2.670   3.529
25877WAT     H277874   2.016   2.516   3.546
25878WAT      O77875   5.170   4.813   3.561
25878WAT     H177876   5.123   4.749   3.500
25878WAT     H277877   5.116   4.824   3.645
25879WAT      O77878   4.665   6.282   5.179
25879WAT     H177879   4.595   6.353   5.170
25879WAT     H277880   4.639   6.217   5.251
25880WAT      O77881   7.849   5.102   8.949
25880WAT     H177882   7.805   5.060   9.028
25880WAT     H277883   7.867   5.032   8.880
25881WAT      O77884   5.158   0.684   9.560
25881WAT     H177885   5.240   0.647   9.518
25881WAT     H277886   5.153   0.783   9.543
25882WAT      O77887   7.203   4.729   8.382
25882WAT     H177888   7.214   4.818   8.427
25882WAT     H277889   7.189   4.743   8.284
25883WAT      O77890   5.589   2.552   5.977
25883WAT     H177891   5.583   2.641   5.933
25883WAT     H277892   5.685   2.532   6.000
25884WAT      O77893   1.576   8.579   2.176
25884WAT     H177894   1.579   8.611   2.081
25884WAT     H277895   1.486   8.539   2.194
25885WAT      O77896   4.099   4.526   2.925
25885WAT     H177897   4.142   4.581   2.854
25885WAT     H277898   4.068   4.439   2.886
25886WAT      O77899   2.316   3.455   4.444
25886WAT     H177900   2.407   3.438   4.407
25886WAT     H277901   2.283   3.372   4.491
25887WAT      O77902   3.238   9.663   4.733
25887WAT     H177903   3.221   9.736   4.668
25887WAT     H277904   3.284   9.700   4.814
25888WAT      O77905   2.488   6.053   2.518
25888WAT     H177906   2.443   6.090   2.599
25888WAT     H277907   2.448   5.964   2.496
25889WAT      O77908   9.390   5.931   4.196
25889WAT     H177909   9.412   5.929   4.099
25889WAT     H277910   9.471   5.958   4.248
25890WAT      O77911   1.723   1.418   2.644
25890WAT     H177912   1.804   1.448   2.694
25890WAT     H277913   1.746   1.340   2.586
25891WAT      O77914   5.932   9.541   9.204
25891WAT     H177915   5.867   9.569   9.133
25891WAT     H277916   6.015   9.597   9.198
25892WAT      O77917   1.609   4.117   0.708
25892WAT     H177918   1.596   4.053   0.633
25892WAT     H277919   1.704   4.111   0.741
25893WAT      O77920   8.042   2.427   2.337
25893WAT     H177921   8.123   2.386   2.293
25893WAT     H277922   8.055   2.428   2.436
25894WAT      O77923   2.403   7.093   3.446
25894WAT     H177924   2.439   6.999   3.439
25894WAT     H277925   2.305   7.092   3.427
25895WAT      O77926   4.965   7.686   0.125
25895WAT     H177927   4.931   7.636   0.046
25895WAT     H277928   5.036   7.750   0.096
25896WAT      O77929   3.977   9.131   6.755
25896WAT     H177930   3.948   9.084   6.671
25896WAT     H277931   4.071   9.105   6.776
25897WAT      O77932   6.346   3.817   7.753
25897WAT     H177933   6.377   3.825   7.848
25897WAT     H277934   6.426   3.808   7.693
25898WAT      O77935   8.251   5.585   9.441
25898WAT     H177936   8.309   5.599   9.522
25898WAT     H277937   8.184   5.514   9.460
25899WAT      O77938   1.163   2.167   3.288
25899WAT     H177939   1.260   2.153   3.308
25899WAT     H277940   1.155   2.219   3.203
25900WAT      O77941   2.679   3.192   5.702
25900WAT     H177942   2.724   3.278   5.680
25900WAT     H277943   2.720   3.118   5.649
25901WAT      O77944   2.239   7.434   4.298
25901WAT     H177945   2.275   7.525   4.318
25901WAT     H277946   2.210   7.389   4.383
25902WAT      O77947   2.578   1.720   2.897
25902WAT     H177948   2.665   1.749   2.856
25902WAT     H277949   2.509   1.792   2.883
25903WAT      O77950   6.097   7.890   7.317
25903WAT     H177951   6.104   7.990   7.318
25903WAT     H277952   6.170   7.851   7.372
25904WAT      O77953   0.861   1.797   9.388
25904WAT     H177954   0.903   1.803   9.478
25904WAT     H277955   0.783   1.736   9.391
25905WAT      O77956   2.861   3.363   2.739
25905WAT     H177957   2.812   3.315   2.665
25905WAT     H277958   2.834   3.325   2.827
25906WAT      O77959   9.860   0.378   6.594
25906WAT     H177960   9.812   0.386   6.681
25906WAT     H277961   9.888   0.469   6.563
25907WAT      O77962   2.064   4.723   4.672
25907WAT     H177963   1.970   4.703   4.701
25907WAT     H277964   2.102   4.644   4.624
25908WAT      O77965   7.072   3.789   4.587
25908WAT     H177966   7.082   3.757   4.681
25908WAT     H277967   6.987   3.751   4.548
25909WAT      O77968   0.715   7.368   8.962
25909WAT     H177969   0.717   7.440   8.892
25909WAT     H277970   0.808   7.352   8.995
25910WAT      O77971   2.416   0.865   7.388
25910WAT     H177972   2.472   0.795   7.433
25910WAT     H277973   2.470   0.948   7.375
25911WAT      O77974   1.133   4.645   5.210
25911WAT     H177975   1.171   4.585   5.140
25911WAT     H277976   1.048   4.607   5.245
25912WAT      O77977   5.406   2.595   3.874
25912WAT     H177978   5.389   2.690   3.902
25912WAT     H277979   5.322   2.542   3.885
25913WAT      O77980   6.298   1.915   4.523
25913WAT     H177981   6.376   1.959   4.568
25913WAT     H277982   6.319   1.902   4.426
25914WAT      O77983   5.787   7.066   2.002
25914WAT     H177984   5.758   7.008   2.078
25914WAT     H277985   5.748   7.157   2.012
25915WAT      O77986   4.121   9.160   5.379
25915WAT     H177987   4.142   9.255   5.403
25915WAT     H277988   4.092   9.156   5.283
25916WAT      O77989   2.900   1.073   3.360
25916WAT     H177990   2.897   0.990   3.305
25916WAT     H277991   2.812   1.121   3.354
25917WAT      O77992   3.729   5.960   7.409
25917WAT     H177993   3.663   5.954   7.485
25917WAT     H277994   3.731   5.873   7.360
25918WAT      O77995   6.110   6.197   3.690
25918WAT     H177996   6.100   6.260   3.767
25918WAT     H277997   6.203   6.159   3.690
25919WAT      O77998   6.288   7.621   5.289
25919WAT     H177999   6.306   7.523   5.298
25919WAT     H278000   6.343   7.657   5.213
25920WAT      O78001   6.827   5.607   3.542
25920WAT     H178002   6.761   5.637   3.612
25920WAT     H278003   6.851   5.685   3.484
25921WAT      O78004   9.058   1.705   2.091
25921WAT     H178005   8.994   1.721   2.166
25921WAT     H278006   9.027   1.754   2.010
25922WAT      O78007   6.937   4.507   5.667
25922WAT     H178008   6.887   4.452   5.735
25922WAT     H278009   6.964   4.594   5.709
25923WAT      O78010   0.638   5.668   6.908
25923WAT     H178011   0.656   5.640   6.814
25923WAT     H278012   0.702   5.622   6.969
25924WAT      O78013   5.659   1.479   0.768
25924WAT     H178014   5.576   1.531   0.751
25924WAT     H278015   5.683   1.484   0.865
25925WAT      O78016   3.305   0.892   8.987
25925WAT     H178017   3.405   0.892   8.988
25925WAT     H278018   3.272   0.800   9.007
25926WAT      O78019   8.755   0.505   6.657
25926WAT     H178020   8.734   0.445   6.733
25926WAT     H278021   8.724   0.598   6.678
25927WAT      O78022   3.574   2.463   5.377
25927WAT     H178023   3.540   2.548   5.418
25927WAT     H278024   3.578   2.392   5.447
25928WAT      O78025   6.892   3.864   1.399
25928WAT     H178026   6.937   3.926   1.334
25928WAT     H278027   6.961   3.818   1.454
25929WAT      O78028   3.858   7.701   3.534
25929WAT     H178029   3.881   7.775   3.471
25929WAT     H278030   3.926   7.628   3.528
25930WAT      O78031   0.287   6.190   1.615
25930WAT     H178032   0.202   6.158   1.574
25930WAT     H278033   0.356   6.202   1.544
25931WAT      O78034   0.835   0.497   2.575
25931WAT     H178035   0.872   0.432   2.508
25931WAT     H278036   0.893   0.578   2.578
25932WAT      O78037   4.788   8.479   3.545
25932WAT     H178038   4.875   8.504   3.503
25932WAT     H278039   4.793   8.384   3.577
25933WAT      O78040   5.369   4.965   0.537
25933WAT     H178041   5.453   4.913   0.524
25933WAT     H278042   5.291   4.908   0.512
25934WAT      O78043   9.599   2.217   7.969
25934WAT     H178044   9.546   2.210   7.884
25934WAT     H278045   9.666   2.290   7.960
25935WAT      O78046   2.367   6.529   7.793
25935WAT     H178047   2.395   6.573   7.708
25935WAT     H278048   2.350   6.432   7.777
25936WAT      O78049   9.759   4.492   5.848
25936WAT     H178050   9.692   4.551   5.804
25936WAT     H278051   9.744   4.492   5.947
25937WAT      O78052   7.383   1.557   0.680
25937WAT     H178053   7.322   1.610   0.739
25937WAT     H278054   7.382   1.596   0.588
25938WAT      O78055   6.427   4.520   3.279
25938WAT     H178056   6.521   4.487   3.295
25938WAT     H278057   6.420   4.615   3.307
25939WAT      O78058   1.873   6.112   6.188
25939WAT     H178059   1.950   6.055   6.215
25939WAT     H278060   1.906   6.203   6.163
25940WAT      O78061   2.499   7.457   5.829
25940WAT     H178062   2.404   7.453   5.796
25940WAT     H278063   2.507   7.530   5.897
25941WAT      O78064   6.576   0.062   6.833
25941WAT     H178065   6.559  -0.000   6.757
25941WAT     H278066   6.620   0.146   6.799
25942WAT      O78067   0.433   5.462   9.377
25942WAT     H178068   0.503   5.432   9.313
25942WAT     H278069   0.448   5.559   9.399
25943WAT      O78070   2.931   6.801   5.903
25943WAT     H178071   2.982   6.846   5.977
25943WAT     H278072   2.907   6.868   5.833
25944WAT      O78073   6.184   5.954   1.315
25944WAT     H178074   6.187   5.964   1.215
25944WAT     H278075   6.098   5.910   1.340
25945WAT      O78076   7.404   3.817   8.472
25945WAT     H178077   7.446   3.751   8.410
25945WAT     H278078   7.469   3.889   8.494
25946WAT      O78079   0.398   1.374   1.256
25946WAT     H178080   0.317   1.432   1.261
25946WAT     H278081   0.373   1.285   1.218
25947WAT      O78082   5.822   7.734   5.847
25947WAT     H178083   5.743   7.792   5.866
25947WAT     H278084   5.862   7.703   5.933
25948WAT      O78085   3.860   7.639   7.127
25948WAT     H178086   3.849   7.587   7.211
25948WAT     H278087   3.869   7.576   7.050
25949WAT      O78088   2.008   6.498   6.637
25949WAT     H178089   1.913   6.529   6.641
25949WAT     H278090   2.068   6.576   6.619
25950WAT      O78091   9.177   8.232   9.838
25950WAT     H178092   9.214   8.151   9.884
25950WAT     H278093   9.077   8.233   9.848
25951WAT      O78094   5.858   4.174   8.757
25951WAT     H178095   5.795   4.251   8.749
25951WAT     H278096   5.861   4.123   8.670
25952WAT      O78097   2.934   4.613   5.631
25952WAT     H178098   2.923   4.618   5.730
25952WAT     H278099   2.950   4.518   5.604
25953WAT      O78100   8.254   4.964   9.495
25953WAT     H178101   8.165   4.948   9.538
25953WAT     H278102   8.262   5.060   9.470
25954WAT      O78103   4.900   3.837   4.813
25954WAT     H178104   4.870   3.748   4.778
25954WAT     H278105   4.905   3.833   4.913
25955WAT      O78106   9.090   3.855   8.043
25955WAT     H178107   9.143   3.873   8.126
25955WAT     H278108   8.997   3.829   8.068
25956WAT      O78109   0.668   6.645   2.458
25956WAT     H178110   0.735   6.621   2.388
25956WAT     H278111   0.685   6.592   2.541
25957WAT      O78112   0.366   5.073   0.950
25957WAT     H178113   0.441   5.106   1.007
25957WAT     H278114   0.377   4.975   0.935
25958WAT      O78115   7.429   3.048   1.070
25958WAT     H178116   7.505   3.024   1.009
25958WAT     H278117   7.458   3.120   1.133
25959WAT      O78118   4.005   5.097   3.556
25959WAT     H178119   4.061   5.014   3.558
25959WAT     H278120   3.978   5.122   3.648
25960WAT      O78121   2.716   2.518   0.359
25960WAT     H178122   2.640   2.517   0.423
25960WAT     H278123   2.704   2.593   0.294
25961WAT      O78124   7.584   9.779   7.318
25961WAT     H178125   7.552   9.685   7.307
25961WAT     H278126   7.521   9.841   7.272
25962WAT      O78127   7.782   8.175   2.540
25962WAT     H178128   7.785   8.244   2.467
25962WAT     H278129   7.714   8.202   2.608
25963WAT      O78130   5.248   9.050   7.231
25963WAT     H178131   5.211   8.973   7.179
25963WAT     H278132   5.219   9.044   7.326
25964WAT      O78133   6.737   9.357   2.713
25964WAT     H178134   6.696   9.342   2.803
25964WAT     H278135   6.753   9.455   2.700
25965WAT      O78136   8.617   1.500   0.321
25965WAT     H178137   8.553   1.464   0.253
25965WAT     H278138   8.603   1.598   0.331
25966WAT      O78139   5.863   5.269   1.268
25966WAT     H178140   5.784   5.291   1.326
25966WAT     H278141   5.830   5.238   1.179
25967WAT      O78142   2.095   1.502   0.207
25967WAT     H178143   2.193   1.521   0.196
25967WAT     H278144   2.082   1.405   0.225
25968WAT      O78145   0.746   5.918   7.067
25968WAT     H178146   0.705   5.829   7.045
25968WAT     H278147   0.831   5.929   7.015
25969WAT      O78148   3.225   5.141   6.177
25969WAT     H178149   3.308   5.191   6.156
25969WAT     H278150   3.177   5.116   6.093
25970WAT      O78151   6.416   7.015   4.212
25970WAT     H178152   6.415   6.940   4.278
25970WAT     H278153   6.405   6.978   4.119
25971WAT      O78154   3.186   1.032   6.758
25971WAT     H178155   3.132   1.115   6.743
25971WAT     H278156   3.276   1.042   6.717
25972WAT      O78157   7.035   6.970   5.394
25972WAT     H178158   7.112   6.915   5.427
25972WAT     H278159   7.025   7.051   5.452
25973WAT      O78160   2.863   7.736   5.280
25973WAT     H178161   2.933   7.709   5.213
25973WAT     H278162   2.780   7.764   5.231
25974WAT      O78163   6.430   1.100   9.148
25974WAT     H178164   6.415   1.046   9.065
25974WAT     H278165   6.473   1.187   9.124
25975WAT      O78166   4.097   4.064   0.804
25975WAT     H178167   4.157   3.985   0.813
25975WAT     H278168   4.114   4.127   0.880
25976WAT      O78169   7.196   4.685   9.071
25976WAT     H178170   7.123   4.663   9.008
25976WAT     H278171   7.158   4.703   9.162
25977WAT      O78172   0.585   8.477   3.950
25977WAT     H178173   0.528   8.518   4.020
25977WAT     H278174   0.624   8.549   3.892
25978WAT      O78175   5.481   2.209   1.559
25978WAT     H178176   5.391   2.193   1.599
25978WAT     H278177   5.505   2.306   1.570
25979WAT      O78178   8.013   9.642   0.883
25979WAT     H178179   7.921   9.641   0.920
25979WAT     H278180   8.056   9.731   0.902
25980WAT      O78181   2.318   4.195   8.703
25980WAT     H178182   2.225   4.195   8.668
25980WAT     H278183   2.369   4.120   8.662
25981WAT      O78184   1.228   7.962   2.800
25981WAT     H178185   1.132   7.934   2.803
25981WAT     H278186   1.279   7.901   2.739
25982WAT      O78187   0.200   9.256   2.761
25982WAT     H178188   0.292   9.291   2.781
25982WAT     H278189   0.204   9.157   2.749
25983WAT      O78190   3.897   2.722   7.791
25983WAT     H178191   3.945   2.738   7.704
25983WAT     H278192   3.898   2.624   7.811
25984WAT      O78193   5.090   3.236   9.152
25984WAT     H178194   5.146   3.154   9.162
25984WAT     H278195   5.140   3.315   9.187
25985WAT      O78196   5.984   6.547   8.926
25985WAT     H178197   5.923   6.481   8.970
25985WAT     H278198   6.056   6.498   8.877
25986WAT      O78199   4.290   1.373   0.254
25986WAT     H178200   4.358   1.415   0.194
25986WAT     H278201   4.252   1.292   0.210
25987WAT      O78202   3.306   0.841   2.072
25987WAT     H178203   3.294   0.756   2.020
25987WAT     H278204   3.339   0.820   2.164
25988WAT      O78205   1.168   3.918   2.707
25988WAT     H178206   1.178   3.969   2.622
25988WAT     H278207   1.093   3.959   2.761
25989WAT      O78208   9.024   1.123   8.960
25989WAT     H178209   9.095   1.152   9.024
25989WAT     H278210   9.066   1.097   8.873
25990WAT      O78211   9.204   6.935   4.596
25990WAT     H178212   9.285   6.965   4.546
25990WAT     H278213   9.197   6.985   4.682
25991WAT      O78214   3.751   4.530   6.891
25991WAT     H178215   3.814   4.588   6.943
25991WAT     H278216   3.710   4.584   6.818
25992WAT      O78217   2.732   7.170   5.545
25992WAT     H178218   2.713   7.240   5.614
25992WAT     H278219   2.795   7.207   5.476
25993WAT      O78220   2.790   0.205   2.141
25993WAT     H178221   2.799   0.221   2.239
25993WAT     H278222   2.797   0.107   2.122
25994WAT      O78223   8.113   5.392   8.781
25994WAT     H178224   8.122   5.441   8.694
25994WAT     H278225   8.109   5.293   8.763
25995WAT      O78226   5.896   9.517   5.888
25995WAT     H178227   5.992   9.539   5.908
25995WAT     H278228   5.848   9.600   5.860
25996WAT      O78229   5.489   4.847   4.342
25996WAT     H178230   5.434   4.774   4.380
25996WAT     H278231   5.576   4.809   4.309
25997WAT      O78232   2.301   1.713   3.358
25997WAT     H178233   2.313   1.672   3.449
25997WAT     H278234   2.389   1.746   3.325
25998WAT      O78235   8.612   2.846   6.782
25998WAT     H178236   8.556   2.913   6.734
25998WAT     H278237   8.661   2.890   6.857
25999WAT      O78238   8.995   3.044   6.633
25999WAT     H178239   8.982   3.088   6.722
25999WAT     H278240   8.950   2.954   6.634
26000WAT      O78241   2.316   1.206   8.365
26000WAT     H178242   2.283   1.217   8.459
26000WAT     H278243   2.239   1.189   8.304
26001WAT      O78244   5.365   3.900   5.642
26001WAT     H178245   5.412   3.989   5.640
26001WAT     H278246   5.398   3.847   5.720
26002WAT      O78247   8.680   3.901   7.055
26002WAT     H178248   8.728   3.858   6.978
26002WAT     H278249   8.701   3.850   7.139
26003WAT      O78250   7.169   2.131   6.608
26003WAT     H178251   7.157   2.129   6.509
26003WAT     H278252   7.159   2.038   6.644
26004WAT      O78253   6.834   3.828   8.005
26004WAT     H178254   6.923   3.816   8.048
26004WAT     H278255   6.826   3.768   7.926
26005WAT      O78256   7.005   0.423   5.833
26005WAT     H178257   7.047   0.506   5.798
26005WAT     H278258   6.971   0.368   5.756
26006WAT      O78259   9.774   3.446   4.584
26006WAT     H178260   9.742   3.541   4.586
26006WAT     H278261   9.782   3.411   4.678
26007WAT      O78262   8.030   4.215   8.376
26007WAT     H178263   8.114   4.205   8.429
26007WAT     H278264   8.042   4.288   8.308
26008WAT      O78265   7.003   1.764   6.086
26008WAT     H178266   6.948   1.804   6.159
26008WAT     H278267   6.949   1.695   6.038
26009WAT      O78268   1.079   3.160   3.027
26009WAT     H178269   1.037   3.108   2.954
26009WAT     H278270   1.149   3.104   3.072
26010WAT      O78271   8.156   5.143   8.764
26010WAT     H178272   8.092   5.067   8.764
26010WAT     H278273   8.229   5.126   8.696
26011WAT      O78274   5.931   5.889   8.292
26011WAT     H178275   5.840   5.847   8.291
26011WAT     H278276   6.001   5.818   8.281
26012WAT      O78277   7.941   6.003   7.338
26012WAT     H178278   7.946   6.055   7.253
26012WAT     H278279   7.864   6.036   7.393
26013WAT      O78280   5.252   7.095   5.631
26013WAT     H178281   5.276   7.169   5.695
26013WAT     H278282   5.260   7.007   5.678
26014WAT      O78283   0.496   7.321   5.447
26014WAT     H178284   0.494   7.248   5.379
26014WAT     H278285   0.509   7.409   5.401
26015WAT      O78286   6.927   9.677   6.542
26015WAT     H178287   6.893   9.589   6.574
26015WAT     H278288   6.975   9.665   6.455
26016WAT      O78289   0.943   7.184   7.516
26016WAT     H178290   0.886   7.265   7.504
26016WAT     H278291   0.921   7.117   7.445
26017WAT      O78292   1.882   9.355   8.731
26017WAT     H178293   1.837   9.436   8.693
26017WAT     H278294   1.885   9.283   8.662
26018WAT      O78295   0.788   3.106   8.663
26018WAT     H178296   0.758   3.170   8.734
26018WAT     H278297   0.779   3.149   8.573
26019WAT      O78298   8.772   2.739   5.435
26019WAT     H178299   8.857   2.686   5.434
26019WAT     H278300   8.749   2.766   5.342
26020WAT      O78301   1.756   8.522   8.715
26020WAT     H178302   1.741   8.454   8.644
26020WAT     H278303   1.683   8.517   8.783
26021WAT      O78304   2.027   6.936   5.556
26021WAT     H178305   1.935   6.938   5.595
26021WAT     H278306   2.028   6.876   5.476
26022WAT      O78307   0.497   2.487   3.659
26022WAT     H178308   0.484   2.394   3.625
26022WAT     H278309   0.416   2.516   3.709
26023WAT      O78310   4.355   9.808   4.791
26023WAT     H178311   4.356   9.750   4.873
26023WAT     H278312   4.278   9.870   4.795
26024WAT      O78313   4.907   0.707   3.200
26024WAT     H178314   4.899   0.641   3.126
26024WAT     H278315   4.924   0.659   3.286
26025WAT      O78316   5.658   0.319   9.261
26025WAT     H178317   5.712   0.403   9.272
26025WAT     H278318   5.677   0.278   9.172
26026WAT      O78319   5.083   6.666   3.256
26026WAT     H178320   5.097   6.589   3.319
26026WAT     H278321   4.992   6.660   3.216
26027WAT      O78322   0.605   7.353   5.062
26027WAT     H178323   0.527   7.301   5.098
26027WAT     H278324   0.689   7.301   5.077
26028WAT      O78325   7.068   0.308   3.674
26028WAT     H178326   7.074   0.320   3.575
26028WAT     H278327   6.972   0.311   3.702
26029WAT      O78328   6.277   1.857   3.848
26029WAT     H178329   6.342   1.799   3.895
26029WAT     H278330   6.253   1.817   3.760
26030WAT      O78331   3.367   2.114   8.080
26030WAT     H178332   3.440   2.181   8.069
26030WAT     H278333   3.281   2.161   8.101
26031WAT      O78334   0.944   5.581   5.396
26031WAT     H178335   1.020   5.645   5.402
26031WAT     H278336   0.975   5.489   5.421
26032WAT      O78337   6.483   5.568   2.669
26032WAT     H178338   6.444   5.613   2.749
26032WAT     H278339   6.572   5.608   2.648
26033WAT      O78340   8.919   3.953   3.689
26033WAT     H178341   8.998   3.926   3.744
26033WAT     H278342   8.841   3.895   3.713
26034WAT      O78343   3.595   1.611   4.205
26034WAT     H178344   3.515   1.581   4.154
26034WAT     H278345   3.672   1.549   4.187
26035WAT      O78346   8.921   2.186   6.610
26035WAT     H178347   8.822   2.182   6.592
26035WAT     H278348   8.967   2.234   6.536
26036WAT      O78349   0.282   0.148   4.787
26036WAT     H178350   0.302   0.153   4.690
26036WAT     H278351   0.219   0.072   4.805
26037WAT      O78352   6.452   0.435   6.983
26037WAT     H178353   6.485   0.341   6.993
26037WAT     H278354   6.499   0.479   6.907
26038WAT      O78355   3.055   2.685   6.645
26038WAT     H178356   3.140   2.688   6.593
26038WAT     H278357   3.056   2.757   6.715
26039WAT      O78358   0.101   5.818   8.403
26039WAT     H178359   0.150   5.858   8.480
26039WAT     H278360   0.057   5.890   8.350
26040WAT      O78361   9.327   8.758   7.758
26040WAT     H178362   9.305   8.823   7.685
26040WAT     H278363   9.284   8.788   7.843
26041WAT      O78364   4.378   0.810   5.141
26041WAT     H178365   4.375   0.747   5.063
26041WAT     H278366   4.338   0.897   5.114
26042WAT      O78367   5.946   7.373   2.771
26042WAT     H178368   5.890   7.371   2.688
26042WAT     H278369   6.014   7.300   2.767
26043WAT      O78370   9.468   6.467   5.496
26043WAT     H178371   9.428   6.435   5.582
26043WAT     H278372   9.424   6.421   5.419
26044WAT      O78373   3.625   1.280   8.797
26044WAT     H178374   3.570   1.261   8.715
26044WAT     H278375   3.590   1.226   8.873
26045WAT      O78376   3.317   9.615   3.129
26045WAT     H178377   3.219   9.623   3.147
26045WAT     H278378   3.345   9.688   3.066
26046WAT      O78379   1.159   9.150   3.972
26046WAT     H178380   1.195   9.225   3.916
26046WAT     H278381   1.194   9.160   4.066
26047WAT      O78382   2.405   5.677   7.380
26047WAT     H178383   2.323   5.655   7.327
26047WAT     H278384   2.378   5.709   7.471
26048WAT      O78385   7.167   9.671   1.462
26048WAT     H178386   7.133   9.621   1.542
26048WAT     H278387   7.266   9.682   1.469
26049WAT      O78388   3.608   0.005   5.913
26049WAT     H178389   3.664   0.017   5.831
26049WAT     H278390   3.606  -0.092   5.938
26050WAT      O78391   5.087   8.025   4.234
26050WAT     H178392   5.019   8.054   4.301
26050WAT     H278393   5.068   7.931   4.206
26051WAT      O78394   5.701   8.603   3.408
26051WAT     H178395   5.754   8.666   3.351
26051WAT     H278396   5.742   8.599   3.500
26052WAT      O78397   7.003   9.184   8.217
26052WAT     H178398   6.973   9.242   8.292
26052WAT     H278399   7.049   9.102   8.253
26053WAT      O78400   3.271   0.712   4.828
26053WAT     H178401   3.367   0.728   4.851
26053WAT     H278402   3.263   0.622   4.785
26054WAT      O78403   2.618   2.337   7.954
26054WAT     H178404   2.691   2.328   7.887
26054WAT     H278405   2.530   2.339   7.906
26055WAT      O78406   5.360   8.695   8.580
26055WAT     H178407   5.403   8.679   8.669
26055WAT     H278408   5.265   8.662   8.583
26056WAT      O78409   6.921   8.948   8.902
26056WAT     H178410   6.950   8.978   8.993
26056WAT     H278411   6.870   8.862   8.911
26057WAT      O78412   0.022   8.490   7.605
26057WAT     H178413   0.011   8.581   7.567
26057WAT     H278414   0.065   8.431   7.536
26058WAT      O78415   0.529   8.997   8.242
26058WAT     H178416   0.603   8.976   8.178
26058WAT     H278417   0.535   9.093   8.269
26059WAT      O78418   4.388   4.529   3.008
26059WAT     H178419   4.363   4.510   3.103
26059WAT     H278420   4.312   4.572   2.961
26060WAT      O78421   5.779   6.713   3.221
26060WAT     H178422   5.703   6.763   3.181
26060WAT     H278423   5.747   6.624   3.253
26061WAT      O78424   5.244   9.180   9.107
26061WAT     H178425   5.288   9.258   9.150
26061WAT     H278426   5.313   9.116   9.074
26062WAT      O78427   2.412   1.444   6.848
26062WAT     H178428   2.399   1.345   6.837
26062WAT     H278429   2.324   1.487   6.867
26063WAT      O78430   6.212   9.631   8.000
26063WAT     H178431   6.193   9.681   7.915
26063WAT     H278432   6.238   9.696   8.072
26064WAT      O78433   1.636   2.437   5.293
26064WAT     H178434   1.713   2.379   5.321
26064WAT     H278435   1.670   2.516   5.242
26065WAT      O78436   2.610   7.491   3.502
26065WAT     H178437   2.591   7.394   3.514
26065WAT     H278438   2.560   7.525   3.422
26066WAT      O78439   2.715   7.027   1.482
26066WAT     H178440   2.714   7.126   1.464
26066WAT     H278441   2.807   7.000   1.511
26067WAT      O78442   6.482   1.126   6.968
26067WAT     H178443   6.459   1.029   6.958
26067WAT     H278444   6.466   1.173   6.881
26068WAT      O78445   9.324   1.983   5.521
26068WAT     H178446   9.242   1.942   5.561
26068WAT     H278447   9.308   2.080   5.504
26069WAT      O78448   4.576   4.896   2.043
26069WAT     H178449   4.627   4.833   1.984
26069WAT     H278450   4.623   4.984   2.046
26070WAT      O78451   7.630   9.021   1.017
26070WAT     H178452   7.600   8.986   0.929
26070WAT     H278453   7.551   9.052   1.070
26071WAT      O78454   7.169   8.107   6.860
26071WAT     H178455   7.239   8.087   6.929
26071WAT     H278456   7.082   8.066   6.887
26072WAT      O78457   9.141   7.436   3.415
26072WAT     H178458   9.050   7.471   3.436
26072WAT     H278459   9.206   7.471   3.483
26073WAT      O78460   1.622   2.838   6.790
26073WAT     H178461   1.580   2.748   6.774
26073WAT     H278462   1.561   2.894   6.845
26074WAT      O78463   4.966   0.353   3.205
26074WAT     H178464   4.934   0.413   3.278
26074WAT     H278465   4.978   0.261   3.241
26075WAT      O78466   8.737   8.887   6.178
26075WAT     H178467   8.765   8.927   6.266
26075WAT     H278468   8.701   8.795   6.194
26076WAT      O78469   1.953   2.447   1.212
26076WAT     H178470   1.872   2.392   1.192
26076WAT     H278471   2.013   2.448   1.132
26077WAT      O78472   5.337   3.861   4.963
26077WAT     H178473   5.386   3.807   5.032
26077WAT     H278474   5.396   3.875   4.884
26078WAT      O78475   8.241   3.730   3.235
26078WAT     H178476   8.241   3.680   3.148
26078WAT     H278477   8.301   3.809   3.228
26079WAT      O78478   4.109   1.723   0.693
26079WAT     H178479   4.016   1.723   0.730
26079WAT     H278480   4.160   1.800   0.732
26080WAT      O78481   7.822   9.122   2.481
26080WAT     H178482   7.904   9.065   2.489
26080WAT     H278483   7.771   9.095   2.400
26081WAT      O78484   7.320   5.267   9.306
26081WAT     H178485   7.289   5.356   9.338
26081WAT     H278486   7.244   5.218   9.263
26082WAT      O78487   3.124   6.902   8.445
26082WAT     H178488   3.031   6.915   8.411
26082WAT     H278489   3.121   6.860   8.536
26083WAT      O78490   2.368   1.158   1.613
26083WAT     H178491   2.269   1.164   1.596
26083WAT     H278492   2.384   1.162   1.711
26084WAT      O78493   8.623   0.731   6.745
26084WAT     H178494   8.574   0.816   6.763
26084WAT     H278495   8.721   0.747   6.749
26085WAT      O78496   6.883   7.095   4.336
26085WAT     H178497   6.946   7.090   4.258
26085WAT     H278498   6.846   7.188   4.342
26086WAT      O78499   9.589   1.062   5.141
26086WAT     H178500   9.628   1.067   5.050
26086WAT     H278501   9.492   1.086   5.137
26087WAT      O78502   4.996   9.041   2.550
26087WAT     H178503   4.964   9.112   2.612
26087WAT     H278504   5.000   9.077   2.457
26088WAT      O78505   9.059   2.806   9.256
26088WAT     H178506   9.043   2.795   9.355
26088WAT     H278507   9.025   2.894   9.226
26089WAT      O78508   2.831   8.493   8.260
26089WAT     H178509   2.836   8.571   8.197
26089WAT     H278510   2.903   8.501   8.328
26090WAT      O78511   2.414   8.508   7.232
26090WAT     H178512   2.471   8.518   7.313
26090WAT     H278513   2.464   8.455   7.163
26091WAT      O78514   0.470   1.574   8.397
26091WAT     H178515   0.416   1.657   8.410
26091WAT     H278516   0.546   1.572   8.462
26092WAT      O78517   5.160   4.882   1.379
26092WAT     H178518   5.115   4.837   1.302
26092WAT     H278519   5.137   4.980   1.379
26093WAT      O78520   6.179   6.823   5.876
26093WAT     H178521   6.170   6.883   5.797
26093WAT     H278522   6.109   6.752   5.872
26094WAT      O78523   5.054   9.611   9.833
26094WAT     H178524   5.105   9.690   9.801
26094WAT     H278525   5.064   9.536   9.768
26095WAT      O78526   6.310   8.440   7.666
26095WAT     H178527   6.220   8.424   7.708
26095WAT     H278528   6.313   8.532   7.627
26096WAT      O78529   6.661   1.055   8.288
26096WAT     H178530   6.600   1.088   8.216
26096WAT     H278531   6.746   1.107   8.286
26097WAT      O78532   7.671   3.228   6.971
26097WAT     H178533   7.678   3.311   7.028
26097WAT     H278534   7.642   3.253   6.879
26098WAT      O78535   3.009   2.055   3.564
26098WAT     H178536   3.057   1.993   3.501
26098WAT     H278537   3.008   2.015   3.655
26099WAT      O78538   4.779   6.289   9.688
26099WAT     H178539   4.688   6.260   9.717
26099WAT     H278540   4.829   6.324   9.767
26100WAT      O78541   2.620   7.602   6.773
26100WAT     H178542   2.578   7.574   6.859
26100WAT     H278543   2.719   7.588   6.777
26101WAT      O78544   9.145   1.691   6.944
26101WAT     H178545   9.119   1.596   6.959
26101WAT     H278546   9.129   1.744   7.027
26102WAT      O78547   7.490   8.320   6.058
26102WAT     H178548   7.482   8.419   6.050
26102WAT     H278549   7.401   8.278   6.040
26103WAT      O78550   5.399   8.661   5.636
26103WAT     H178551   5.452   8.577   5.627
26103WAT     H278552   5.326   8.648   5.702
26104WAT      O78553   4.260   5.312   0.746
26104WAT     H178554   4.214   5.395   0.716
26104WAT     H278555   4.192   5.244   0.772
26105WAT      O78556   7.644   7.030   2.740
26105WAT     H178557   7.693   6.975   2.809
26105WAT     H278558   7.582   7.093   2.786
26106WAT      O78559   7.637   2.367   6.582
26106WAT     H178560   7.538   2.351   6.590
26106WAT     H278561   7.679   2.294   6.529
26107WAT      O78562   2.943   3.645   1.478
26107WAT     H178563   2.944   3.626   1.380
26107WAT     H278564   2.916   3.563   1.527
26108WAT      O78565   6.258   9.241   0.033
26108WAT     H178566   6.314   9.166  -0.002
26108WAT     H278567   6.306   9.287   0.107
26109WAT      O78568   8.581   0.620   1.646
26109WAT     H178569   8.514   0.549   1.666
26109WAT     H278570   8.665   0.602   1.697
26110WAT      O78571   5.127   3.938   4.685
26110WAT     H178572   5.051   3.908   4.743
26110WAT     H278573   5.113   4.033   4.657
26111WAT      O78574   2.711   8.147   3.946
26111WAT     H178575   2.722   8.137   4.045
26111WAT     H278576   2.690   8.058   3.905
26112WAT      O78577   3.462   7.288   4.027
26112WAT     H178578   3.373   7.316   3.989
26112WAT     H278579   3.450   7.255   4.120
26113WAT      O78580   5.197   0.083   3.138
26113WAT     H178581   5.249   0.041   3.213
26113WAT     H278582   5.238   0.170   3.113
26114WAT      O78583   8.626   4.628   6.784
26114WAT     H178584   8.634   4.700   6.853
26114WAT     H278585   8.677   4.547   6.814
26115WAT      O78586   7.341   3.252   1.462
26115WAT     H178587   7.308   3.297   1.546
26115WAT     H278588   7.376   3.162   1.485
26116WAT      O78589   3.416   3.604   2.548
26116WAT     H178590   3.359   3.677   2.511
26116WAT     H278591   3.371   3.562   2.626
26117WAT      O78592   8.209   3.476   9.058
26117WAT     H178593   8.279   3.486   9.129
26117WAT     H278594   8.248   3.433   8.977
26118WAT      O78595   1.837   4.265   7.589
26118WAT     H178596   1.811   4.221   7.675
26118WAT     H278597   1.903   4.208   7.541
26119WAT      O78598   2.038   2.246   7.644
26119WAT     H178599   2.055   2.335   7.687
26119WAT     H278600   2.121   2.214   7.599
26120WAT      O78601   1.450   0.939   0.128
26120WAT     H178602   1.401   0.865   0.083
26120WAT     H278603   1.390   1.019   0.137
26121WAT      O78604   9.679   6.101   5.775
26121WAT     H178605   9.692   6.003   5.792
26121WAT     H278606   9.625   6.114   5.692
26122WAT      O78607   9.027   8.090   8.401
26122WAT     H178608   8.940   8.130   8.430
26122WAT     H278609   9.010   8.000   8.359
26123WAT      O78610   2.773   3.449   1.037
26123WAT     H178611   2.705   3.428   1.107
26123WAT     H278612   2.758   3.542   1.003
26124WAT      O78613   5.621   8.476   7.836
26124WAT     H178614   5.539   8.503   7.786
26124WAT     H278615   5.694   8.543   7.818
26125WAT      O78616   4.786   3.325   5.118
26125WAT     H178617   4.741   3.389   5.181
26125WAT     H278618   4.839   3.376   5.051
26126WAT      O78619   8.191   5.256   5.703
26126WAT     H178620   8.269   5.229   5.647
26126WAT     H278621   8.108   5.250   5.648
26127WAT      O78622   5.285   5.911   7.362
26127WAT     H178623   5.206   5.902   7.423
26127WAT     H278624   5.257   5.954   7.276
26128WAT      O78625   8.585   7.562   8.277
26128WAT     H178626   8.619   7.599   8.363
26128WAT     H278627   8.596   7.463   8.277
26129WAT      O78628   6.747   1.037   7.029
26129WAT     H178629   6.669   1.099   7.028
26129WAT     H278630   6.714   0.942   7.027
26130WAT      O78631   7.332   5.906   3.096
26130WAT     H178632   7.332   6.004   3.075
26130WAT     H278633   7.237   5.873   3.095
26131WAT      O78634   7.513   9.027   0.010
26131WAT     H178635   7.594   9.085   0.014
26131WAT     H278636   7.498   8.998  -0.085
26132WAT      O78637   8.293   8.078   4.360
26132WAT     H178638   8.323   7.987   4.387
26132WAT     H278639   8.234   8.116   4.431
26133WAT      O78640   5.936   3.304   5.374
26133WAT     H178641   5.931   3.231   5.442
26133WAT     H278642   5.843   3.326   5.343
26134WAT      O78643   9.221   8.525   0.353
26134WAT     H178644   9.229   8.601   0.417
26134WAT     H278645   9.124   8.505   0.337
26135WAT      O78646   1.547   7.771   7.377
26135WAT     H178647   1.602   7.752   7.459
26135WAT     H278648   1.605   7.761   7.296
26136WAT      O78649   4.537   2.187   1.149
26136WAT     H178650   4.510   2.284   1.153
26136WAT     H278651   4.611   2.176   1.084
26137WAT      O78652   2.502   9.003   0.561
26137WAT     H178653   2.451   8.930   0.516
26137WAT     H278654   2.441   9.081   0.577
26138WAT      O78655   5.854   7.607   0.935
26138WAT     H178656   5.874   7.592   1.032
26138WAT     H278657   5.939   7.620   0.884
26139WAT      O78658   8.683   9.148   4.319
26139WAT     H178659   8.592   9.118   4.347
26139WAT     H278660   8.689   9.150   4.219
26140WAT      O78661   6.278   3.166   5.124
26140WAT     H178662   6.181   3.172   5.097
26140WAT     H278663   6.286   3.103   5.201
26141WAT      O78664   5.006   9.770   7.933
26141WAT     H178665   5.006   9.711   8.014
26141WAT     H278666   5.099   9.803   7.916
26142WAT      O78667   1.459   4.119   1.903
26142WAT     H178668   1.529   4.167   1.956
26142WAT     H278669   1.414   4.052   1.960
26143WAT      O78670   1.395   5.525   8.093
26143WAT     H178671   1.373   5.434   8.058
26143WAT     H278672   1.465   5.567   8.034
26144WAT      O78673   8.404   0.779   8.315
26144WAT     H178674   8.448   0.795   8.403
26144WAT     H278675   8.342   0.701   8.322
26145WAT      O78676   3.521   9.299   8.858
26145WAT     H178677   3.568   9.377   8.899
26145WAT     H278678   3.516   9.224   8.924
26146WAT      O78679   1.613   6.068   8.148
26146WAT     H178680   1.548   6.006   8.192
26146WAT     H278681   1.693   6.080   8.207
26147WAT      O78682   9.057   6.727   6.940
26147WAT     H178683   9.026   6.773   6.857
26147WAT     H278684   8.977   6.697   6.992
26148WAT      O78685   3.753   1.734   2.323
26148WAT     H178686   3.829   1.669   2.332
26148WAT     H278687   3.734   1.775   2.412
26149WAT      O78688   1.596   1.888   0.292
26149WAT     H178689   1.543   1.861   0.373
26149WAT     H278690   1.689   1.911   0.320
26150WAT      O78691   8.012   9.664   5.862
26150WAT     H178692   8.068   9.739   5.827
26150WAT     H278693   8.067   9.580   5.864
26151WAT      O78694   5.828   5.615   4.056
26151WAT     H178695   5.738   5.623   4.098
26151WAT     H278696   5.831   5.668   3.972
26152WAT      O78697   3.415   2.955   0.230
26152WAT     H178698   3.429   3.012   0.311
26152WAT     H278699   3.490   2.970   0.166
26153WAT      O78700   4.732   9.573   0.744
26153WAT     H178701   4.787   9.514   0.803
26153WAT     H278702   4.685   9.517   0.676
26154WAT      O78703   8.962   8.723   1.233
26154WAT     H178704   8.989   8.816   1.254
26154WAT     H278705   8.877   8.701   1.281
26155WAT      O78706   9.403   4.515   6.567
26155WAT     H178707   9.502   4.511   6.551
26155WAT     H278708   9.385   4.524   6.664
26156WAT      O78709   6.782   9.059   4.970
26156WAT     H178710   6.872   9.033   4.937
26156WAT     H278711   6.791   9.127   5.044
26157WAT      O78712   2.415   1.094   4.985
26157WAT     H178713   2.437   1.068   4.891
26157WAT     H278714   2.320   1.070   5.005
26158WAT      O78715   1.063   3.803   6.021
26158WAT     H178716   1.090   3.726   6.078
26158WAT     H278717   1.085   3.784   5.925
26159WAT      O78718   8.347   2.122   8.159
26159WAT     H178719   8.386   2.093   8.071
26159WAT     H278720   8.276   2.190   8.142
26160WAT      O78721   8.859   4.350   3.745
26160WAT     H178722   8.897   4.374   3.656
26160WAT     H278723   8.803   4.267   3.737
26161WAT      O78724   7.693   6.383   6.059
26161WAT     H178725   7.740   6.299   6.032
26161WAT     H278726   7.739   6.462   6.019
26162WAT      O78727   3.381   6.034   4.321
26162WAT     H178728   3.383   5.934   4.321
26162WAT     H278729   3.300   6.065   4.272
26163WAT      O78730   2.973   1.689   1.873
26163WAT     H178731   3.024   1.674   1.957
26163WAT     H278732   2.950   1.785   1.864
26164WAT      O78733   7.036   3.059   8.051
26164WAT     H178734   6.942   3.080   8.026
26164WAT     H278735   7.076   3.138   8.098
26165WAT      O78736   7.382   1.162   8.731
26165WAT     H178737   7.289   1.196   8.740
26165WAT     H278738   7.446   1.239   8.731
26166WAT      O78739   3.858   9.686   7.739
26166WAT     H178740   3.857   9.763   7.804
26166WAT     H278741   3.850   9.722   7.646
26167WAT      O78742   7.353   1.051   8.084
26167WAT     H178743   7.354   1.084   7.989
26167WAT     H278744   7.411   1.109   8.140
26168WAT      O78745   2.002   5.253   9.173
26168WAT     H178746   1.960   5.333   9.130
26168WAT     H278747   2.073   5.216   9.113
26169WAT      O78748   5.221   4.601   7.199
26169WAT     H178749   5.316   4.631   7.193
26169WAT     H278750   5.187   4.579   7.107
26170WAT      O78751   7.945   6.017   7.723
26170WAT     H178752   7.941   6.027   7.823
26170WAT     H278753   7.995   6.095   7.684
26171WAT      O78754   2.093   3.695   0.093
26171WAT     H178755   2.131   3.605   0.071
26171WAT     H278756   1.993   3.690   0.094
26172WAT      O78757   3.246   8.433   8.307
26172WAT     H178758   3.342   8.457   8.323
26172WAT     H278759   3.197   8.514   8.275
26173WAT      O78760   9.115   1.229   6.140
26173WAT     H178761   9.071   1.264   6.223
26173WAT     H278762   9.168   1.147   6.163
26174WAT      O78763   6.143   9.618   4.840
26174WAT     H178764   6.205   9.694   4.821
26174WAT     H278765   6.059   9.630   4.788
26175WAT      O78766   9.589   4.193   5.472
26175WAT     H178767   9.536   4.145   5.542
26175WAT     H278768   9.687   4.182   5.492
26176WAT      O78769   9.488   7.935   8.172
26176WAT     H178770   9.393   7.946   8.200
26176WAT     H278771   9.538   8.020   8.188
26177WAT      O78772   2.760   0.421   9.228
26177WAT     H178773   2.675   0.369   9.228
26177WAT     H278774   2.761   0.485   9.306
26178WAT      O78775   5.070   3.761   1.207
26178WAT     H178776   5.099   3.756   1.112
26178WAT     H278777   5.128   3.825   1.257
26179WAT      O78778   0.635   0.352   1.660
26179WAT     H178779   0.659   0.313   1.571
26179WAT     H278780   0.714   0.348   1.721
26180WAT      O78781   3.576   2.240   6.660
26180WAT     H178782   3.604   2.275   6.571
26180WAT     H278783   3.484   2.273   6.681
26181WAT      O78784   6.949   2.926   2.523
26181WAT     H178785   6.940   2.846   2.582
26181WAT     H278786   6.970   3.007   2.577
26182WAT      O78787   3.590   4.919   3.835
26182WAT     H178788   3.659   4.864   3.882
26182WAT     H278789   3.573   5.003   3.887
26183WAT      O78790   2.866   8.721   2.342
26183WAT     H178791   2.905   8.811   2.323
26183WAT     H278792   2.920   8.676   2.414
26184WAT      O78793   6.862   2.660   0.669
26184WAT     H178794   6.846   2.567   0.638
26184WAT     H278795   6.780   2.715   0.651
26185WAT      O78796   2.951   7.850   3.009
26185WAT     H178797   3.025   7.802   2.961
26185WAT     H278798   2.979   7.869   3.103
26186WAT      O78799   5.036   4.376   1.438
26186WAT     H178800   4.936   4.367   1.440
26186WAT     H278801   5.069   4.408   1.527
26187WAT      O78802   8.576   4.749   2.124
26187WAT     H178803   8.491   4.790   2.090
26187WAT     H278804   8.562   4.716   2.217
26188WAT      O78805   9.581   8.666   6.168
26188WAT     H178806   9.518   8.739   6.142
26188WAT     H278807   9.670   8.680   6.125
26189WAT      O78808   2.615   9.152   7.491
26189WAT     H178809   2.569   9.235   7.458
26189WAT     H278810   2.574   9.123   7.577
26190WAT      O78811   4.154   6.996   5.049
26190WAT     H178812   4.064   6.973   5.088
26190WAT     H278813   4.192   6.916   5.003
26191WAT      O78814   5.101   2.448   4.734
26191WAT     H178815   5.049   2.405   4.808
26191WAT     H278816   5.047   2.521   4.693
26192WAT      O78817   8.969   8.540   4.003
26192WAT     H178818   8.986   8.450   4.042
26192WAT     H278819   9.016   8.548   3.915
26193WAT      O78820   7.990   1.041   1.406
26193WAT     H178821   8.084   1.023   1.376
26193WAT     H278822   7.934   1.065   1.327
26194WAT      O78823   4.845   3.899   6.994
26194WAT     H178824   4.767   3.962   6.999
26194WAT     H278825   4.860   3.857   7.083
26195WAT      O78826   7.910   0.824   3.911
26195WAT     H178827   7.891   0.912   3.867
26195WAT     H278828   8.008   0.817   3.931
26196WAT      O78829   6.965   6.486   4.586
26196WAT     H178830   7.043   6.443   4.540
26196WAT     H278831   6.935   6.428   4.661
26197WAT      O78832   7.097   4.058   2.272
26197WAT     H178833   7.120   4.072   2.176
26197WAT     H278834   7.178   4.074   2.328
26198WAT      O78835   6.805   1.279   9.217
26198WAT     H178836   6.881   1.344   9.222
26198WAT     H278837   6.733   1.317   9.159
26199WAT      O78838   1.356   2.764   9.440
26199WAT     H178839   1.275   2.735   9.491
26199WAT     H278840   1.373   2.861   9.457
26200WAT      O78841   5.865   9.807   1.050
26200WAT     H178842   5.781   9.845   1.012
26200WAT     H278843   5.939   9.815   0.982
26201WAT      O78844   9.231   8.349   4.344
26201WAT     H178845   9.319   8.396   4.355
26201WAT     H278846   9.158   8.405   4.383
26202WAT      O78847   4.725   3.697   7.701
26202WAT     H178848   4.696   3.770   7.640
26202WAT     H278849   4.741   3.614   7.647
26203WAT      O78850   2.240   5.256   3.715
26203WAT     H178851   2.339   5.267   3.717
26203WAT     H278852   2.213   5.176   3.769
26204WAT      O78853   2.733   5.770   4.409
26204WAT     H178854   2.650   5.773   4.465
26204WAT     H278855   2.813   5.775   4.469
26205WAT      O78856   6.310   5.236   9.890
26205WAT     H178857   6.338   5.216   9.984
26205WAT     H278858   6.384   5.211   9.828
26206WAT      O78859   3.079   6.153   0.382
26206WAT     H178860   3.038   6.173   0.293
26206WAT     H278861   3.176   6.176   0.380
26207WAT      O78862   2.562   7.569   7.336
26207WAT     H178863   2.536   7.476   7.363
26207WAT     H278864   2.498   7.634   7.379
26208WAT      O78865   8.336   0.503   5.285
26208WAT     H178866   8.393   0.446   5.345
26208WAT     H278867   8.390   0.580   5.251
26209WAT      O78868   7.964   0.043   1.180
26209WAT     H178869   8.012  -0.026   1.234
26209WAT     H278870   8.021   0.070   1.102
26210WAT      O78871   2.596   6.657   2.947
26210WAT     H178872   2.656   6.723   2.991
26210WAT     H278873   2.502   6.673   2.975
26211WAT      O78874   4.293   8.607   4.537
26211WAT     H178875   4.325   8.525   4.584
26211WAT     H278876   4.216   8.582   4.477
26212WAT      O78877   2.123   6.433   8.267
26212WAT     H178878   2.151   6.348   8.223
26212WAT     H278879   2.202   6.493   8.277
26213WAT      O78880   3.893   2.074   6.012
26213WAT     H178881   3.985   2.097   5.982
26213WAT     H278882   3.835   2.156   6.009
26214WAT      O78883   4.274   2.167   9.566
26214WAT     H178884   4.189   2.214   9.586
26214WAT     H278885   4.264   2.113   9.482
26215WAT      O78886   2.816   4.649   5.370
26215WAT     H178887   2.882   4.585   5.330
26215WAT     H278888   2.833   4.658   5.468
26216WAT      O78889   7.197   3.315   0.425
26216WAT     H178890   7.130   3.353   0.489
26216WAT     H278891   7.259   3.254   0.473
26217WAT      O78892   5.241   6.786   1.263
26217WAT     H178893   5.286   6.867   1.301
26217WAT     H278894   5.270   6.705   1.314
26218WAT      O78895   0.985   2.550   6.165
26218WAT     H178896   0.947   2.517   6.078
26218WAT     H278897   0.911   2.565   6.230
26219WAT      O78898   1.824   6.431   0.835
26219WAT     H178899   1.816   6.530   0.848
26219WAT     H278900   1.838   6.411   0.739
26220WAT      O78901   1.737   7.340   3.890
26220WAT     H178902   1.734   7.329   3.791
26220WAT     H278903   1.749   7.436   3.913
26221WAT      O78904   0.855   1.156   0.241
26221WAT     H178905   0.879   1.133   0.336
26221WAT     H278906   0.887   1.248   0.220
26222WAT      O78907   1.994   0.048   9.110
26222WAT     H178908   1.942  -0.034   9.088
26222WAT     H278909   1.973   0.078   9.203
26223WAT      O78910   0.694   6.617   8.904
26223WAT     H178911   0.751   6.535   8.902
26223WAT     H278912   0.738   6.687   8.961
26224WAT      O78913   1.271   5.579   1.316
26224WAT     H178914   1.205   5.506   1.331
26224WAT     H278915   1.230   5.667   1.340
26225WAT      O78916   9.141   0.455   1.165
26225WAT     H178917   9.059   0.445   1.222
26225WAT     H278918   9.217   0.406   1.208
26226WAT      O78919   5.215   5.884   2.628
26226WAT     H178920   5.204   5.875   2.529
26226WAT     H278921   5.312   5.890   2.651
26227WAT      O78922   1.927   4.408   6.927
26227WAT     H178923   2.009   4.352   6.915
26227WAT     H278924   1.870   4.402   6.846
26228WAT      O78925   6.804   0.962   9.414
26228WAT     H178926   6.877   1.030   9.422
26228WAT     H278927   6.742   0.988   9.340
26229WAT      O78928   5.688   5.571   1.612
26229WAT     H178929   5.653   5.545   1.702
26229WAT     H278930   5.761   5.639   1.623
26230WAT      O78931   9.108   4.927   1.617
26230WAT     H178932   9.089   4.862   1.691
26230WAT     H278933   9.118   4.877   1.531
26231WAT      O78934   9.609   9.842   3.125
26231WAT     H178935   9.555   9.806   3.201
26231WAT     H278936   9.575   9.804   3.039
26232WAT      O78937   5.686   0.855   2.701
26232WAT     H178938   5.630   0.808   2.769
26232WAT     H278939   5.638   0.858   2.614
26233WAT      O78940   3.680   3.348   7.237
26233WAT     H178941   3.642   3.409   7.166
26233WAT     H278942   3.772   3.380   7.261
26234WAT      O78943   3.008   6.748   7.666
26234WAT     H178944   2.916   6.708   7.672
26234WAT     H278945   3.003   6.838   7.623
26235WAT      O78946   5.406   7.098   3.757
26235WAT     H178947   5.436   7.177   3.810
26235WAT     H278948   5.477   7.073   3.691
26236WAT      O78949   5.494   5.925   2.758
26236WAT     H178950   5.584   5.940   2.798
26236WAT     H278951   5.428   5.988   2.799
26237WAT      O78952   3.573   7.036   6.734
26237WAT     H178953   3.571   7.076   6.826
26237WAT     H278954   3.493   7.067   6.683
26238WAT      O78955   0.020   5.412   0.814
26238WAT     H178956  -0.054   5.353   0.781
26238WAT     H278957  -0.017   5.501   0.840
26239WAT      O78958   3.484   2.753   8.927
26239WAT     H178959   3.503   2.684   8.857
26239WAT     H278960   3.513   2.843   8.895
26240WAT      O78961   6.295   9.072   2.193
26240WAT     H178962   6.347   9.079   2.108
26240WAT     H278963   6.205   9.115   2.181
26241WAT      O78964   1.218   0.370   9.033
26241WAT     H178965   1.197   0.450   9.089
26241WAT     H278966   1.295   0.390   8.973
26242WAT      O78967   0.491   2.767   5.921
26242WAT     H178968   0.520   2.823   5.843
26242WAT     H278969   0.522   2.809   6.006
26243WAT      O78970   3.559   9.717   6.417
26243WAT     H178971   3.530   9.649   6.483
26243WAT     H278972   3.657   9.705   6.397
26244WAT      O78973   0.580   5.366   4.356
26244WAT     H178974   0.607   5.433   4.287
26244WAT     H278975   0.654   5.299   4.368
26245WAT      O78976   9.274   6.310   0.646
26245WAT     H178977   9.269   6.306   0.746
26245WAT     H278978   9.364   6.342   0.618
26246WAT      O78979   1.563   6.754   4.912
26246WAT     H178980   1.496   6.728   4.843
26246WAT     H278981   1.638   6.805   4.868
26247WAT      O78982   2.826   6.071   3.933
26247WAT     H178983   2.890   6.147   3.933
26247WAT     H278984   2.828   6.025   3.844
26248WAT      O78985   2.230   8.553   5.492
26248WAT     H178986   2.175   8.549   5.575
26248WAT     H278987   2.253   8.648   5.472
26249WAT      O78988   2.402   6.634   1.701
26249WAT     H178989   2.413   6.550   1.755
26249WAT     H278990   2.491   6.661   1.664
26250WAT      O78991   5.491   7.761   6.555
26250WAT     H178992   5.583   7.798   6.570
26250WAT     H278993   5.485   7.669   6.593
26251WAT      O78994   3.067   7.597   2.862
26251WAT     H178995   3.026   7.506   2.853
26251WAT     H278996   3.033   7.656   2.789
26252WAT      O78997   4.402   4.036   5.658
26252WAT     H178998   4.364   4.124   5.629
26252WAT     H278999   4.337   3.963   5.638
26253WAT      O79000   3.694   0.412   2.973
26253WAT     H179001   3.788   0.430   3.000
26253WAT     H279002   3.690   0.325   2.923
26254WAT      O79003   8.714   3.808   6.666
26254WAT     H179004   8.762   3.793   6.753
26254WAT     H279005   8.630   3.860   6.683
26255WAT      O79006   6.530   6.744   9.400
26255WAT     H179007   6.602   6.707   9.342
26255WAT     H279008   6.491   6.826   9.357
26256WAT      O79009   3.557   7.757   8.445
26256WAT     H179010   3.524   7.832   8.387
26256WAT     H279011   3.486   7.687   8.454
26257WAT      O79012   4.556   9.785   6.594
26257WAT     H179013   4.509   9.861   6.638
26257WAT     H279014   4.584   9.812   6.502
26258WAT      O79015   5.688   6.358   7.590
26258WAT     H179016   5.663   6.266   7.562
26258WAT     H279017   5.778   6.381   7.555
26259WAT      O79018   9.317   3.946   3.409
26259WAT     H179019   9.272   3.857   3.402
26259WAT     H279020   9.404   3.936   3.457
26260WAT      O79021   2.883   3.868   7.115
26260WAT     H179022   2.815   3.796   7.101
26260WAT     H279023   2.839   3.957   7.100
26261WAT      O79024   5.293   0.874   8.659
26261WAT     H179025   5.339   0.962   8.666
26261WAT     H279026   5.344   0.814   8.598
26262WAT      O79027   6.009   8.581   1.897
26262WAT     H179028   6.008   8.481   1.888
26262WAT     H279029   6.001   8.605   1.993
26263WAT      O79030   0.005   0.263   0.409
26263WAT     H179031  -0.094   0.259   0.418
26263WAT     H279032   0.038   0.353   0.438
26264WAT      O79033   9.643   2.332   0.829
26264WAT     H179034   9.589   2.253   0.800
26264WAT     H279035   9.634   2.344   0.928
26265WAT      O79036   8.586   8.703   7.537
26265WAT     H179037   8.677   8.723   7.501
26265WAT     H279038   8.572   8.604   7.542
26266WAT      O79039   9.159   6.858   3.868
26266WAT     H179040   9.111   6.946   3.864
26266WAT     H279041   9.226   6.854   3.793
26267WAT      O79042   7.674   4.399   5.804
26267WAT     H179043   7.643   4.479   5.854
26267WAT     H279044   7.618   4.386   5.723
26268WAT      O79045   3.526   8.378   8.720
26268WAT     H179046   3.432   8.397   8.695
26268WAT     H279047   3.561   8.302   8.665
26269WAT      O79048   1.849   5.542   0.164
26269WAT     H179049   1.908   5.581   0.235
26269WAT     H279050   1.762   5.593   0.163
26270WAT      O79051   6.015   6.934   7.951
26270WAT     H179052   6.059   6.861   7.897
26270WAT     H279053   5.999   6.901   8.044
26271WAT      O79054   6.395   5.081   6.452
26271WAT     H179055   6.438   5.079   6.362
26271WAT     H279056   6.320   5.015   6.454
26272WAT      O79057   1.283   1.598   6.986
26272WAT     H179058   1.328   1.516   6.950
26272WAT     H279059   1.353   1.658   7.026
26273WAT      O79060   2.320   8.357   4.539
26273WAT     H179061   2.395   8.406   4.584
26273WAT     H279062   2.341   8.348   4.441
26274WAT      O79063   1.547   2.072   5.714
26274WAT     H179064   1.581   2.161   5.743
26274WAT     H279065   1.624   2.007   5.708
26275WAT      O79066   4.301   2.943   6.253
26275WAT     H179067   4.329   3.019   6.312
26275WAT     H279068   4.241   2.881   6.303
26276WAT      O79069   6.235   4.436   1.916
26276WAT     H179070   6.332   4.438   1.894
26276WAT     H279071   6.219   4.370   1.990
26277WAT      O79072   5.504   8.276   0.531
26277WAT     H179073   5.437   8.246   0.598
26277WAT     H279074   5.474   8.249   0.439
26278WAT      O79075   7.025   4.557   8.878
26278WAT     H179076   7.073   4.478   8.918
26278WAT     H279077   7.066   4.580   8.790
26279WAT      O79078   4.972   3.356   4.041
26279WAT     H179079   4.943   3.310   4.125
26279WAT     H279080   4.966   3.455   4.053
26280WAT      O79081   3.921   5.436   4.593
26280WAT     H179082   4.019   5.442   4.614
26280WAT     H279083   3.901   5.345   4.557
26281WAT      O79084   5.904   4.172   1.649
26281WAT     H179085   5.846   4.106   1.697
26281WAT     H279086   5.994   4.175   1.692
26282WAT      O79087   1.603   4.293   0.032
26282WAT     H179088   1.684   4.351   0.019
26282WAT     H279089   1.526   4.349   0.060
26283WAT      O79090   4.417   3.435   9.434
26283WAT     H179091   4.392   3.515   9.489
26283WAT     H279092   4.498   3.456   9.379
26284WAT      O79093   7.119   7.268   5.364
26284WAT     H179094   7.066   7.292   5.282
26284WAT     H279095   7.068   7.295   5.445
26285WAT      O79096   9.306   7.390   4.532
26285WAT     H179097   9.344   7.483   4.533
26285WAT     H279098   9.353   7.336   4.462
26286WAT      O79099   7.854   2.407   0.692
26286WAT     H179100   7.932   2.470   0.696
26286WAT     H279101   7.842   2.363   0.781
26287WAT      O79102   8.003   6.268   1.309
26287WAT     H179103   7.965   6.191   1.359
26287WAT     H279104   8.090   6.296   1.351
26288WAT      O79105   1.124   3.656   4.797
26288WAT     H179106   1.162   3.654   4.705
26288WAT     H279107   1.071   3.741   4.810
26289WAT      O79108   6.627   2.593   9.255
26289WAT     H179109   6.610   2.630   9.346
26289WAT     H279110   6.551   2.534   9.228
26290WAT      O79111   5.338   9.837   1.491
26290WAT     H179112   5.407   9.778   1.533
26290WAT     H279113   5.338   9.926   1.536
26291WAT      O79114   6.398   3.604   8.329
26291WAT     H179115   6.495   3.613   8.350
26291WAT     H279116   6.383   3.521   8.275
26292WAT      O79117   5.958   9.092   8.837
26292WAT     H179118   6.014   9.106   8.918
26292WAT     H279119   5.962   9.173   8.779
26293WAT      O79120   4.012   1.160   6.024
26293WAT     H179121   3.947   1.138   6.096
26293WAT     H279122   4.074   1.232   6.055
26294WAT      O79123   2.406   3.502   6.374
26294WAT     H179124   2.474   3.456   6.318
26294WAT     H279125   2.319   3.452   6.369
26295WAT      O79126   3.407   4.159   2.235
26295WAT     H179127   3.450   4.081   2.189
26295WAT     H279128   3.469   4.236   2.235
26296WAT      O79129   0.298   1.606   5.995
26296WAT     H179130   0.332   1.568   6.081
26296WAT     H279131   0.288   1.705   6.004
26297WAT      O79132   7.237   1.721   6.864
26297WAT     H179133   7.289   1.703   6.780
26297WAT     H279134   7.195   1.636   6.896
26298WAT      O79135   2.460   4.573   2.444
26298WAT     H179136   2.405   4.515   2.385
26298WAT     H279137   2.549   4.530   2.461
26299WAT      O79138   0.676   8.671   3.785
26299WAT     H179139   0.754   8.613   3.761
26299WAT     H279140   0.603   8.659   3.718
26300WAT      O79141   5.178   9.385   8.935
26300WAT     H179142   5.200   9.299   8.981
26300WAT     H279143   5.079   9.399   8.936
26301WAT      O79144   8.117   1.824   4.427
26301WAT     H179145   8.114   1.920   4.399
26301WAT     H279146   8.124   1.766   4.346
26302WAT      O79147   5.228   3.428   9.213
26302WAT     H179148   5.318   3.385   9.222
26302WAT     H279149   5.189   3.444   9.304
26303WAT      O79150   4.614   8.662   6.021
26303WAT     H179151   4.701   8.620   5.995
26303WAT     H279152   4.615   8.758   5.994
26304WAT      O79153   1.627   4.090   0.225
26304WAT     H179154   1.602   4.165   0.164
26304WAT     H279155   1.658   4.129   0.312
26305WAT      O79156   6.904   2.076   2.754
26305WAT     H179157   6.893   2.120   2.843
26305WAT     H279158   6.829   2.010   2.740
26306WAT      O79159   9.470   8.204   8.475
26306WAT     H179160   9.458   8.278   8.541
26306WAT     H279161   9.461   8.116   8.521
26307WAT      O79162   9.026   3.367   4.419
26307WAT     H179163   8.977   3.343   4.336
26307WAT     H279164   9.041   3.466   4.421
26308WAT      O79165   8.877   3.777   8.203
26308WAT     H179166   8.885   3.838   8.282
26308WAT     H279167   8.878   3.682   8.234
26309WAT      O79168   5.035   4.014   9.322
26309WAT     H179169   4.950   4.037   9.275
26309WAT     H279170   5.105   4.083   9.301
26310WAT      O79171   1.487   1.543   8.620
26310WAT     H179172   1.496   1.528   8.522
26310WAT     H279173   1.390   1.550   8.645
26311WAT      O79174   4.648   2.946   9.578
26311WAT     H179175   4.628   3.039   9.546
26311WAT     H279176   4.734   2.914   9.536
26312WAT      O79177   4.687   1.099   9.702
26312WAT     H179178   4.758   1.129   9.766
26312WAT     H279179   4.722   1.022   9.648
26313WAT      O79180   2.733   7.009   6.121
26313WAT     H179181   2.767   7.100   6.099
26313WAT     H279182   2.634   7.005   6.104
26314WAT      O79183   2.428   9.741   9.861
26314WAT     H179184   2.489   9.662   9.874
26314WAT     H279185   2.458   9.817   9.918
26315WAT      O79186   8.270   6.386   1.757
26315WAT     H179187   8.231   6.374   1.848
26315WAT     H279188   8.354   6.332   1.749
26316WAT      O79189   0.848   0.095   3.561
26316WAT     H179190   0.795   0.037   3.500
26316WAT     H279191   0.943   0.063   3.565
26317WAT      O79192   8.652   8.862   4.093
26317WAT     H179193   8.622   8.808   4.172
26317WAT     H279194   8.679   8.801   4.019
26318WAT      O79195   1.766   2.105   3.329
26318WAT     H179196   1.855   2.067   3.303
26318WAT     H279197   1.742   2.179   3.267
26319WAT      O79198   3.849   4.922   6.127
26319WAT     H179199   3.869   5.019   6.114
26319WAT     H279200   3.859   4.874   6.040
26320WAT      O79201   8.437   8.008   1.659
26320WAT     H179202   8.393   8.029   1.572
26320WAT     H279203   8.533   7.986   1.644
26321WAT      O79204   0.497   4.067   4.694
26321WAT     H179205   0.470   4.055   4.790
26321WAT     H279206   0.467   4.157   4.663
26322WAT      O79207   0.447   6.961   3.789
26322WAT     H179208   0.483   7.049   3.757
26322WAT     H279209   0.427   6.903   3.711
26323WAT      O79210   4.618   2.557   2.052
26323WAT     H179211   4.563   2.478   2.079
26323WAT     H279212   4.586   2.590   1.963
26324WAT      O79213   5.100   3.242   6.918
26324WAT     H179214   5.059   3.321   6.965
26324WAT     H279215   5.178   3.209   6.971
26325WAT      O79216   5.952   9.042   2.864
26325WAT     H179217   5.984   9.111   2.798
26325WAT     H279218   5.887   9.085   2.927
26326WAT      O79219   2.245   9.223   9.792
26326WAT     H179220   2.186   9.239   9.713
26326WAT     H279221   2.312   9.152   9.769
26327WAT      O79222   4.336   6.585   7.071
26327WAT     H179223   4.292   6.517   7.128
26327WAT     H279224   4.390   6.539   7.000
26328WAT      O79225   4.058   1.088   2.776
26328WAT     H179226   4.084   1.165   2.835
26328WAT     H279227   4.136   1.064   2.717
26329WAT      O79228   1.952   9.331   3.945
26329WAT     H179229   2.012   9.306   3.869
26329WAT     H279230   1.965   9.427   3.967
26330WAT      O79231   1.481   7.062   3.236
26330WAT     H179232   1.529   7.149   3.244
26330WAT     H279233   1.382   7.076   3.245
26331WAT      O79234   1.622   2.619   4.401
26331WAT     H179235   1.550   2.565   4.355
26331WAT     H279236   1.629   2.589   4.496
26332WAT      O79237   8.588   2.231   7.228
26332WAT     H179238   8.518   2.207   7.295
26332WAT     H279239   8.674   2.250   7.274
26333WAT      O79240   6.122   8.308   2.531
26333WAT     H179241   6.155   8.396   2.565
26333WAT     H279242   6.049   8.323   2.463
26334WAT      O79243   6.807   0.945   8.960
26334WAT     H179244   6.742   0.942   8.884
26334WAT     H279245   6.766   0.993   9.038
26335WAT      O79246   1.670   6.826   0.056
26335WAT     H179247   1.667   6.745   0.114
26335WAT     H279248   1.619   6.809  -0.029
26336WAT      O79249   7.092   4.738   0.890
26336WAT     H179250   7.102   4.837   0.897
26336WAT     H279251   7.088   4.711   0.794
26337WAT      O79252   4.182   6.231   2.866
26337WAT     H179253   4.224   6.157   2.919
26337WAT     H279254   4.253   6.294   2.834
26338WAT      O79255   0.023   0.074   7.819
26338WAT     H179256   0.017   0.135   7.898
26338WAT     H279257  -0.045   0.001   7.828
26339WAT      O79258   8.149   2.820   8.363
26339WAT     H179259   8.131   2.901   8.307
26339WAT     H279260   8.127   2.737   8.312
26340WAT      O79261   9.633   3.811   6.521
26340WAT     H179262   9.586   3.806   6.608
26340WAT     H279263   9.595   3.744   6.457
26341WAT      O79264   0.479   7.941   7.992
26341WAT     H179265   0.526   7.853   7.993
26341WAT     H279266   0.380   7.927   7.989
26342WAT      O79267   7.404   2.238   6.679
26342WAT     H179268   7.313   2.238   6.638
26342WAT     H279269   7.396   2.257   6.777
26343WAT      O79270   0.602   6.944   6.923
26343WAT     H179271   0.512   6.923   6.884
26343WAT     H279272   0.628   7.038   6.900
26344WAT      O79273   3.744   1.459   5.266
26344WAT     H179274   3.843   1.455   5.277
26344WAT     H279275   3.710   1.549   5.294
26345WAT      O79276   7.699   1.284   9.180
26345WAT     H179277   7.637   1.358   9.205
26345WAT     H279278   7.754   1.311   9.100
26346WAT      O79279   1.113   4.703   2.675
26346WAT     H179280   1.052   4.774   2.709
26346WAT     H279281   1.061   4.619   2.659
26347WAT      O79282   1.707   4.064   3.674
26347WAT     H179283   1.633   4.107   3.621
26347WAT     H279284   1.747   4.132   3.737
26348WAT      O79285   4.298   7.338   3.138
26348WAT     H179286   4.253   7.273   3.199
26348WAT     H279287   4.266   7.324   3.044
26349WAT      O79288   4.314   7.112   5.243
26349WAT     H179289   4.264   7.076   5.164
26349WAT     H279290   4.300   7.211   5.248
26350WAT      O79291   3.778   4.191   8.654
26350WAT     H179292   3.817   4.201   8.745
26350WAT     H279293   3.698   4.251   8.645
26351WAT      O79294   3.214   6.568   7.731
26351WAT     H179295   3.137   6.627   7.705
26351WAT     H279296   3.293   6.591   7.675
26352WAT      O79297   3.925   1.976   3.718
26352WAT     H179298   3.890   1.958   3.627
26352WAT     H279299   3.921   2.074   3.737
26353WAT      O79300   2.773   5.370   6.867
26353WAT     H179301   2.812   5.292   6.916
26353WAT     H279302   2.698   5.409   6.921
26354WAT      O79303   3.250   6.380   4.306
26354WAT     H179304   3.350   6.372   4.303
26354WAT     H279305   3.209   6.302   4.259
26355WAT      O79306   3.185   4.761   9.180
26355WAT     H179307   3.216   4.849   9.144
26355WAT     H279308   3.236   4.738   9.262
26356WAT      O79309   0.570   1.117   2.171
26356WAT     H179310   0.597   1.067   2.089
26356WAT     H279311   0.550   1.053   2.245
26357WAT      O79312   1.377   2.149   8.621
26357WAT     H179313   1.296   2.207   8.610
26357WAT     H279314   1.418   2.166   8.711
26358WAT      O79315   9.548   3.872   4.129
26358WAT     H179316   9.542   3.877   4.029
26358WAT     H279317   9.552   3.964   4.167
26359WAT      O79318   5.357   2.710   0.388
26359WAT     H179319   5.287   2.644   0.362
26359WAT     H279320   5.448   2.674   0.363
26360WAT      O79321   7.531   5.377   7.302
26360WAT     H179322   7.591   5.383   7.221
26360WAT     H279323   7.477   5.293   7.296
26361WAT      O79324   5.935   1.819   7.952
26361WAT     H179325   6.011   1.767   7.912
26361WAT     H279326   5.879   1.857   7.879
26362WAT      O79327   7.767   4.841   1.675
26362WAT     H179328   7.853   4.791   1.681
26362WAT     H279329   7.779   4.932   1.715
26363WAT      O79330   6.015   2.049   0.093
26363WAT     H179331   5.932   2.012   0.135
26363WAT     H279332   6.019   2.022  -0.003
26364WAT      O79333   8.471   3.112   6.330
26364WAT     H179334   8.488   3.014   6.319
26364WAT     H279335   8.557   3.162   6.322
26365WAT      O79336   6.048   8.533   6.059
26365WAT     H179337   6.118   8.470   6.092
26365WAT     H279338   6.024   8.598   6.131
26366WAT      O79339   4.653   5.881   4.785
26366WAT     H179340   4.724   5.951   4.778
26366WAT     H279341   4.646   5.832   4.699
26367WAT      O79342   3.729   8.996   5.408
26367WAT     H179343   3.768   9.010   5.499
26367WAT     H279344   3.729   8.898   5.387
26368WAT      O79345   2.037   6.351   6.396
26368WAT     H179346   2.021   6.372   6.492
26368WAT     H279347   2.122   6.393   6.366
26369WAT      O79348   3.359   7.530   5.312
26369WAT     H179349   3.316   7.496   5.228
26369WAT     H279350   3.430   7.467   5.342
26370WAT      O79351   7.665   8.981   0.269
26370WAT     H179352   7.610   9.034   0.204
26370WAT     H279353   7.614   8.900   0.296
26371WAT      O79354   7.770   8.613   1.270
26371WAT     H179355   7.685   8.630   1.220
26371WAT     H279356   7.846   8.607   1.206
26372WAT      O79357   2.991   2.223   3.876
26372WAT     H179358   3.008   2.133   3.836
26372WAT     H279359   3.015   2.221   3.973
26373WAT      O79360   3.755   1.678   3.353
26373WAT     H179361   3.699   1.601   3.323
26373WAT     H279362   3.769   1.741   3.277
26374WAT      O79363   4.544   1.913   3.045
26374WAT     H179364   4.618   1.933   2.980
26374WAT     H279365   4.460   1.955   3.012
26375WAT      O79366   6.978   9.262   9.856
26375WAT     H179367   6.989   9.260   9.956
26375WAT     H279368   6.881   9.263   9.833
26376WAT      O79369   8.851   8.790   9.388
26376WAT     H179370   8.788   8.837   9.325
26376WAT     H279371   8.899   8.857   9.444
26377WAT      O79372   8.245   0.170   9.811
26377WAT     H179373   8.278   0.138   9.900
26377WAT     H279374   8.263   0.268   9.802
26378WAT      O79375   0.031   0.088   0.019
26378WAT     H179376  -0.036   0.135  -0.038
26378WAT     H279377  -0.016   0.036   0.090
26379WAT      O79378   7.823   9.701   1.797
26379WAT     H179379   7.786   9.776   1.852
26379WAT     H279380   7.879   9.739   1.723
26380WAT      O79381   6.245   8.161   4.125
26380WAT     H179382   6.333   8.128   4.091
26380WAT     H279383   6.177   8.152   4.052
26381WAT      O79384   2.496   0.495   0.238
26381WAT     H179385   2.568   0.426   0.252
26381WAT     H279386   2.514   0.574   0.296
26382WAT      O79387   7.050   1.784   2.236
26382WAT     H179388   7.127   1.734   2.276
26382WAT     H279389   6.989   1.720   2.189
26383WAT      O79390   5.661   3.282   8.682
26383WAT     H179391   5.708   3.200   8.717
26383WAT     H279392   5.729   3.347   8.648
26384WAT      O79393   0.438   7.336   2.814
26384WAT     H179394   0.408   7.422   2.773
26384WAT     H279395   0.359   7.282   2.842
26385WAT      O79396   7.909   9.035   3.903
26385WAT     H179397   7.999   9.052   3.861
26385WAT     H279398   7.858   8.969   3.847
26386WAT      O79399   8.353   0.352   7.190
26386WAT     H179400   8.412   0.425   7.224
26386WAT     H279401   8.273   0.393   7.144
26387WAT      O79402   3.764   2.219   7.842
26387WAT     H179403   3.701   2.231   7.919
26387WAT     H279404   3.728   2.149   7.781
26388WAT      O79405   4.376   2.188   5.595
26388WAT     H179406   4.463   2.228   5.626
26388WAT     H279407   4.320   2.260   5.554
26389WAT      O79408   8.948   7.723   8.412
26389WAT     H179409   8.987   7.734   8.320
26389WAT     H279410   8.923   7.628   8.426
26390WAT      O79411   1.399   8.510   9.090
26390WAT     H179412   1.342   8.579   9.134
26390WAT     H279413   1.371   8.419   9.120
26391WAT      O79414   9.406   8.954   4.101
26391WAT     H179415   9.407   8.884   4.173
26391WAT     H279416   9.317   8.999   4.100
26392WAT      O79417   9.183   2.001   4.913
26392WAT     H179418   9.147   1.991   4.820
26392WAT     H279419   9.273   2.045   4.909
26393WAT      O79420   1.515   3.091   2.078
26393WAT     H179421   1.578   3.163   2.107
26393WAT     H279422   1.566   3.017   2.036
26394WAT      O79423   5.889   7.637   0.395
26394WAT     H179424   5.909   7.671   0.487
26394WAT     H279425   5.919   7.704   0.327
26395WAT      O79426   6.551   7.172   7.707
26395WAT     H179427   6.509   7.204   7.792
26395WAT     H279428   6.535   7.240   7.635
26396WAT      O79429   4.256   1.002   4.999
26396WAT     H179430   4.207   0.988   4.913
26396WAT     H279431   4.191   1.006   5.074
26397WAT      O79432   9.639   6.088   3.244
26397WAT     H179433   9.737   6.081   3.263
26397WAT     H279434   9.601   6.165   3.296
26398WAT      O79435   4.919   9.256   9.682
26398WAT     H179436   4.857   9.238   9.759
26398WAT     H279437   4.867   9.291   9.605
26399WAT      O79438   3.765   3.733   6.174
26399WAT     H179439   3.714   3.647   6.178
26399WAT     H279440   3.826   3.740   6.253
26400WAT      O79441   3.037   7.547   0.145
26400WAT     H179442   3.130   7.557   0.180
26400WAT     H279443   3.039   7.546   0.045
26401WAT      O79444   0.841   0.665   3.781
26401WAT     H179445   0.782   0.670   3.861
26401WAT     H279446   0.918   0.727   3.792
26402WAT      O79447   7.965   3.863   3.636
26402WAT     H179448   7.981   3.794   3.565
26402WAT     H279449   7.902   3.826   3.705
26403WAT      O79450   3.028   2.241   7.216
26403WAT     H179451   3.041   2.255   7.118
26403WAT     H279452   2.947   2.291   7.246
26404WAT      O79453   5.144   4.785   7.375
26404WAT     H179454   5.165   4.722   7.300
26404WAT     H279455   5.096   4.865   7.339
26405WAT      O79456   9.817   2.377   7.957
26405WAT     H179457   9.845   2.401   8.050
26405WAT     H279458   9.893   2.334   7.909
26406WAT      O79459   1.915   7.926   8.235
26406WAT     H179460   1.941   7.985   8.159
26406WAT     H279461   1.839   7.966   8.285
26407WAT      O79462   8.268   1.364   4.534
26407WAT     H179463   8.359   1.324   4.542
26407WAT     H279464   8.212   1.334   4.612
26408WAT      O79465   4.688   8.604   4.232
26408WAT     H179466   4.771   8.554   4.208
26408WAT     H279467   4.631   8.615   4.150
26409WAT      O79468   9.542   7.233   7.595
26409WAT     H179469   9.638   7.207   7.606
26409WAT     H279470   9.530   7.329   7.623
26410WAT      O79471   7.216   8.096   8.422
26410WAT     H179472   7.266   8.048   8.494
26410WAT     H279473   7.251   8.190   8.414
26411WAT      O79474   7.150   0.915   3.156
26411WAT     H179475   7.235   0.958   3.188
26411WAT     H279476   7.170   0.856   3.077
26412WAT      O79477   6.066   3.530   6.303
26412WAT     H179478   6.064   3.487   6.213
26412WAT     H279479   5.973   3.533   6.340
26413WAT      O79480   9.028   7.703   1.219
26413WAT     H179481   8.946   7.723   1.273
26413WAT     H279482   9.002   7.647   1.140
26414WAT      O79483   5.748   1.587   6.356
26414WAT     H179484   5.734   1.492   6.331
26414WAT     H279485   5.839   1.617   6.326
26415WAT      O79486   6.734   1.959   9.676
26415WAT     H179487   6.742   2.014   9.593
26415WAT     H279488   6.824   1.924   9.702
26416WAT      O79489   2.103   9.385   6.791
26416WAT     H179490   2.079   9.463   6.733
26416WAT     H279491   2.195   9.352   6.767
26417WAT      O79492   4.266   5.822   7.184
26417WAT     H179493   4.320   5.738   7.179
26417WAT     H279494   4.322   5.899   7.156
26418WAT      O79495   1.415   2.446   4.344
26418WAT     H179496   1.405   2.352   4.311
26418WAT     H279497   1.403   2.448   4.443
26419WAT      O79498   3.059   4.217   7.685
26419WAT     H179499   3.152   4.239   7.658
26419WAT     H279500   3.000   4.297   7.672
26420WAT      O79501   4.820   3.745   2.243
26420WAT     H179502   4.904   3.800   2.239
26420WAT     H279503   4.753   3.781   2.178
26421WAT      O79504   3.862   0.747   8.479
26421WAT     H179505   3.959   0.733   8.496
26421WAT     H279506   3.850   0.812   8.404
26422WAT      O79507   3.070   6.021   4.985
26422WAT     H179508   3.167   6.041   5.000
26422WAT     H279509   3.021   6.026   5.072
26423WAT      O79510   1.283   6.775   7.952
26423WAT     H179511   1.322   6.827   8.028
26423WAT     H279512   1.355   6.751   7.888
26424WAT      O79513   3.189   7.462   6.746
26424WAT     H179514   3.095   7.429   6.757
26424WAT     H279515   3.250   7.407   6.804
26425WAT      O79516   9.240   5.584   0.217
26425WAT     H179517   9.147   5.583   0.254
26425WAT     H279518   9.298   5.523   0.271
26426WAT      O79519   7.366   3.720   2.549
26426WAT     H179520   7.466   3.722   2.558
26426WAT     H279521   7.333   3.627   2.565
26427WAT      O79522   2.257   0.572   8.072
26427WAT     H179523   2.346   0.601   8.106
26427WAT     H279524   2.265   0.545   7.976
26428WAT      O79525   1.925   5.494   9.005
26428WAT     H179526   1.948   5.591   8.992
26428WAT     H279527   1.968   5.439   8.934
26429WAT      O79528   4.914   6.068   4.361
26429WAT     H179529   4.820   6.070   4.394
26429WAT     H279530   4.923   6.125   4.280
26430WAT      O79531   8.327   6.885   4.921
26430WAT     H179532   8.343   6.790   4.949
26430WAT     H279533   8.311   6.941   5.003
26431WAT      O79534   4.928   7.563   4.930
26431WAT     H179535   5.027   7.556   4.946
26431WAT     H279536   4.901   7.495   4.863
26432WAT      O79537   0.979   8.709   3.174
26432WAT     H179538   0.968   8.797   3.221
26432WAT     H279539   1.073   8.702   3.138
26433WAT      O79540   2.768   4.650   2.595
26433WAT     H179541   2.779   4.639   2.496
26433WAT     H279542   2.858   4.647   2.639
26434WAT      O79543   3.173   9.499   5.704
26434WAT     H179544   3.200   9.422   5.762
26434WAT     H279545   3.251   9.526   5.647
26435WAT      O79546   1.155   1.159   2.622
26435WAT     H179547   1.055   1.153   2.631
26435WAT     H279548   1.185   1.251   2.648
26436WAT      O79549   3.825   5.492   6.398
26436WAT     H179550   3.811   5.395   6.378
26436WAT     H279551   3.754   5.524   6.461
26437WAT      O79552   9.808   2.423   6.113
26437WAT     H179553   9.792   2.338   6.063
26437WAT     H279554   9.885   2.411   6.175
26438WAT      O79555   1.933   9.650   8.975
26438WAT     H179556   2.014   9.609   9.018
26438WAT     H279557   1.959   9.691   8.888
26439WAT      O79558   6.612   9.761   7.779
26439WAT     H179559   6.706   9.734   7.798
26439WAT     H279560   6.554   9.679   7.776
26440WAT      O79561   6.250   5.842   7.381
26440WAT     H179562   6.273   5.861   7.477
26440WAT     H279563   6.171   5.897   7.354
26441WAT      O79564   9.111   4.541   8.086
26441WAT     H179565   9.153   4.582   8.005
26441WAT     H279566   9.018   4.511   8.063
26442WAT      O79567   6.578   2.943   6.267
26442WAT     H179568   6.614   3.035   6.280
26442WAT     H279569   6.645   2.888   6.218
26443WAT      O79570   6.508   4.109   7.511
26443WAT     H179571   6.427   4.065   7.473
26443WAT     H279572   6.581   4.041   7.520
26444WAT      O79573   1.906   2.166   8.452
26444WAT     H179574   1.977   2.230   8.483
26444WAT     H279575   1.827   2.172   8.513
26445WAT      O79576   5.695   1.029   1.318
26445WAT     H179577   5.732   1.119   1.297
26445WAT     H279578   5.761   0.978   1.374
26446WAT      O79579   6.622   3.313   7.691
26446WAT     H179580   6.707   3.340   7.737
26446WAT     H279581   6.580   3.393   7.648
26447WAT      O79582   1.354   2.700   0.818
26447WAT     H179583   1.301   2.678   0.736
26447WAT     H279584   1.309   2.774   0.868
26448WAT      O79585   3.861   8.668   2.391
26448WAT     H179586   3.790   8.597   2.388
26448WAT     H279587   3.866   8.707   2.483
26449WAT      O79588   3.149   6.364   5.949
26449WAT     H179589   3.181   6.286   5.895
26449WAT     H279590   3.080   6.414   5.898
26450WAT      O79591   5.023   3.293   2.456
26450WAT     H179592   5.088   3.365   2.478
26450WAT     H279593   5.050   3.208   2.500
26451WAT      O79594   8.540   1.976   8.750
26451WAT     H179595   8.498   1.895   8.790
26451WAT     H279596   8.547   1.964   8.651
26452WAT      O79597   9.002   0.755   7.487
26452WAT     H179598   9.003   0.691   7.410
26452WAT     H279599   9.049   0.715   7.565
26453WAT      O79600   0.700   8.407   1.918
26453WAT     H179601   0.780   8.373   1.869
26453WAT     H279602   0.695   8.506   1.909
26454WAT      O79603   2.535   8.514   4.907
26454WAT     H179604   2.601   8.544   4.976
26454WAT     H279605   2.464   8.584   4.896
26455WAT      O79606   3.000   9.222   0.871
26455WAT     H179607   2.957   9.254   0.787
26455WAT     H279608   3.099   9.218   0.859
26456WAT      O79609   3.059   5.075   5.979
26456WAT     H179610   3.124   5.005   5.950
26456WAT     H279611   3.040   5.136   5.903
26457WAT      O79612   2.129   5.385   1.404
26457WAT     H179613   2.181   5.300   1.406
26457WAT     H279614   2.036   5.368   1.437
26458WAT      O79615   2.277   4.670   0.306
26458WAT     H179616   2.331   4.595   0.267
26458WAT     H279617   2.304   4.756   0.263
26459WAT      O79618   1.979   0.810   8.768
26459WAT     H179619   2.021   0.842   8.683
26459WAT     H279620   2.005   0.871   8.843
26460WAT      O79621   0.370   7.585   8.171
26460WAT     H179622   0.290   7.634   8.208
26460WAT     H279623   0.376   7.601   8.072
26461WAT      O79624   1.976   8.155   9.632
26461WAT     H179625   2.064   8.123   9.599
26461WAT     H279626   1.903   8.118   9.574
26462WAT      O79627   2.790   6.143   3.227
26462WAT     H179628   2.734   6.208   3.277
26462WAT     H279629   2.774   6.051   3.262
26463WAT      O79630   5.503   7.961   9.658
26463WAT     H179631   5.429   8.022   9.631
26463WAT     H279632   5.589   7.993   9.618
26464WAT      O79633   8.503   0.491   6.523
26464WAT     H179634   8.590   0.482   6.571
26464WAT     H279635   8.511   0.559   6.450
26465WAT      O79636   4.275   6.468   1.626
26465WAT     H179637   4.268   6.512   1.716
26465WAT     H279638   4.193   6.490   1.572
26466WAT      O79639   8.112   1.957   8.147
26466WAT     H179640   8.117   1.870   8.098
26466WAT     H279641   8.178   2.020   8.107
26467WAT      O79642   6.703   1.798   4.688
26467WAT     H179643   6.623   1.840   4.731
26467WAT     H279644   6.695   1.806   4.588
26468WAT      O79645   9.576   5.782   2.625
26468WAT     H179646   9.667   5.825   2.624
26468WAT     H279647   9.552   5.751   2.533
26469WAT      O79648   5.371   2.334   4.278
26469WAT     H179649   5.287   2.387   4.266
26469WAT     H279650   5.383   2.311   4.374
26470WAT      O79651   7.813   5.398   6.176
26470WAT     H179652   7.864   5.483   6.164
26470WAT     H279653   7.738   5.395   6.110
26471WAT      O79654   8.870   2.971   1.126
26471WAT     H179655   8.831   3.050   1.080
26471WAT     H279656   8.920   3.001   1.207
26472WAT      O79657   2.194   4.605   9.291
26472WAT     H179658   2.259   4.556   9.351
26472WAT     H279659   2.125   4.541   9.258
26473WAT      O79660   0.746   4.727   7.838
26473WAT     H179661   0.762   4.729   7.936
26473WAT     H279662   0.670   4.665   7.818
26474WAT      O79663   5.857   9.655   1.808
26474WAT     H179664   5.955   9.641   1.823
26474WAT     H279665   5.839   9.657   1.710
26475WAT      O79666   3.228   1.459   5.614
26475WAT     H179667   3.303   1.394   5.596
26475WAT     H279668   3.187   1.486   5.527
26476WAT      O79669   3.901   6.282   6.966
26476WAT     H179670   3.875   6.216   7.037
26476WAT     H279671   3.831   6.284   6.895
26477WAT      O79672   3.356   2.190   7.153
26477WAT     H179673   3.293   2.262   7.123
26477WAT     H279674   3.442   2.199   7.103
26478WAT      O79675   1.666   3.207   5.489
26478WAT     H179676   1.664   3.296   5.444
26478WAT     H279677   1.634   3.217   5.584
26479WAT      O79678   4.615   2.775   5.242
26479WAT     H179679   4.544   2.842   5.219
26479WAT     H279680   4.626   2.711   5.166
26480WAT      O79681   1.978   6.028   0.717
26480WAT     H179682   1.881   6.054   0.716
26480WAT     H279683   2.028   6.089   0.777
26481WAT      O79684   2.390   3.513   7.986
26481WAT     H179685   2.388   3.414   7.996
26481WAT     H279686   2.480   3.542   7.952
26482WAT      O79687   9.698   4.848   9.181
26482WAT     H179688   9.734   4.927   9.230
26482WAT     H279689   9.603   4.864   9.156
26483WAT      O79690   8.431   6.199   3.844
26483WAT     H179691   8.414   6.179   3.940
26483WAT     H279692   8.352   6.248   3.806
26484WAT      O79693   2.851   8.046   5.120
26484WAT     H179694   2.766   7.995   5.132
26484WAT     H279695   2.856   8.119   5.189
26485WAT      O79696   7.207   6.784   5.151
26485WAT     H179697   7.184   6.687   5.144
26485WAT     H279698   7.307   6.794   5.155
26486WAT      O79699   0.420   9.498   5.003
26486WAT     H179700   0.454   9.467   4.914
26486WAT     H279701   0.416   9.420   5.065
26487WAT      O79702   8.682   6.917   9.041
26487WAT     H179703   8.752   6.973   9.084
26487WAT     H279704   8.631   6.866   9.111
26488WAT      O79705   7.729   0.172   3.252
26488WAT     H179706   7.828   0.182   3.265
26488WAT     H279707   7.688   0.262   3.236
26489WAT      O79708   9.584   6.017   6.356
26489WAT     H179709   9.579   6.023   6.456
26489WAT     H279710   9.523   6.085   6.316
26490WAT      O79711   7.919   3.095   3.207
26490WAT     H179712   7.986   3.157   3.247
26490WAT     H279713   7.927   3.005   3.248
26491WAT      O79714   3.046   5.767   1.568
26491WAT     H179715   2.970   5.756   1.633
26491WAT     H279716   3.131   5.738   1.612
26492WAT      O79717   3.665   3.904   7.775
26492WAT     H179718   3.607   3.833   7.734
26492WAT     H279719   3.609   3.985   7.794
26493WAT      O79720   2.614   6.612   3.373
26493WAT     H179721   2.691   6.670   3.347
26493WAT     H279722   2.529   6.654   3.344
26494WAT      O79723   3.956   4.695   6.469
26494WAT     H179724   3.950   4.749   6.553
26494WAT     H279725   4.047   4.708   6.428
26495WAT      O79726   1.341   7.220   7.508
26495WAT     H179727   1.275   7.285   7.472
26495WAT     H279728   1.301   7.128   7.509
26496WAT      O79729   6.176   4.020   9.039
26496WAT     H179730   6.152   3.963   9.118
26496WAT     H279731   6.258   4.073   9.060
26497WAT      O79732   7.845   9.167   8.165
26497WAT     H179733   7.942   9.179   8.147
26497WAT     H279734   7.833   9.114   8.249
26498WAT      O79735   0.560   4.053   2.990
26498WAT     H179736   0.480   4.060   3.050
26498WAT     H279737   0.624   4.126   3.011
26499WAT      O79738   6.930   1.439   5.360
26499WAT     H179739   6.951   1.519   5.417
26499WAT     H279740   7.013   1.385   5.348
26500WAT      O79741   2.374   4.198   6.801
26500WAT     H179742   2.357   4.112   6.754
26500WAT     H279743   2.358   4.274   6.738
26501WAT      O79744   0.197   0.141   5.659
26501WAT     H179745   0.253   0.083   5.718
26501WAT     H279746   0.141   0.084   5.599
26502WAT      O79747   2.747   8.547   1.000
26502WAT     H179748   2.822   8.481   1.001
26502WAT     H279749   2.701   8.547   1.089
26503WAT      O79750   1.287   6.407   8.538
26503WAT     H179751   1.386   6.426   8.541
26503WAT     H279752   1.252   6.427   8.447
26504WAT      O79753   2.217   6.749   7.345
26504WAT     H179754   2.162   6.693   7.284
26504WAT     H279755   2.180   6.743   7.438
26505WAT      O79756   1.702   3.736   7.097
26505WAT     H179757   1.726   3.675   7.173
26505WAT     H279758   1.610   3.714   7.065
26506WAT      O79759   9.552   5.234   7.239
26506WAT     H179760   9.638   5.247   7.189
26506WAT     H279761   9.479   5.214   7.174
26507WAT      O79762   4.540   2.119   1.413
26507WAT     H179763   4.542   2.142   1.316
26507WAT     H279764   4.495   2.193   1.464
26508WAT      O79765   7.722   7.467   4.107
26508WAT     H179766   7.818   7.437   4.107
26508WAT     H279767   7.676   7.429   4.026
26509WAT      O79768   7.493   6.393   8.769
26509WAT     H179769   7.497   6.487   8.803
26509WAT     H279770   7.397   6.364   8.762
26510WAT      O79771   3.188   3.052   8.496
26510WAT     H179772   3.098   3.058   8.538
26510WAT     H279773   3.232   2.966   8.523
26511WAT      O79774   7.007   9.069   0.440
26511WAT     H179775   7.065   9.003   0.394
26511WAT     H279776   6.913   9.035   0.442
26512WAT      O79777   4.261   4.589   1.274
26512WAT     H179778   4.256   4.605   1.373
26512WAT     H279779   4.341   4.636   1.236
26513WAT      O79780   2.430   9.419   9.853
26513WAT     H179781   2.489   9.386   9.927
26513WAT     H279782   2.362   9.349   9.831
26514WAT      O79783   1.027   0.022   8.912
26514WAT     H179784   0.958   0.011   8.984
26514WAT     H279785   1.106  -0.035   8.934
26515WAT      O79786   4.680   1.686   7.896
26515WAT     H179787   4.622   1.675   7.815
26515WAT     H279788   4.773   1.656   7.874
26516WAT      O79789   8.315   8.017   3.387
26516WAT     H179790   8.245   8.058   3.328
26516WAT     H279791   8.381   8.087   3.413
26517WAT      O79792   5.915   6.792   3.545
26517WAT     H179793   5.965   6.708   3.525
26517WAT     H279794   5.817   6.774   3.540
26518WAT      O79795   3.239   7.586   3.518
26518WAT     H179796   3.213   7.648   3.444
26518WAT     H279797   3.224   7.631   3.606
26519WAT      O79798   8.794   5.371   8.674
26519WAT     H179799   8.732   5.306   8.632
26519WAT     H279800   8.820   5.339   8.765
26520WAT      O79801   6.414   3.955   8.917
26520WAT     H179802   6.415   3.903   9.002
26520WAT     H279803   6.321   3.958   8.881
26521WAT      O79804   2.711   8.945   7.347
26521WAT     H179805   2.664   9.021   7.393
26521WAT     H279806   2.718   8.867   7.409
26522WAT      O79807   9.606   5.786   8.077
26522WAT     H179808   9.687   5.739   8.041
26522WAT     H279809   9.589   5.755   8.170
26523WAT      O79810   9.421   8.089   2.934
26523WAT     H179811   9.516   8.061   2.940
26523WAT     H279812   9.375   8.038   2.861
26524WAT      O79813   8.955   9.124   4.387
26524WAT     H179814   8.989   9.218   4.378
26524WAT     H279815   8.856   9.123   4.377
26525WAT      O79816   7.897   9.026   9.158
26525WAT     H179817   7.962   9.049   9.086
26525WAT     H279818   7.937   9.046   9.247
26526WAT      O79819   4.914   0.091   7.732
26526WAT     H179820   4.907   0.018   7.800
26526WAT     H279821   5.006   0.130   7.733
26527WAT      O79822   9.004   5.930   2.858
26527WAT     H179823   9.064   5.867   2.807
26527WAT     H279824   8.933   5.877   2.904
26528WAT      O79825   3.842   9.114   7.784
26528WAT     H179826   3.818   9.061   7.866
26528WAT     H279827   3.764   9.171   7.757
26529WAT      O79828   5.831   2.786   0.053
26529WAT     H179829   5.929   2.788   0.070
26529WAT     H279830   5.815   2.761  -0.043
26530WAT      O79831   6.926   4.957   0.673
26530WAT     H179832   6.846   4.982   0.728
26530WAT     H279833   7.002   5.017   0.697
26531WAT      O79834   4.226   9.439   5.384
26531WAT     H179835   4.202   9.439   5.287
26531WAT     H279836   4.324   9.423   5.394
26532WAT      O79837   6.293   6.382   2.538
26532WAT     H179838   6.200   6.410   2.558
26532WAT     H279839   6.312   6.396   2.440
26533WAT      O79840   9.856   1.572   6.145
26533WAT     H179841   9.847   1.666   6.112
26533WAT     H279842   9.804   1.562   6.230
26534WAT      O79843   6.355   5.581   0.188
26534WAT     H179844   6.345   5.549   0.094
26534WAT     H279845   6.448   5.616   0.202
26535WAT      O79846   3.191   2.516   7.318
26535WAT     H179847   3.100   2.546   7.346
26535WAT     H279848   3.187   2.477   7.226
26536WAT      O79849   2.699   9.377   4.298
26536WAT     H179850   2.662   9.340   4.213
26536WAT     H279851   2.741   9.466   4.280
26537WAT      O79852   4.419   3.656   8.251
26537WAT     H179853   4.361   3.589   8.297
26537WAT     H279854   4.458   3.615   8.168
26538WAT      O79855   6.380   4.732   1.216
26538WAT     H179856   6.366   4.741   1.315
26538WAT     H279857   6.461   4.677   1.200
26539WAT      O79858   9.022   3.625   1.699
26539WAT     H179859   8.943   3.609   1.640
26539WAT     H279860   9.003   3.702   1.760
26540WAT      O79861   2.280   6.045   1.066
26540WAT     H179862   2.206   6.110   1.047
26540WAT     H279863   2.348   6.089   1.126
26541WAT      O79864   3.638   0.720   7.002
26541WAT     H179865   3.570   0.788   7.027
26541WAT     H279866   3.660   0.665   7.083
26542WAT      O79867   9.402   9.581   5.373
26542WAT     H179868   9.396   9.577   5.273
26542WAT     H279869   9.449   9.500   5.407
26543WAT      O79870   4.515   6.172   4.803
26543WAT     H179871   4.525   6.111   4.881
26543WAT     H279872   4.500   6.118   4.720
26544WAT      O79873   5.065   3.885   5.671
26544WAT     H179874   5.058   3.983   5.690
26544WAT     H279875   5.161   3.857   5.676
26545WAT      O79876   8.376   8.156   2.957
26545WAT     H179877   8.350   8.243   2.999
26545WAT     H279878   8.474   8.158   2.935
26546WAT      O79879   7.125   6.715   2.116
26546WAT     H179880   7.084   6.626   2.137
26546WAT     H279881   7.059   6.787   2.134
26547WAT      O79882   9.552   6.453   0.128
26547WAT     H179883   9.631   6.425   0.182
26547WAT     H279884   9.509   6.372   0.088
26548WAT      O79885   6.801   8.653   6.419
26548WAT     H179886   6.829   8.573   6.366
26548WAT     H279887   6.816   8.635   6.516
26549WAT      O79888   3.239   7.702   1.799
26549WAT     H179889   3.336   7.707   1.825
26549WAT     H279890   3.229   7.725   1.702
26550WAT      O79891   5.458   6.086   5.332
26550WAT     H179892   5.504   6.103   5.419
26550WAT     H279893   5.373   6.036   5.348
26551WAT      O79894   5.804   4.233   6.794
26551WAT     H179895   5.754   4.285   6.725
26551WAT     H279896   5.749   4.228   6.878
26552WAT      O79897   7.398   7.013   0.914
26552WAT     H179898   7.352   7.011   1.002
26552WAT     H279899   7.495   7.031   0.927
26553WAT      O79900   4.200   6.697   8.692
26553WAT     H179901   4.114   6.655   8.723
26553WAT     H279902   4.242   6.640   8.622
26554WAT      O79903   4.551   8.200   6.923
26554WAT     H179904   4.542   8.157   7.013
26554WAT     H279905   4.604   8.141   6.863
26555WAT      O79906   0.431   8.426   6.602
26555WAT     H179907   0.505   8.485   6.571
26555WAT     H279908   0.465   8.363   6.672
26556WAT      O79909   1.695   0.107   4.982
26556WAT     H179910   1.685   0.067   5.073
26556WAT     H279911   1.784   0.080   4.944
26557WAT      O79912   2.348   3.316   1.602
26557WAT     H179913   2.316   3.311   1.696
26557WAT     H279914   2.285   3.267   1.542
26558WAT      O79915   6.122   9.794   2.170
26558WAT     H179916   6.191   9.842   2.116
26558WAT     H279917   6.033   9.805   2.127
26559WAT      O79918   2.906   3.892   0.034
26559WAT     H179919   2.932   3.848  -0.052
26559WAT     H279920   2.929   3.989   0.031
26560WAT      O79921   0.545   2.097   4.202
26560WAT     H179922   0.585   2.129   4.115
26560WAT     H279923   0.607   2.032   4.245
26561WAT      O79924   0.089   4.115   7.171
26561WAT     H179925   0.135   4.119   7.260
26561WAT     H279926   0.009   4.056   7.178
26562WAT      O79927   0.356   8.549   1.866
26562WAT     H179928   0.394   8.569   1.776
26562WAT     H279929   0.258   8.569   1.867
26563WAT      O79930   5.545   4.449   3.167
26563WAT     H179931   5.584   4.533   3.130
26563WAT     H279932   5.447   4.462   3.183
26564WAT      O79933   9.893   2.756   6.673
26564WAT     H179934   9.894   2.824   6.600
26564WAT     H279935   9.800   2.721   6.685
26565WAT      O79936   7.089   9.488   5.660
26565WAT     H179937   7.160   9.536   5.711
26565WAT     H279938   6.999   9.520   5.688
26566WAT      O79939   1.628   3.062   7.178
26566WAT     H179940   1.721   3.027   7.188
26566WAT     H279941   1.562   2.987   7.182
26567WAT      O79942   3.477   8.364   9.535
26567WAT     H179943   3.453   8.393   9.442
26567WAT     H279944   3.530   8.436   9.579
26568WAT      O79945   0.288   0.099   5.213
26568WAT     H179946   0.338   0.150   5.283
26568WAT     H279947   0.289   0.001   5.236
26569WAT      O79948   8.663   8.674   3.332
26569WAT     H179949   8.756   8.684   3.298
26569WAT     H279950   8.662   8.608   3.407
26570WAT      O79951   0.750   7.551   8.770
26570WAT     H179952   0.668   7.598   8.735
26570WAT     H279953   0.809   7.527   8.693
26571WAT      O79954   3.543   8.964   5.005
26571WAT     H179955   3.458   8.922   5.036
26571WAT     H279956   3.619   8.901   5.021
26572WAT      O79957   8.934   1.987   5.816
26572WAT     H179958   8.866   1.969   5.887
26572WAT     H279959   9.013   2.031   5.857
26573WAT      O79960   9.746   5.761   3.862
26573WAT     H179961   9.813   5.733   3.930
26573WAT     H279962   9.792   5.802   3.784
26574WAT      O79963   5.928   7.551   7.465
26574WAT     H179964   5.892   7.461   7.490
26574WAT     H279965   5.993   7.582   7.534
26575WAT      O79966   1.418   3.290   4.971
26575WAT     H179967   1.374   3.380   4.964
26575WAT     H279968   1.421   3.247   4.881
26576WAT      O79969   6.207   4.714   8.683
26576WAT     H179970   6.225   4.616   8.671
26576WAT     H279971   6.241   4.764   8.603
26577WAT      O79972   5.582   4.528   8.187
26577WAT     H179973   5.488   4.505   8.213
26577WAT     H279974   5.608   4.474   8.107
26578WAT      O79975   3.085   1.291   8.567
26578WAT     H179976   3.129   1.329   8.648
26578WAT     H279977   3.112   1.195   8.556
26579WAT      O79978   1.568   2.628   5.922
26579WAT     H179979   1.496   2.665   5.863
26579WAT     H279980   1.530   2.560   5.984
26580WAT      O79981   4.008   1.386   8.697
26580WAT     H179982   3.924   1.431   8.667
26580WAT     H279983   4.035   1.317   8.629
26581WAT      O79984   2.322   1.979   3.436
26581WAT     H179985   2.368   2.024   3.359
26581WAT     H279986   2.319   1.880   3.421
26582WAT      O79987   6.082   1.713   9.781
26582WAT     H179988   6.018   1.657   9.834
26582WAT     H279989   6.168   1.722   9.831
26583WAT      O79990   1.467   1.607   4.577
26583WAT     H179991   1.420   1.587   4.491
26583WAT     H279992   1.549   1.662   4.558
26584WAT      O79993   4.109   2.423   0.780
26584WAT     H179994   4.144   2.432   0.687
26584WAT     H279995   4.179   2.382   0.838
26585WAT      O79996   5.453   5.191   0.232
26585WAT     H179997   5.384   5.241   0.179
26585WAT     H279998   5.543   5.205   0.190
26586WAT      O79999   5.093   8.689   3.944
26586WAT     H180000   5.119   8.720   4.035
26586WAT     H280001   5.072   8.591   3.946
26587WAT      O80002   4.486   8.020   7.121
26587WAT     H180003   4.537   7.991   7.201
26587WAT     H280004   4.480   7.945   7.055
26588WAT      O80005   9.593   2.730   0.797
26588WAT     H180006   9.505   2.723   0.845
26588WAT     H280007   9.583   2.789   0.717
26589WAT      O80008   9.106   1.496   1.926
26589WAT     H180009   9.154   1.412   1.950
26589WAT     H280010   9.102   1.557   2.006
26590WAT      O80011   9.402   1.189   0.810
26590WAT     H180012   9.394   1.109   0.750
26590WAT     H280013   9.473   1.172   0.879
26591WAT      O80014   0.020   1.413   4.442
26591WAT     H180015   0.099   1.352   4.435
26591WAT     H280016   0.038   1.498   4.392
26592WAT      O80017   9.889   4.195   9.839
26592WAT     H180018   9.954   4.265   9.811
26592WAT     H280019   9.804   4.238   9.871
26593WAT      O80020   9.264   5.529   6.082
26593WAT     H180021   9.316   5.526   5.997
26593WAT     H280022   9.177   5.576   6.067
26594WAT      O80023   4.150   8.372   7.168
26594WAT     H180024   4.149   8.378   7.068
26594WAT     H280025   4.222   8.310   7.197
26595WAT      O80026   6.282   6.848   3.434
26595WAT     H180027   6.283   6.841   3.335
26595WAT     H280028   6.232   6.770   3.472
26596WAT      O80029   9.429   4.850   9.847
26596WAT     H180030   9.382   4.912   9.785
26596WAT     H280031   9.376   4.765   9.855
26597WAT      O80032   7.743   3.457   0.214
26597WAT     H180033   7.695   3.521   0.274
26597WAT     H280034   7.687   3.439   0.133
26598WAT      O80035   4.131   3.665   3.771
26598WAT     H180036   4.212   3.606   3.774
26598WAT     H280037   4.155   3.756   3.804
26599WAT      O80038   7.290   1.380   1.790
26599WAT     H180039   7.386   1.390   1.816
26599WAT     H280040   7.255   1.466   1.754
26600WAT      O80041   3.860   0.394   1.741
26600WAT     H180042   3.823   0.303   1.760
26600WAT     H280043   3.905   0.394   1.652
26601WAT      O80044   7.872   0.168   1.827
26601WAT     H180045   7.775   0.191   1.812
26601WAT     H280046   7.910   0.228   1.897
26602WAT      O80047   1.069   3.163   2.621
26602WAT     H180048   1.047   3.248   2.574
26602WAT     H280049   1.160   3.170   2.662
26603WAT      O80050   2.103   2.903   3.835
26603WAT     H180051   2.117   2.805   3.846
26603WAT     H280052   2.035   2.935   3.901
26604WAT      O80053   7.202   4.377   6.625
26604WAT     H180054   7.112   4.396   6.663
26604WAT     H280055   7.202   4.287   6.582
26605WAT      O80056   1.755   0.600   6.188
26605WAT     H180057   1.750   0.635   6.095
26605WAT     H280058   1.693   0.653   6.247
26606WAT      O80059   2.751   0.944   7.428
26606WAT     H180060   2.793   1.009   7.492
26606WAT     H280061   2.749   0.853   7.470
26607WAT      O80062   4.069   5.922   6.836
26607WAT     H180063   4.157   5.964   6.815
26607WAT     H280064   4.057   5.841   6.779
26608WAT      O80065   2.927   4.451   3.851
26608WAT     H180066   2.936   4.360   3.891
26608WAT     H280067   3.001   4.466   3.785
26609WAT      O80068   1.459   8.479   0.314
26609WAT     H180069   1.496   8.550   0.254
26609WAT     H280070   1.516   8.398   0.309
26610WAT      O80071   6.439   2.185   8.706
26610WAT     H180072   6.387   2.225   8.631
26610WAT     H280073   6.536   2.205   8.694
26611WAT      O80074   5.521   9.343   9.202
26611WAT     H180075   5.526   9.328   9.301
26611WAT     H280076   5.471   9.428   9.183
26612WAT      O80077   2.555   3.067   1.634
26612WAT     H180078   2.594   2.999   1.573
26612WAT     H280079   2.455   3.064   1.628
26613WAT      O80080   7.540   5.812   0.223
26613WAT     H180081   7.474   5.799   0.148
26613WAT     H280082   7.527   5.902   0.264
26614WAT      O80083   3.586   7.450   2.542
26614WAT     H180084   3.597   7.351   2.536
26614WAT     H280085   3.522   7.480   2.471
26615WAT      O80086   2.802   8.413   3.992
26615WAT     H180087   2.775   8.316   3.996
26615WAT     H280088   2.886   8.422   3.939
26616WAT      O80089   0.855   4.298   3.779
26616WAT     H180090   0.918   4.280   3.855
26616WAT     H280091   0.822   4.212   3.742
26617WAT      O80092   4.908   3.886   5.419
26617WAT     H180093   4.955   3.900   5.506
26617WAT     H280094   4.816   3.849   5.437
26618WAT      O80095   7.213   6.824   5.545
26618WAT     H180096   7.230   6.732   5.509
26618WAT     H280097   7.291   6.851   5.602
26619WAT      O80098   7.751   4.651   0.996
26619WAT     H180099   7.653   4.655   1.019
26619WAT     H280100   7.761   4.626   0.900
26620WAT      O80101   6.179   4.254   4.287
26620WAT     H180102   6.137   4.254   4.378
26620WAT     H280103   6.174   4.346   4.249
26621WAT      O80104   9.331   5.121   4.733
26621WAT     H180105   9.336   5.141   4.635
26621WAT     H280106   9.422   5.098   4.768
26622WAT      O80107   3.321   6.941   3.385
26622WAT     H180108   3.330   6.917   3.289
26622WAT     H280109   3.230   6.981   3.401
26623WAT      O80110   1.459   0.992   8.846
26623WAT     H180111   1.413   0.905   8.826
26623WAT     H280112   1.497   0.989   8.938
26624WAT      O80113   2.970   9.302   6.994
26624WAT     H180114   2.980   9.219   6.940
26624WAT     H280115   2.912   9.367   6.944
26625WAT      O80116   2.565   3.866   2.386
26625WAT     H180117   2.610   3.836   2.302
26625WAT     H280118   2.617   3.833   2.465
26626WAT      O80119   7.129   7.292   7.055
26626WAT     H180120   7.202   7.313   6.991
26626WAT     H280121   7.058   7.239   7.010
26627WAT      O80122   1.440   2.486   6.109
26627WAT     H180123   1.428   2.520   6.202
26627WAT     H280124   1.358   2.433   6.083
26628WAT      O80125   3.877   3.448   6.440
26628WAT     H180126   3.898   3.537   6.400
26628WAT     H280127   3.799   3.458   6.502
26629WAT      O80128   1.648   8.990   0.687
26629WAT     H180129   1.571   9.046   0.718
26629WAT     H280130   1.708   8.970   0.765
26630WAT      O80131   1.695   3.903   2.924
26630WAT     H180132   1.782   3.941   2.892
26630WAT     H280133   1.683   3.926   3.021
26631WAT      O80134   8.396   5.665   6.429
26631WAT     H180135   8.365   5.759   6.439
26631WAT     H280136   8.454   5.657   6.348
26632WAT      O80137   7.841   6.954   1.853
26632WAT     H180138   7.811   7.049   1.861
26632WAT     H280139   7.794   6.898   1.922
26633WAT      O80140   5.983   4.627   5.106
26633WAT     H180141   5.917   4.572   5.054
26633WAT     H280142   6.075   4.590   5.092
26634WAT      O80143   4.986   8.940   0.963
26634WAT     H180144   4.890   8.914   0.961
26634WAT     H280145   5.010   8.974   1.054
26635WAT      O80146   4.354   3.899   1.790
26635WAT     H180147   4.283   3.926   1.854
26635WAT     H280148   4.410   3.826   1.831
26636WAT      O80149   3.127   7.966   4.755
26636WAT     H180150   3.095   7.936   4.845
26636WAT     H280151   3.149   8.064   4.758
26637WAT      O80152   3.930   7.969   0.070
26637WAT     H180153   3.920   7.926  -0.020
26637WAT     H280154   3.942   7.899   0.140
26638WAT      O80155   2.257   8.042   8.145
26638WAT     H180156   2.329   7.972   8.149
26638WAT     H280157   2.200   8.027   8.065
26639WAT      O80158   4.069   1.923   2.064
26639WAT     H180159   4.090   1.852   1.997
26639WAT     H280160   4.069   2.012   2.019
26640WAT      O80161   3.308   5.320   3.446
26640WAT     H180162   3.229   5.261   3.461
26640WAT     H280163   3.358   5.287   3.366
26641WAT      O80164   5.152   6.957   7.224
26641WAT     H180165   5.109   6.876   7.265
26641WAT     H280166   5.132   6.960   7.127
26642WAT      O80167   3.769   0.354   3.498
26642WAT     H180168   3.858   0.400   3.499
26642WAT     H280169   3.699   0.419   3.470
26643WAT      O80170   6.487   5.105   7.765
26643WAT     H180171   6.568   5.163   7.777
26643WAT     H280172   6.441   5.094   7.854
26644WAT      O80173   8.370   4.848   2.006
26644WAT     H180174   8.372   4.885   1.912
26644WAT     H280175   8.275   4.842   2.037
26645WAT      O80176   3.235   3.786   8.375
26645WAT     H180177   3.166   3.824   8.313
26645WAT     H280178   3.326   3.813   8.345
26646WAT      O80179   9.739   8.591   2.020
26646WAT     H180180   9.826   8.585   1.971
26646WAT     H280181   9.736   8.677   2.071
26647WAT      O80182   4.279   7.924   9.718
26647WAT     H180183   4.207   7.906   9.651
26647WAT     H280184   4.332   7.841   9.734
26648WAT      O80185   4.675   1.912   1.957
26648WAT     H180186   4.707   1.840   2.019
26648WAT     H280187   4.748   1.935   1.892
26649WAT      O80188   5.790   6.468   5.460
26649WAT     H180189   5.807   6.369   5.462
26649WAT     H280190   5.724   6.490   5.389
26650WAT      O80191   2.884   9.429   1.044
26650WAT     H180192   2.913   9.334   1.034
26650WAT     H280193   2.799   9.443   0.993
26651WAT      O80194   2.010   4.246   1.530
26651WAT     H180195   2.048   4.332   1.564
26651WAT     H280196   2.022   4.174   1.599
26652WAT      O80197   5.000   2.874   2.747
26652WAT     H180198   4.906   2.908   2.750
26652WAT     H280199   5.020   2.826   2.833
26653WAT      O80200   6.117   0.215   1.057
26653WAT     H180201   6.166   0.271   0.990
26653WAT     H280202   6.070   0.274   1.122
26654WAT      O80203   3.267   3.837   3.993
26654WAT     H180204   3.315   3.801   3.913
26654WAT     H280205   3.316   3.917   4.029
26655WAT      O80206   3.276   7.140   6.091
26655WAT     H180207   3.339   7.202   6.138
26655WAT     H280208   3.202   7.193   6.049
26656WAT      O80209   7.383   4.066   1.707
26656WAT     H180210   7.406   4.077   1.804
26656WAT     H280211   7.461   4.093   1.651
26657WAT      O80212   3.685   2.151   9.721
26657WAT     H180213   3.600   2.198   9.743
26657WAT     H280214   3.757   2.218   9.705
26658WAT      O80215   7.571   4.285   8.699
26658WAT     H180216   7.671   4.278   8.701
26658WAT     H280217   7.533   4.244   8.782
26659WAT      O80218   3.880   0.465   5.222
26659WAT     H180219   3.917   0.540   5.167
26659WAT     H280220   3.919   0.467   5.314
26660WAT      O80221   2.598   9.198   6.264
26660WAT     H180222   2.681   9.253   6.277
26660WAT     H280223   2.570   9.203   6.168
26661WAT      O80224   3.510   2.649   4.899
26661WAT     H180225   3.518   2.627   4.802
26661WAT     H280226   3.415   2.669   4.921
26662WAT      O80227   1.072   1.487   2.280
26662WAT     H180228   0.996   1.518   2.336
26662WAT     H280229   1.039   1.462   2.189
26663WAT      O80230   0.746   9.328   8.008
26663WAT     H180231   0.647   9.324   8.026
26663WAT     H280232   0.773   9.423   7.992
26664WAT      O80233   0.333   3.714   7.923
26664WAT     H180234   0.390   3.785   7.883
26664WAT     H280235   0.389   3.634   7.943
26665WAT      O80236   4.861   7.062   5.810
26665WAT     H180237   4.905   6.995   5.750
26665WAT     H280238   4.917   7.146   5.812
26666WAT      O80239   2.594   6.649   9.362
26666WAT     H180240   2.645   6.717   9.415
26666WAT     H280241   2.577   6.684   9.270
26667WAT      O80242   9.174   2.641   3.236
26667WAT     H180243   9.100   2.690   3.190
26667WAT     H280244   9.181   2.672   3.331
26668WAT      O80245   9.370   2.535   3.068
26668WAT     H180246   9.422   2.462   3.112
26668WAT     H280247   9.300   2.569   3.131
26669WAT      O80248   4.600   7.290   3.041
26669WAT     H180249   4.642   7.206   3.005
26669WAT     H280250   4.513   7.267   3.085
26670WAT      O80251   3.181   2.288   3.519
26670WAT     H180252   3.150   2.193   3.517
26670WAT     H280253   3.214   2.315   3.428
26671WAT      O80254   1.882   6.464   3.141
26671WAT     H180255   1.880   6.366   3.164
26671WAT     H280256   1.919   6.476   3.049
26672WAT      O80257   7.111   0.589   9.769
26672WAT     H180258   7.180   0.538   9.717
26672WAT     H280259   7.126   0.576   9.867
26673WAT      O80260   7.540   8.888   8.674
26673WAT     H180261   7.565   8.904   8.579
26673WAT     H280262   7.575   8.800   8.704
26674WAT      O80263   7.459   3.222   4.897
26674WAT     H180264   7.428   3.194   4.988
26674WAT     H280265   7.552   3.190   4.883
26675WAT      O80266   6.704   9.696   4.037
26675WAT     H180267   6.738   9.724   4.127
26675WAT     H280268   6.605   9.708   4.032
26676WAT      O80269   0.276   7.294   9.318
26676WAT     H180270   0.286   7.228   9.243
26676WAT     H280271   0.295   7.386   9.284
26677WAT      O80272   8.759   5.580   1.828
26677WAT     H180273   8.856   5.561   1.811
26677WAT     H280274   8.717   5.502   1.873
26678WAT      O80275   7.569   2.768   5.363
26678WAT     H180276   7.472   2.743   5.354
26678WAT     H280277   7.624   2.685   5.364
26679WAT      O80278   9.225   6.710   2.642
26679WAT     H180279   9.156   6.640   2.662
26679WAT     H280280   9.196   6.762   2.561
26680WAT      O80281   4.004   9.279   6.977
26680WAT     H180282   4.050   9.215   7.039
26680WAT     H280283   3.973   9.230   6.896
26681WAT      O80284   3.827   4.924   3.400
26681WAT     H180285   3.879   5.002   3.432
26681WAT     H280286   3.749   4.908   3.462
26682WAT      O80287   8.805   4.377   0.403
26682WAT     H180288   8.812   4.362   0.501
26682WAT     H280289   8.738   4.314   0.363
26683WAT      O80290   7.833   5.911   1.763
26683WAT     H180291   7.745   5.957   1.751
26683WAT     H280292   7.907   5.975   1.744
26684WAT      O80293   4.717   5.873   3.315
26684WAT     H180294   4.817   5.875   3.311
26684WAT     H280295   4.683   5.797   3.258
26685WAT      O80296   4.763   9.754   6.260
26685WAT     H180297   4.686   9.813   6.285
26685WAT     H280298   4.772   9.681   6.329
26686WAT      O80299   5.641   8.288   1.508
26686WAT     H180300   5.614   8.353   1.579
26686WAT     H280301   5.559   8.249   1.466
26687WAT      O80302   6.781   1.955   0.496
26687WAT     H180303   6.805   1.911   0.583
26687WAT     H280304   6.684   1.980   0.497
26688WAT      O80305   4.681   6.173   1.317
26688WAT     H180306   4.645   6.096   1.265
26688WAT     H280307   4.612   6.203   1.383
26689WAT      O80308   1.020   4.295   3.996
26689WAT     H180309   1.005   4.368   4.063
26689WAT     H280310   1.109   4.308   3.952
26690WAT      O80311   7.181   3.507   6.909
26690WAT     H180312   7.197   3.596   6.867
26690WAT     H280313   7.145   3.444   6.840
26691WAT      O80314   3.883   3.119   2.389
26691WAT     H180315   3.879   3.180   2.310
26691WAT     H280316   3.960   3.056   2.378
26692WAT      O80317   1.368   3.223   5.251
26692WAT     H180318   1.395   3.241   5.157
26692WAT     H280319   1.268   3.222   5.258
26693WAT      O80320   6.039   9.381   0.749
26693WAT     H180321   5.986   9.441   0.689
26693WAT     H280322   6.092   9.317   0.694
26694WAT      O80323   4.068   3.952   3.315
26694WAT     H180324   4.122   3.927   3.396
26694WAT     H280325   4.097   3.896   3.237
26695WAT      O80326   7.650   7.664   0.305
26695WAT     H180327   7.741   7.643   0.270
26695WAT     H280328   7.607   7.581   0.340
26696WAT      O80329   4.949   2.816   3.047
26696WAT     H180330   4.861   2.838   3.005
26696WAT     H280331   4.953   2.717   3.065
26697WAT      O80332   8.622   8.366   9.080
26697WAT     H180333   8.637   8.335   9.174
26697WAT     H280334   8.651   8.461   9.072
26698WAT      O80335   6.259   5.480   9.827
26698WAT     H180336   6.165   5.508   9.846
26698WAT     H280337   6.270   5.383   9.847
26699WAT      O80338   8.513   6.838   7.153
26699WAT     H180339   8.521   6.937   7.140
26699WAT     H280340   8.467   6.819   7.239
26700WAT      O80341   8.765   7.366   2.422
26700WAT     H180342   8.845   7.424   2.436
26700WAT     H280343   8.760   7.338   2.326
26701WAT      O80344   5.564   6.933   1.371
26701WAT     H180345   5.476   6.980   1.382
26701WAT     H280346   5.610   6.967   1.288
26702WAT      O80347   9.074   7.702   6.734
26702WAT     H180348   9.091   7.623   6.794
26702WAT     H280349   9.104   7.680   6.642
26703WAT      O80350   7.482   0.391   8.979
26703WAT     H180351   7.478   0.443   8.894
26703WAT     H280352   7.572   0.404   9.021
26704WAT      O80353   5.646   0.902   3.890
26704WAT     H180354   5.558   0.943   3.914
26704WAT     H280355   5.710   0.915   3.965
26705WAT      O80356   1.106   8.325   6.317
26705WAT     H180357   1.169   8.318   6.394
26705WAT     H280358   1.083   8.234   6.282
26706WAT      O80359   5.029   3.598   4.537
26706WAT     H180360   5.095   3.631   4.605
26706WAT     H280361   4.940   3.641   4.553
26707WAT      O80362   1.174   2.533   3.763
26707WAT     H180363   1.235   2.511   3.839
26707WAT     H280364   1.107   2.601   3.793
26708WAT      O80365   4.379   4.981   0.130
26708WAT     H180366   4.429   4.905   0.088
26708WAT     H280367   4.443   5.054   0.153
26709WAT      O80368   0.340   2.188   7.468
26709WAT     H180369   0.417   2.164   7.408
26709WAT     H280370   0.354   2.147   7.558
26710WAT      O80371   3.590   0.362   4.733
26710WAT     H180372   3.586   0.353   4.634
26710WAT     H280373   3.656   0.433   4.757
26711WAT      O80374   1.279   1.840   8.974
26711WAT     H180375   1.273   1.892   9.059
26711WAT     H280376   1.282   1.903   8.896
26712WAT      O80377   6.767   1.297   2.505
26712WAT     H180378   6.714   1.257   2.581
26712WAT     H280379   6.811   1.223   2.453
26713WAT      O80380   8.195   8.169   4.966
26713WAT     H180381   8.209   8.250   5.023
26713WAT     H280382   8.283   8.135   4.933
26714WAT      O80383   0.481   6.101   9.358
26714WAT     H180384   0.575   6.114   9.390
26714WAT     H280385   0.418   6.151   9.417
26715WAT      O80386   7.615   5.279   8.535
26715WAT     H180387   7.563   5.310   8.615
26715WAT     H280388   7.557   5.286   8.453
26716WAT      O80389   8.580   5.613   5.143
26716WAT     H180390   8.657   5.598   5.082
26716WAT     H280391   8.612   5.651   5.229
26717WAT      O80392   5.859   1.387   3.889
26717WAT     H180393   5.848   1.472   3.839
26717WAT     H280394   5.769   1.350   3.914
26718WAT      O80395   2.819   6.417   0.525
26718WAT     H180396   2.836   6.431   0.428
26718WAT     H280397   2.822   6.319   0.545
26719WAT      O80398   9.791   8.946   2.433
26719WAT     H180399   9.723   8.927   2.505
26719WAT     H280400   9.850   9.021   2.462
26720WAT      O80401   7.048   6.489   1.398
26720WAT     H180402   7.022   6.559   1.465
26720WAT     H280403   7.121   6.433   1.435
26721WAT      O80404   8.894   1.298   8.056
26721WAT     H180405   8.875   1.395   8.044
26721WAT     H280406   8.992   1.285   8.070
26722WAT      O80407   8.823   3.544   7.013
26722WAT     H180408   8.892   3.480   7.047
26722WAT     H280409   8.744   3.493   6.979
26723WAT      O80410   0.805   9.423   8.530
26723WAT     H180411   0.708   9.401   8.540
26723WAT     H280412   0.857   9.374   8.600
26724WAT      O80413   6.439   3.170   1.511
26724WAT     H180414   6.495   3.148   1.591
26724WAT     H280415   6.355   3.215   1.540
26725WAT      O80416   0.257   7.381   7.193
26725WAT     H180417   0.272   7.289   7.155
26725WAT     H280418   0.215   7.373   7.283
26726WAT      O80419   1.715   3.644   7.729
26726WAT     H180420   1.727   3.684   7.820
26726WAT     H280421   1.668   3.710   7.670
26727WAT      O80422   0.841   6.859   7.654
26727WAT     H180423   0.888   6.947   7.666
26727WAT     H280424   0.806   6.828   7.742
26728WAT      O80425   6.262   9.734   1.007
26728WAT     H180426   6.359   9.757   1.019
26728WAT     H280427   6.248   9.691   0.918
26729WAT      O80428   1.598   9.699   7.620
26729WAT     H180429   1.580   9.705   7.522
26729WAT     H280430   1.660   9.773   7.646
26730WAT      O80431   7.177   3.036   1.768
26730WAT     H180432   7.120   3.117   1.755
26730WAT     H280433   7.162   2.999   1.859
26731WAT      O80434   5.553   7.850   4.042
26731WAT     H180435   5.488   7.907   3.991
26731WAT     H280436   5.560   7.761   3.999
26732WAT      O80437   8.623   5.365   3.409
26732WAT     H180438   8.545   5.315   3.370
26732WAT     H280439   8.590   5.442   3.463
26733WAT      O80440   0.737   5.521   6.639
26733WAT     H180441   0.651   5.536   6.590
26733WAT     H280442   0.811   5.569   6.592
26734WAT      O80443   7.694   7.217   7.095
26734WAT     H180444   7.607   7.179   7.065
26734WAT     H280445   7.686   7.250   7.190
26735WAT      O80446   9.585   7.352   3.971
26735WAT     H180447   9.487   7.373   3.978
26735WAT     H280448   9.597   7.263   3.928
26736WAT      O80449   6.561   3.404   9.690
26736WAT     H180450   6.484   3.379   9.748
26736WAT     H280451   6.577   3.503   9.695
26737WAT      O80452   3.588   9.448   3.156
26737WAT     H180453   3.622   9.528   3.106
26737WAT     H280454   3.540   9.478   3.238
26738WAT      O80455   7.914   2.594   7.089
26738WAT     H180456   8.006   2.614   7.124
26738WAT     H280457   7.849   2.590   7.164
26739WAT      O80458   9.476   2.162   7.376
26739WAT     H180459   9.508   2.234   7.314
26739WAT     H280460   9.459   2.078   7.323
26740WAT      O80461   1.462   5.903   0.048
26740WAT     H180462   1.512   5.827   0.090
26740WAT     H280463   1.477   5.986   0.102
26741WAT      O80464   2.615   9.687   8.917
26741WAT     H180465   2.557   9.767   8.932
26741WAT     H280466   2.670   9.700   8.835
26742WAT      O80467   3.543   5.755   8.551
26742WAT     H180468   3.500   5.762   8.641
26742WAT     H280469   3.616   5.687   8.553
26743WAT      O80470   0.467   9.021   0.669
26743WAT     H180471   0.493   9.077   0.748
26743WAT     H280472   0.471   8.925   0.695
26744WAT      O80473   2.671   7.143   3.077
26744WAT     H180474   2.582   7.158   3.121
26744WAT     H280475   2.658   7.089   2.994
26745WAT      O80476   7.857   7.098   2.580
26745WAT     H180477   7.819   7.158   2.510
26745WAT     H280478   7.785   7.070   2.643
26746WAT      O80479   3.849   8.923   4.110
26746WAT     H180480   3.764   8.936   4.060
26746WAT     H280481   3.901   8.848   4.069
26747WAT      O80482   0.699   6.344   1.942
26747WAT     H180483   0.732   6.250   1.948
26747WAT     H280484   0.641   6.364   2.021
26748WAT      O80485   7.494   2.912   2.150
26748WAT     H180486   7.484   2.834   2.088
26748WAT     H280487   7.589   2.943   2.150
26749WAT      O80488   8.939   1.150   8.374
26749WAT     H180489   9.033   1.118   8.391
26749WAT     H280490   8.875   1.079   8.401
26750WAT      O80491   9.461   0.159   1.407
26750WAT     H180492   9.558   0.183   1.410
26750WAT     H280493   9.407   0.233   1.446
26751WAT      O80494   1.840   1.853   4.198
26751WAT     H180495   1.919   1.884   4.145
26751WAT     H280496   1.756   1.885   4.154
26752WAT      O80497   8.617   0.977   5.362
26752WAT     H180498   8.546   0.991   5.293
26752WAT     H280499   8.697   0.934   5.320
26753WAT      O80500   6.565   8.160   8.752
26753WAT     H180501   6.601   8.089   8.691
26753WAT     H280502   6.599   8.249   8.723
26754WAT      O80503   8.772   0.700   8.669
26754WAT     H180504   8.805   0.793   8.687
26754WAT     H280505   8.720   0.699   8.584
26755WAT      O80506   1.443   5.176   1.695
26755WAT     H180507   1.495   5.248   1.649
26755WAT     H280508   1.500   5.132   1.764
26756WAT      O80509   5.915   6.221   7.867
26756WAT     H180510   5.828   6.175   7.850
26756WAT     H280511   5.917   6.256   7.960
26757WAT      O80512   7.820   6.379   1.153
26757WAT     H180513   7.881   6.344   1.225
26757WAT     H280514   7.727   6.348   1.171
26758WAT      O80515   6.057   4.293   6.854
26758WAT     H180516   5.960   4.268   6.853
26758WAT     H280517   6.076   4.357   6.780
26759WAT      O80518   8.338   6.485   2.789
26759WAT     H180519   8.419   6.443   2.831
26759WAT     H280520   8.303   6.557   2.848
26760WAT      O80521   2.244   3.235   1.847
26760WAT     H180522   2.322   3.274   1.894
26760WAT     H280523   2.200   3.168   1.907
26761WAT      O80524   4.262   5.924   7.629
26761WAT     H180525   4.174   5.879   7.645
26761WAT     H280526   4.318   5.917   7.711
26762WAT      O80527   7.132   0.261   6.464
26762WAT     H180528   7.033   0.275   6.464
26762WAT     H280529   7.172   0.304   6.545
26763WAT      O80530   3.920   1.801   4.787
26763WAT     H180531   3.942   1.898   4.793
26763WAT     H280532   3.987   1.755   4.730
26764WAT      O80533   5.231   6.794   7.896
26764WAT     H180534   5.242   6.894   7.894
26764WAT     H280535   5.319   6.752   7.918
26765WAT      O80536   9.748   8.333   2.090
26765WAT     H180537   9.702   8.256   2.045
26765WAT     H280538   9.719   8.419   2.047
26766WAT      O80539   4.277   0.236   6.531
26766WAT     H180540   4.342   0.206   6.601
26766WAT     H280541   4.220   0.309   6.568
26767WAT      O80542   4.033   0.147   6.748
26767WAT     H180543   4.054   0.244   6.732
26767WAT     H280544   4.111   0.104   6.794
26768WAT      O80545   8.233   6.940   1.642
26768WAT     H180546   8.313   6.921   1.700
26768WAT     H280547   8.211   6.860   1.587
26769WAT      O80548   4.324   2.570   9.553
26769WAT     H180549   4.391   2.616   9.494
26769WAT     H280550   4.370   2.501   9.608
26770WAT      O80551   1.678   3.465   5.457
26770WAT     H180552   1.732   3.523   5.397
26770WAT     H280553   1.704   3.482   5.552
26771WAT      O80554   3.688   0.740   9.867
26771WAT     H180555   3.752   0.769   9.939
26771WAT     H280556   3.740   0.699   9.792
26772WAT      O80557   2.837   6.948   6.391
26772WAT     H180558   2.791   6.982   6.309
26772WAT     H280559   2.769   6.902   6.449
26773WAT      O80560   8.600   2.079   3.489
26773WAT     H180561   8.674   2.145   3.492
26773WAT     H280562   8.533   2.107   3.420
26774WAT      O80563   4.481   7.341   3.375
26774WAT     H180564   4.533   7.426   3.363
26774WAT     H280565   4.420   7.329   3.297
26775WAT      O80566   8.129   9.164   1.570
26775WAT     H180567   8.109   9.105   1.491
26775WAT     H280568   8.140   9.108   1.651
26776WAT      O80569   2.417   8.144   0.499
26776WAT     H180570   2.498   8.087   0.484
26776WAT     H280571   2.374   8.118   0.585
26777WAT      O80572   9.504   8.085   4.281
26777WAT     H180573   9.493   8.068   4.183
26777WAT     H280574   9.598   8.113   4.299
26778WAT      O80575   9.700   4.182   4.131
26778WAT     H180576   9.710   4.113   4.060
26778WAT     H280577   9.780   4.181   4.191
26779WAT      O80578   6.524   4.401   1.889
26779WAT     H180579   6.539   4.336   1.814
26779WAT     H280580   6.562   4.490   1.864
26780WAT      O80581   3.280   4.701   4.931
26780WAT     H180582   3.245   4.789   4.902
26780WAT     H280583   3.225   4.628   4.892
26781WAT      O80584   3.988   7.933   5.311
26781WAT     H180585   3.927   7.854   5.315
26781WAT     H280586   4.019   7.955   5.404
26782WAT      O80587   0.903   4.857   2.720
26782WAT     H180588   0.897   4.936   2.781
26782WAT     H280589   0.886   4.887   2.626
26783WAT      O80590   9.006   0.303   5.439
26783WAT     H180591   9.035   0.312   5.534
26783WAT     H280592   8.977   0.209   5.421
26784WAT      O80593   9.150   8.163   2.110
26784WAT     H180594   9.081   8.092   2.115
26784WAT     H280595   9.182   8.173   2.016
26785WAT      O80596   0.774   8.090   3.801
26785WAT     H180597   0.685   8.103   3.843
26785WAT     H280598   0.776   8.135   3.711
26786WAT      O80599   5.619   9.321   8.357
26786WAT     H180600   5.675   9.239   8.369
26786WAT     H280601   5.676   9.402   8.367
26787WAT      O80602   6.343   2.587   9.544
26787WAT     H180603   6.423   2.606   9.600
26787WAT     H280604   6.284   2.522   9.592
26788WAT      O80605   8.237   4.181   3.911
26788WAT     H180606   8.337   4.184   3.914
26788WAT     H280607   8.201   4.173   4.004
26789WAT      O80608   1.268   8.803   1.978
26789WAT     H180609   1.365   8.826   1.966
26789WAT     H280610   1.254   8.767   2.070
26790WAT      O80611   8.675   9.769   7.138
26790WAT     H180612   8.624   9.773   7.052
26790WAT     H280613   8.616   9.797   7.213
26791WAT      O80614   0.344   3.454   1.888
26791WAT     H180615   0.395   3.416   1.812
26791WAT     H280616   0.363   3.552   1.895
26792WAT      O80617   1.530   5.824   8.279
26792WAT     H180618   1.522   5.873   8.366
26792WAT     H280619   1.439   5.798   8.246
26793WAT      O80620   3.912   0.216   4.410
26793WAT     H180621   3.882   0.219   4.506
26793WAT     H280622   3.975   0.139   4.397
26794WAT      O80623   9.357   2.235   4.656
26794WAT     H180624   9.380   2.332   4.662
26794WAT     H280625   9.399   2.195   4.574
26795WAT      O80626   1.263   2.465   7.922
26795WAT     H180627   1.345   2.411   7.901
26795WAT     H280628   1.234   2.514   7.839
26796WAT      O80629   7.096   0.176   6.059
26796WAT     H180630   7.159   0.108   6.021
26796WAT     H280631   7.018   0.129   6.101
26797WAT      O80632   0.649   1.216   8.846
26797WAT     H180633   0.572   1.156   8.867
26797WAT     H280634   0.658   1.225   8.747
26798WAT      O80635   5.068   0.085   4.611
26798WAT     H180636   4.978   0.094   4.569
26798WAT     H280637   5.135   0.139   4.560
26799WAT      O80638   7.293   3.904   4.694
26799WAT     H180639   7.200   3.880   4.669
26799WAT     H280640   7.342   3.822   4.724
26800WAT      O80641   8.044   5.465   2.778
26800WAT     H180642   7.971   5.405   2.744
26800WAT     H280643   8.083   5.516   2.701
26801WAT      O80644   1.310   0.752   3.859
26801WAT     H180645   1.330   0.659   3.892
26801WAT     H280646   1.218   0.778   3.887
26802WAT      O80647   0.491   2.733   4.995
26802WAT     H180648   0.464   2.653   5.049
26802WAT     H280649   0.485   2.815   5.051
26803WAT      O80650   1.928   7.191   2.190
26803WAT     H180651   1.870   7.262   2.150
26803WAT     H280652   1.928   7.200   2.289
26804WAT      O80653   6.726   9.662   0.281
26804WAT     H180654   6.660   9.649   0.206
26804WAT     H280655   6.817   9.639   0.249
26805WAT      O80656   3.853   5.043   9.123
26805WAT     H180657   3.931   5.065   9.065
26805WAT     H280658   3.826   5.125   9.174
26806WAT      O80659   0.878   0.672   6.631
26806WAT     H180660   0.828   0.597   6.673
26806WAT     H280661   0.967   0.639   6.600
26807WAT      O80662   1.307   8.245   8.687
26807WAT     H180663   1.320   8.344   8.693
26807WAT     H280664   1.226   8.225   8.632
26808WAT      O80665   9.418   0.656   0.205
26808WAT     H180666   9.495   0.603   0.240
26808WAT     H280667   9.342   0.652   0.270
26809WAT      O80668   5.162   7.103   1.976
26809WAT     H180669   5.196   7.025   2.029
26809WAT     H280670   5.206   7.103   1.886
26810WAT      O80671   8.745   1.594   5.761
26810WAT     H180672   8.689   1.561   5.837
26810WAT     H280673   8.704   1.677   5.723
26811WAT      O80674   4.587   9.283   7.170
26811WAT     H180675   4.549   9.328   7.251
26811WAT     H280676   4.680   9.252   7.190
26812WAT      O80677   9.290   2.759   3.674
26812WAT     H180678   9.362   2.700   3.638
26812WAT     H280679   9.287   2.752   3.773
26813WAT      O80680   0.723   8.768   6.098
26813WAT     H180681   0.815   8.749   6.133
26813WAT     H280682   0.657   8.709   6.145
26814WAT      O80683   0.611   8.681   4.922
26814WAT     H180684   0.618   8.661   4.824
26814WAT     H280685   0.703   8.683   4.962
26815WAT      O80686   1.352   1.589   4.327
26815WAT     H180687   1.269   1.535   4.315
26815WAT     H280688   1.398   1.600   4.239
26816WAT      O80689   3.795   0.513   9.173
26816WAT     H180690   3.726   0.568   9.126
26816WAT     H280691   3.867   0.573   9.207
26817WAT      O80692   6.611   3.663   1.814
26817WAT     H180693   6.610   3.762   1.802
26817WAT     H280694   6.700   3.627   1.787
26818WAT      O80695   7.335   0.166   0.588
26818WAT     H180696   7.413   0.223   0.613
26818WAT     H280697   7.250   0.214   0.611
26819WAT      O80698   7.984   1.167   6.850
26819WAT     H180699   8.040   1.250   6.844
26819WAT     H280700   7.904   1.176   6.792
26820WAT      O80701   3.330   8.707   9.372
26820WAT     H180702   3.317   8.805   9.387
26820WAT     H280703   3.241   8.664   9.357
26821WAT      O80704   2.986   1.391   9.705
26821WAT     H180705   3.051   1.458   9.668
26821WAT     H280706   3.037   1.316   9.747
26822WAT      O80707   9.392   7.215   4.335
26822WAT     H180708   9.404   7.119   4.361
26822WAT     H280709   9.341   7.220   4.250
26823WAT      O80710   2.914   9.622   6.034
26823WAT     H180711   2.916   9.642   6.132
26823WAT     H280712   2.823   9.591   6.008
26824WAT      O80713   9.853   1.430   0.520
26824WAT     H180714   9.756   1.456   0.518
26824WAT     H280715   9.889   1.424   0.427
26825WAT      O80716   3.233   3.287   4.995
26825WAT     H180717   3.202   3.358   4.931
26825WAT     H280718   3.233   3.199   4.949
26826WAT      O80719   0.744   9.714   2.749
26826WAT     H180720   0.839   9.731   2.723
26826WAT     H280721   0.729   9.747   2.843
26827WAT      O80722   4.935   3.976   6.589
26827WAT     H180723   4.996   3.994   6.512
26827WAT     H280724   4.989   3.951   6.669
26828WAT      O80725   0.416   0.525   8.315
26828WAT     H180726   0.505   0.555   8.279
26828WAT     H280727   0.346   0.591   8.290
26829WAT      O80728   0.453   0.741   8.853
26829WAT     H180729   0.390   0.665   8.837
26829WAT     H280730   0.545   0.714   8.827
26830WAT      O80731   9.637   6.694   4.322
26830WAT     H180732   9.697   6.652   4.390
26830WAT     H280733   9.578   6.623   4.283
26831WAT      O80734   8.256   8.343   1.690
26831WAT     H180735   8.218   8.260   1.730
26831WAT     H280736   8.354   8.347   1.707
26832WAT      O80737   7.910   6.375   8.687
26832WAT     H180738   7.980   6.371   8.758
26832WAT     H280739   7.952   6.405   8.601
26833WAT      O80740   5.433   3.726   5.193
26833WAT     H180741   5.377   3.690   5.268
26833WAT     H280742   5.530   3.725   5.220
26834WAT      O80743   6.040   3.479   2.779
26834WAT     H180744   5.957   3.424   2.773
26834WAT     H280745   6.088   3.477   2.691
26835WAT      O80746   1.179   2.110   1.653
26835WAT     H180747   1.251   2.137   1.716
26835WAT     H280748   1.192   2.014   1.626
26836WAT      O80749   2.567   3.662   8.238
26836WAT     H180750   2.613   3.609   8.309
26836WAT     H280751   2.471   3.633   8.232
26837WAT      O80752   0.951   9.792   7.358
26837WAT     H180753   0.859   9.774   7.393
26837WAT     H280754   0.958   9.889   7.332
26838WAT      O80755   9.841   6.838   4.991
26838WAT     H180756   9.835   6.867   4.896
26838WAT     H280757   9.751   6.809   5.023
26839WAT      O80758   4.474   0.316   8.960
26839WAT     H180759   4.498   0.411   8.945
26839WAT     H280760   4.529   0.258   8.900
26840WAT      O80761   6.648   2.287   7.324
26840WAT     H180762   6.717   2.358   7.318
26840WAT     H280763   6.679   2.216   7.388
26841WAT      O80764   8.507   8.691   2.352
26841WAT     H180765   8.552   8.763   2.404
26841WAT     H280766   8.545   8.687   2.259
26842WAT      O80767   9.792   0.988   0.809
26842WAT     H180768   9.885   1.002   0.842
26842WAT     H280769   9.774   1.049   0.731
26843WAT      O80770   5.851   7.961   8.130
26843WAT     H180771   5.807   8.048   8.152
26843WAT     H280772   5.857   7.950   8.031
26844WAT      O80773   9.496   7.009   9.051
26844WAT     H180774   9.550   6.935   9.091
26844WAT     H280775   9.506   7.007   8.951
26845WAT      O80776   8.011   0.445   8.027
26845WAT     H180777   8.018   0.516   7.956
26845WAT     H280778   7.920   0.446   8.066
26846WAT      O80779   4.102   8.541   9.407
26846WAT     H180780   4.119   8.576   9.315
26846WAT     H280781   4.131   8.445   9.411
26847WAT      O80782   1.033   7.664   3.490
26847WAT     H180783   1.001   7.599   3.559
26847WAT     H280784   0.956   7.720   3.458
26848WAT      O80785   0.979   2.093   8.420
26848WAT     H180786   1.066   2.072   8.374
26848WAT     H280787   0.971   2.192   8.431
26849WAT      O80788   9.694   0.071   3.636
26849WAT     H180789   9.782   0.113   3.615
26849WAT     H280790   9.686   0.058   3.735
26850WAT      O80791   5.623   3.366   0.341
26850WAT     H180792   5.606   3.402   0.433
26850WAT     H280793   5.582   3.275   0.333
26851WAT      O80794   6.177   9.810   5.135
26851WAT     H180795   6.249   9.787   5.200
26851WAT     H280796   6.214   9.872   5.065
26852WAT      O80797   2.011   8.453   6.962
26852WAT     H180798   1.987   8.516   6.888
26852WAT     H280799   2.003   8.359   6.929
26853WAT      O80800   4.353   9.821   3.746
26853WAT     H180801   4.290   9.786   3.816
26853WAT     H280802   4.347   9.920   3.743
26854WAT      O80803   6.930   1.750   1.714
26854WAT     H180804   6.908   1.672   1.773
26854WAT     H280805   6.928   1.834   1.769
26855WAT      O80806   0.324   7.042   1.182
26855WAT     H180807   0.260   6.966   1.197
26855WAT     H280808   0.281   7.127   1.213
26856WAT      O80809   7.076   7.487   2.317
26856WAT     H180810   7.162   7.451   2.281
26856WAT     H280811   7.002   7.465   2.254
26857WAT      O80812   4.491   7.052   7.749
26857WAT     H180813   4.566   7.091   7.695
26857WAT     H280814   4.518   6.961   7.781
26858WAT      O80815   6.290   4.622   4.458
26858WAT     H180816   6.308   4.587   4.366
26858WAT     H280817   6.197   4.598   4.485
26859WAT      O80818   7.186   6.922   4.926
26859WAT     H180819   7.182   6.840   4.868
26859WAT     H280820   7.188   6.895   5.022
26860WAT      O80821   9.110   4.066   7.870
26860WAT     H180822   9.090   3.986   7.927
26860WAT     H280823   9.142   4.141   7.928
26861WAT      O80824   2.833   8.482   4.592
26861WAT     H180825   2.897   8.498   4.517
26861WAT     H280826   2.860   8.400   4.643
26862WAT      O80827   1.333   0.563   2.322
26862WAT     H180828   1.268   0.502   2.276
26862WAT     H280829   1.422   0.555   2.279
26863WAT      O80830   2.591   5.284   2.812
26863WAT     H180831   2.637   5.368   2.842
26863WAT     H280832   2.514   5.265   2.873
26864WAT      O80833   3.799   0.144   8.788
26864WAT     H180834   3.786   0.154   8.689
26864WAT     H280835   3.711   0.158   8.834
26865WAT      O80836   5.018   3.350   0.051
26865WAT     H180837   5.039   3.294  -0.029
26865WAT     H280838   5.104   3.374   0.098
26866WAT      O80839   6.226   2.802   4.948
26866WAT     H180840   6.252   2.883   4.895
26866WAT     H280841   6.131   2.778   4.928
26867WAT      O80842   8.953   9.600   7.693
26867WAT     H180843   8.903   9.569   7.775
26867WAT     H280844   8.935   9.697   7.679
26868WAT      O80845   3.982   4.878   9.758
26868WAT     H180846   4.044   4.843   9.688
26868WAT     H280847   4.034   4.933   9.824
26869WAT      O80848   8.559   2.973   8.024
26869WAT     H180849   8.580   2.883   7.987
26869WAT     H280850   8.629   3.038   7.995
26870WAT      O80851   8.426   4.987   8.886
26870WAT     H180852   8.405   5.006   8.982
26870WAT     H280853   8.476   5.064   8.847
26871WAT      O80854   8.127   6.992   4.142
26871WAT     H180855   8.085   6.988   4.233
26871WAT     H280856   8.069   7.046   4.081
26872WAT      O80857   4.971   9.152   7.858
26872WAT     H180858   4.966   9.242   7.901
26872WAT     H280859   5.048   9.101   7.897
26873WAT      O80860   3.998   6.793   4.023
26873WAT     H180861   3.957   6.875   4.062
26873WAT     H280862   3.943   6.713   4.046
26874WAT      O80863   6.250   3.100   9.751
26874WAT     H180864   6.158   3.072   9.725
26874WAT     H280865   6.255   3.200   9.754
26875WAT      O80866   5.910   3.005   8.167
26875WAT     H180867   5.904   3.059   8.251
26875WAT     H280868   6.004   3.010   8.131
26876WAT      O80869   5.529   0.458   7.386
26876WAT     H180870   5.568   0.443   7.295
26876WAT     H280871   5.432   0.435   7.385
26877WAT      O80872   8.011   3.509   1.774
26877WAT     H180873   8.069   3.429   1.788
26877WAT     H280874   7.916   3.479   1.759
26878WAT      O80875   5.478   5.114   4.322
26878WAT     H180876   5.497   5.016   4.324
26878WAT     H280877   5.545   5.163   4.377
26879WAT      O80878   2.351   7.676   4.394
26879WAT     H180879   2.306   7.706   4.478
26879WAT     H280880   2.446   7.654   4.413
26880WAT      O80881   6.792   2.404   6.245
26880WAT     H180882   6.757   2.470   6.312
26880WAT     H280883   6.778   2.440   6.153
26881WAT      O80884   9.745   5.668   7.151
26881WAT     H180885   9.800   5.723   7.214
26881WAT     H280886   9.689   5.603   7.203
26882WAT      O80887   5.890   2.009   8.997
26882WAT     H180888   5.908   2.101   9.034
26882WAT     H280889   5.964   1.984   8.935
26883WAT      O80890   0.121   6.635   4.367
26883WAT     H180891   0.056   6.661   4.437
26883WAT     H280892   0.132   6.709   4.301
26884WAT      O80893   1.542   2.842   5.076
26884WAT     H180894   1.545   2.899   5.159
26884WAT     H280895   1.448   2.814   5.058
26885WAT      O80896   8.062   4.009   9.893
26885WAT     H180897   8.153   3.990   9.856
26885WAT     H280898   8.012   4.068   9.830
26886WAT      O80899   8.135   1.659   1.395
26886WAT     H180900   8.101   1.653   1.489
26886WAT     H280901   8.234   1.665   1.396
26887WAT      O80902   5.205   7.244   7.609
26887WAT     H180903   5.156   7.235   7.522
26887WAT     H280904   5.230   7.339   7.623
26888WAT      O80905   6.858   1.904   2.370
26888WAT     H180906   6.803   1.961   2.309
26888WAT     H280907   6.922   1.850   2.315
26889WAT      O80908   6.080   8.014   0.515
26889WAT     H180909   5.986   8.045   0.500
26889WAT     H280910   6.083   7.915   0.507
26890WAT      O80911   3.719   3.803   8.296
26890WAT     H180912   3.755   3.719   8.336
26890WAT     H280913   3.752   3.811   8.202
26891WAT      O80914   3.889   1.152   5.186
26891WAT     H180915   3.952   1.225   5.213
26891WAT     H280916   3.803   1.192   5.154
26892WAT      O80917   8.744   1.708   2.087
26892WAT     H180918   8.785   1.624   2.124
26892WAT     H280919   8.647   1.711   2.111
26893WAT      O80920   1.751   9.323   2.818
26893WAT     H180921   1.669   9.357   2.772
26893WAT     H280922   1.734   9.319   2.916
26894WAT      O80923   4.639   7.115   5.544
26894WAT     H180924   4.700   7.116   5.623
26894WAT     H280925   4.690   7.085   5.463
26895WAT      O80926   8.579   9.600   8.728
26895WAT     H180927   8.541   9.681   8.773
26895WAT     H280928   8.525   9.578   8.647
26896WAT      O80929   3.196   6.509   6.186
26896WAT     H180930   3.288   6.502   6.224
26896WAT     H280931   3.189   6.455   6.103
26897WAT      O80932   2.347   7.735   1.441
26897WAT     H180933   2.428   7.768   1.490
26897WAT     H280934   2.277   7.706   1.507
26898WAT      O80935   6.960   7.879   3.951
26898WAT     H180936   6.997   7.934   3.876
26898WAT     H280937   6.879   7.830   3.918
26899WAT      O80938   2.317   1.101   2.795
26899WAT     H180939   2.408   1.061   2.783
26899WAT     H280940   2.318   1.196   2.765
26900WAT      O80941   5.902   9.375   4.395
26900WAT     H180942   5.956   9.331   4.466
26900WAT     H280943   5.928   9.472   4.389
26901WAT      O80944   4.894   2.508   1.563
26901WAT     H180945   4.986   2.542   1.586
26901WAT     H280946   4.828   2.550   1.626
26902WAT      O80947   1.582   1.971   1.823
26902WAT     H180948   1.638   1.964   1.906
26902WAT     H280949   1.533   1.885   1.809
26903WAT      O80950   2.020   6.895   6.444
26903WAT     H180951   1.973   6.812   6.412
26903WAT     H280952   1.982   6.975   6.398
26904WAT      O80953   5.537   8.315   1.013
26904WAT     H180954   5.496   8.373   0.942
26904WAT     H280955   5.476   8.239   1.033
26905WAT      O80956   7.079   5.701   0.235
26905WAT     H180957   7.173   5.671   0.254
26905WAT     H280958   7.015   5.629   0.264
26906WAT      O80959   1.838   3.944   2.065
26906WAT     H180960   1.740   3.940   2.084
26906WAT     H280961   1.871   3.853   2.039
26907WAT      O80962   2.267   3.206   2.708
26907WAT     H180963   2.306   3.122   2.744
26907WAT     H280964   2.296   3.284   2.764
26908WAT      O80965   4.326   7.875   8.693
26908WAT     H180966   4.280   7.813   8.757
26908WAT     H280967   4.425   7.872   8.709
26909WAT      O80968   8.632   7.567   6.638
26909WAT     H180969   8.658   7.565   6.734
26909WAT     H280970   8.692   7.631   6.589
26910WAT      O80971   0.586   9.174   0.082
26910WAT     H180972   0.563   9.080   0.057
26910WAT     H280973   0.648   9.173   0.160
26911WAT      O80974   6.868   4.322   7.061
26911WAT     H180975   6.808   4.329   6.982
26911WAT     H280976   6.955   4.282   7.034
26912WAT      O80977   7.961   4.914   0.652
26912WAT     H180978   8.045   4.860   0.656
26912WAT     H280979   7.883   4.854   0.666
26913WAT      O80980   0.306   6.937   9.858
26913WAT     H180981   0.257   7.017   9.893
26913WAT     H280982   0.393   6.967   9.819
26914WAT      O80983   7.791   1.902   9.248
26914WAT     H180984   7.874   1.903   9.192
26914WAT     H280985   7.781   1.811   9.290
26915WAT      O80986   0.030   2.501   2.679
26915WAT     H180987  -0.053   2.555   2.666
26915WAT     H280988   0.084   2.540   2.753
26916WAT      O80989   5.780   4.337   1.022
26916WAT     H180990   5.796   4.403   0.948
26916WAT     H280991   5.764   4.386   1.108
26917WAT      O80992   0.009   7.599   4.807
26917WAT     H180993  -0.071   7.655   4.826
26917WAT     H280994   0.087   7.658   4.784
26918WAT      O80995   0.500   7.951   5.607
26918WAT     H180996   0.535   7.948   5.514
26918WAT     H280997   0.466   7.861   5.633
26919WAT      O80998   0.624   9.783   5.885
26919WAT     H180999   0.633   9.751   5.979
26919WAT     H281000   0.714   9.794   5.844
26920WAT      O81001   5.297   7.391   3.931
26920WAT     H181002   5.208   7.421   3.964
26920WAT     H281003   5.290   7.366   3.834
26921WAT      O81004   7.649   1.761   4.930
26921WAT     H181005   7.599   1.674   4.931
26921WAT     H281006   7.612   1.820   4.859
26922WAT      O81007   1.693   7.264   9.219
26922WAT     H181008   1.663   7.327   9.291
26922WAT     H281009   1.631   7.187   9.214
26923WAT      O81010   5.202   8.242   5.452
26923WAT     H181011   5.297   8.273   5.446
26923WAT     H281012   5.197   8.166   5.518
26924WAT      O81013   4.752   3.441   0.092
26924WAT     H181014   4.691   3.366   0.066
26924WAT     H281015   4.846   3.417   0.069
26925WAT      O81016   4.498   6.596   0.924
26925WAT     H181017   4.551   6.572   0.843
26925WAT     H281018   4.518   6.531   0.997
26926WAT      O81019   7.733   7.824   3.998
26926WAT     H181020   7.720   7.761   3.921
26926WAT     H281021   7.644   7.860   4.027
26927WAT      O81022   6.706   1.549   4.809
26927WAT     H181023   6.797   1.563   4.847
26927WAT     H281024   6.666   1.637   4.784
26928WAT      O81025   5.233   1.587   8.339
26928WAT     H181026   5.160   1.609   8.404
26928WAT     H281027   5.207   1.507   8.286
26929WAT      O81028   2.585   5.342   1.830
26929WAT     H181029   2.612   5.414   1.766
26929WAT     H281030   2.494   5.308   1.806
26930WAT      O81031   6.060   6.116   6.984
26930WAT     H181032   6.108   6.141   7.068
26930WAT     H281033   6.111   6.043   6.937
26931WAT      O81034   7.062   2.972   9.170
26931WAT     H181035   6.997   2.906   9.208
26931WAT     H281036   7.011   3.049   9.130
26932WAT      O81037   1.567   8.536   6.152
26932WAT     H181038   1.629   8.460   6.132
26932WAT     H281039   1.536   8.577   6.066
26933WAT      O81040   0.255   3.852   8.759
26933WAT     H181041   0.268   3.949   8.776
26933WAT     H281042   0.177   3.818   8.813
26934WAT      O81043   1.534   5.203   9.842
26934WAT     H181044   1.442   5.167   9.831
26934WAT     H281045   1.547   5.232   9.937
26935WAT      O81046   0.585   0.754   3.531
26935WAT     H181047   0.531   0.778   3.450
26935WAT     H281048   0.560   0.814   3.607
26936WAT      O81049   7.137   3.251   8.818
26936WAT     H181050   7.144   3.260   8.719
26936WAT     H281051   7.044   3.223   8.843
26937WAT      O81052   8.852   6.986   0.353
26937WAT     H181053   8.875   6.926   0.276
26937WAT     H281054   8.921   6.978   0.424
26938WAT      O81055   2.729   3.800   3.127
26938WAT     H181056   2.742   3.880   3.068
26938WAT     H281057   2.665   3.823   3.200
26939WAT      O81058   0.944   7.417   2.670
26939WAT     H181059   1.043   7.402   2.670
26939WAT     H281060   0.906   7.384   2.583
26940WAT      O81061   0.380   7.584   2.712
26940WAT     H181062   0.310   7.653   2.693
26940WAT     H281063   0.435   7.569   2.630
26941WAT      O81064   8.862   8.511   9.160
26941WAT     H181065   8.816   8.576   9.220
26941WAT     H281066   8.933   8.462   9.212
26942WAT      O81067   9.372   9.269   8.469
26942WAT     H181068   9.454   9.295   8.521
26942WAT     H281069   9.291   9.284   8.525
26943WAT      O81070   3.356   4.316   9.522
26943WAT     H181071   3.389   4.242   9.581
26943WAT     H281072   3.429   4.344   9.460
26944WAT      O81073   0.783   5.762   7.938
26944WAT     H181074   0.839   5.757   7.855
26944WAT     H281075   0.720   5.840   7.931
26945WAT      O81076   9.382   3.293   6.319
26945WAT     H181077   9.332   3.218   6.361
26945WAT     H281078   9.411   3.267   6.227
26946WAT      O81079   6.960   6.099   5.272
26946WAT     H181080   6.955   5.999   5.281
26946WAT     H281081   7.004   6.137   5.354
26947WAT      O81082   6.806   4.632   6.878
26947WAT     H181083   6.736   4.612   6.809
26947WAT     H281084   6.840   4.726   6.865
26948WAT      O81085   8.471   2.951   3.600
26948WAT     H181086   8.450   2.937   3.503
26948WAT     H281087   8.522   2.871   3.635
26949WAT      O81088   6.673   5.150   2.444
26949WAT     H181089   6.769   5.173   2.431
26949WAT     H281090   6.646   5.082   2.375
26950WAT      O81091   9.565   6.970   9.477
26950WAT     H181092   9.582   7.042   9.409
26950WAT     H281093   9.618   6.889   9.453
26951WAT      O81094   4.853   0.330   5.342
26951WAT     H181095   4.775   0.307   5.283
26951WAT     H281096   4.937   0.326   5.289
26952WAT      O81097   2.972   7.081   8.190
26952WAT     H181098   2.907   7.143   8.232
26952WAT     H281099   3.053   7.132   8.160
26953WAT      O81100   9.102   9.285   6.301
26953WAT     H181101   9.006   9.259   6.312
26953WAT     H281102   9.107   9.375   6.258
26954WAT      O81103   4.852   9.248   8.684
26954WAT     H181104   4.927   9.183   8.691
26954WAT     H281105   4.805   9.254   8.772
26955WAT      O81106   7.095   1.735   5.785
26955WAT     H181107   7.081   1.738   5.884
26955WAT     H281108   7.087   1.827   5.748
26956WAT      O81109   6.399   4.524   7.198
26956WAT     H181110   6.457   4.496   7.274
26956WAT     H281111   6.345   4.447   7.166
26957WAT      O81112   0.923   8.277   9.148
26957WAT     H181113   0.873   8.197   9.115
26957WAT     H281114   0.978   8.315   9.074
26958WAT      O81115   9.165   9.275   6.944
26958WAT     H181116   9.139   9.234   6.857
26958WAT     H281117   9.120   9.364   6.953
26959WAT      O81118   9.066   1.703   3.146
26959WAT     H181119   9.018   1.666   3.226
26959WAT     H281120   9.156   1.660   3.138
26960WAT      O81121   4.841   6.368   7.760
26960WAT     H181122   4.836   6.428   7.681
26960WAT     H281123   4.867   6.421   7.841
26961WAT      O81124   7.023   0.238   8.530
26961WAT     H181125   7.067   0.301   8.594
26961WAT     H281126   6.967   0.289   8.466
26962WAT      O81127   7.611   0.892   4.613
26962WAT     H181128   7.578   0.811   4.662
26962WAT     H281129   7.649   0.864   4.525
26963WAT      O81130   0.787   2.132   3.540
26963WAT     H181131   0.809   2.229   3.527
26963WAT     H281132   0.872   2.080   3.547
26964WAT      O81133   2.281   5.630   9.559
26964WAT     H181134   2.259   5.536   9.587
26964WAT     H281135   2.252   5.694   9.630
26965WAT      O81136   7.034   7.396   1.380
26965WAT     H181137   7.056   7.319   1.321
26965WAT     H281138   6.947   7.436   1.352
26966WAT      O81139   5.516   6.057   9.559
26966WAT     H181140   5.594   6.079   9.618
26966WAT     H281141   5.549   6.027   9.470
26967WAT      O81142   1.363   0.158   4.225
26967WAT     H181143   1.327   0.214   4.301
26967WAT     H281144   1.288   0.128   4.167
26968WAT      O81145   2.930   4.416   5.233
26968WAT     H181146   3.010   4.407   5.174
26968WAT     H281147   2.889   4.327   5.247
26969WAT      O81148   4.067   6.992   7.252
26969WAT     H181149   4.078   6.977   7.351
26969WAT     H281150   4.133   6.936   7.202
26970WAT      O81151   9.423   1.454   0.726
26970WAT     H181152   9.405   1.356   0.739
26970WAT     H281153   9.519   1.472   0.746
26971WAT      O81154   4.867   2.612   5.624
26971WAT     H181155   4.882   2.636   5.528
26971WAT     H281156   4.922   2.532   5.648
26972WAT      O81157   3.667   6.727   9.881
26972WAT     H181158   3.762   6.754   9.868
26972WAT     H281159   3.607   6.804   9.859
26973WAT      O81160   5.918   3.207   3.654
26973WAT     H181161   6.011   3.176   3.675
26973WAT     H281162   5.922   3.290   3.598
26974WAT      O81163   0.381   0.199   5.449
26974WAT     H181164   0.426   0.287   5.432
26974WAT     H281165   0.314   0.209   5.523
26975WAT      O81166   0.603   9.192   7.249
26975WAT     H181167   0.529   9.225   7.306
26975WAT     H281168   0.686   9.181   7.304
26976WAT      O81169   9.177   9.059   4.054
26976WAT     H181170   9.099   9.051   4.116
26976WAT     H281171   9.160   9.133   3.988
26977WAT      O81172   0.701   2.312   4.552
26977WAT     H181173   0.609   2.280   4.574
26977WAT     H281174   0.766   2.272   4.617
26978WAT      O81175   1.505   2.687   8.194
26978WAT     H181176   1.475   2.613   8.253
26978WAT     H281177   1.599   2.712   8.217
26979WAT      O81178   8.791   3.315   6.003
26979WAT     H181179   8.737   3.304   5.919
26979WAT     H281180   8.833   3.405   6.003
26980WAT      O81181   4.207   4.029   6.302
26980WAT     H181182   4.147   4.073   6.235
26980WAT     H281183   4.298   4.071   6.299
26981WAT      O81184   0.945   9.081   2.873
26981WAT     H181185   0.957   9.174   2.906
26981WAT     H281186   1.026   9.053   2.821
26982WAT      O81187   3.947   6.060   9.626
26982WAT     H181188   4.012   5.987   9.644
26982WAT     H281189   3.942   6.076   9.527
26983WAT      O81190   9.063   0.235   1.493
26983WAT     H181191   9.061   0.136   1.477
26983WAT     H281192   9.076   0.252   1.591
26984WAT      O81193   3.662   6.984   2.656
26984WAT     H181194   3.605   6.942   2.726
26984WAT     H281195   3.722   6.914   2.616
26985WAT      O81196   7.206   9.494   3.797
26985WAT     H181197   7.241   9.511   3.889
26985WAT     H281198   7.205   9.580   3.745
26986WAT      O81199   6.632   0.163   8.483
26986WAT     H181200   6.705   0.228   8.504
26986WAT     H281201   6.667   0.093   8.421
26987WAT      O81202   8.445   5.669   9.841
26987WAT     H181203   8.460   5.610   9.762
26987WAT     H281204   8.450   5.764   9.813
26988WAT      O81205   3.595   5.741   0.805
26988WAT     H181206   3.551   5.767   0.891
26988WAT     H281207   3.528   5.695   0.746
26989WAT      O81208   9.860   7.124   3.609
26989WAT     H181209   9.831   7.194   3.544
26989WAT     H281210   9.948   7.149   3.648
26990WAT      O81211   7.044   7.075   0.302
26990WAT     H181212   7.031   7.113   0.394
26990WAT     H281213   6.974   7.112   0.242
26991WAT      O81214   4.759   8.867   9.444
26991WAT     H181215   4.745   8.882   9.542
26991WAT     H281216   4.728   8.775   9.420
26992WAT      O81217   6.765   7.767   8.310
26992WAT     H181218   6.818   7.704   8.366
26992WAT     H281219   6.819   7.849   8.291
26993WAT      O81220   4.164   0.896   1.195
26993WAT     H181221   4.152   0.825   1.126
26993WAT     H281222   4.256   0.934   1.189
26994WAT      O81223   5.337   0.893   6.105
26994WAT     H181224   5.417   0.935   6.061
26994WAT     H281225   5.347   0.794   6.103
26995WAT      O81226   5.405   8.395   0.783
26995WAT     H181227   5.467   8.454   0.731
26995WAT     H281228   5.323   8.446   0.807
26996WAT      O81229   4.665   7.998   0.914
26996WAT     H181230   4.642   8.071   0.850
26996WAT     H281231   4.606   7.919   0.896
26997WAT      O81232   0.543   4.954   6.941
26997WAT     H181233   0.457   5.001   6.961
26997WAT     H281234   0.562   4.888   7.014
26998WAT      O81235   3.392   6.432   5.567
26998WAT     H181236   3.413   6.504   5.501
26998WAT     H281237   3.421   6.461   5.658
26999WAT      O81238   4.145   2.833   9.073
26999WAT     H181239   4.071   2.787   9.025
26999WAT     H281240   4.176   2.912   9.019
27000WAT      O81241   4.964   5.247   0.102
27000WAT     H181242   4.947   5.148   0.105
27000WAT     H281243   4.885   5.295   0.142
27001WAT      O81244   7.483   5.820   1.001
27001WAT     H181245   7.385   5.805   1.009
27001WAT     H281246   7.507   5.908   1.041
27002WAT      O81247   1.753   4.273   9.002
27002WAT     H181248   1.668   4.290   9.052
27002WAT     H281249   1.800   4.194   9.043
27003WAT      O81250   2.384   6.080   0.561
27003WAT     H181251   2.403   6.146   0.635
27003WAT     H281252   2.370   5.989   0.601
27004WAT      O81253   8.737   7.865   2.957
27004WAT     H181254   8.655   7.880   3.012
27004WAT     H281255   8.818   7.866   3.016
27005WAT      O81256   3.918   6.173   4.098
27005WAT     H181257   3.922   6.079   4.132
27005WAT     H281258   3.827   6.191   4.060
27006WAT      O81259   3.857   3.575   3.745
27006WAT     H181260   3.836   3.511   3.819
27006WAT     H281261   3.956   3.587   3.738
27007WAT      O81262   9.560   8.046   7.253
27007WAT     H181263   9.653   8.084   7.252
27007WAT     H281264   9.565   7.948   7.273
27008WAT      O81265   7.720   5.820   7.979
27008WAT     H181266   7.623   5.802   7.964
27008WAT     H281267   7.771   5.795   7.897
27009WAT      O81268   9.351   2.774   2.493
27009WAT     H181269   9.322   2.851   2.437
27009WAT     H281270   9.441   2.743   2.461
27010WAT      O81271   9.326   4.928   5.588
27010WAT     H181272   9.406   4.987   5.601
27010WAT     H281273   9.332   4.885   5.498
27011WAT      O81274   0.890   4.041   8.975
27011WAT     H181275   0.805   4.063   8.927
27011WAT     H281276   0.946   4.124   8.984
27012WAT      O81277   0.029   3.660   8.362
27012WAT     H181278   0.044   3.633   8.267
27012WAT     H281279   0.048   3.758   8.372
27013WAT      O81280   3.512   3.147   9.057
27013WAT     H181281   3.473   3.099   9.136
27013WAT     H281282   3.603   3.180   9.080
27014WAT      O81283   7.818   3.874   5.860
27014WAT     H181284   7.789   3.836   5.772
27014WAT     H281285   7.903   3.829   5.889
27015WAT      O81286   7.005   0.058   3.225
27015WAT     H181287   6.981   0.123   3.298
27015WAT     H281288   7.105   0.053   3.218
27016WAT      O81289   7.632   0.793   6.299
27016WAT     H181290   7.624   0.694   6.292
27016WAT     H281291   7.726   0.821   6.282
27017WAT      O81292   9.587   7.788   7.297
27017WAT     H181293   9.493   7.757   7.308
27017WAT     H281294   9.646   7.740   7.362
27018WAT      O81295   0.084   7.653   3.997
27018WAT     H181296   0.047   7.560   4.007
27018WAT     H281297   0.016   7.711   3.952
27019WAT      O81298   7.912   3.717   2.657
27019WAT     H181299   7.891   3.626   2.622
27019WAT     H281300   7.978   3.762   2.596
27020WAT      O81301   3.295   3.000   5.957
27020WAT     H181302   3.268   3.042   5.871
27020WAT     H281303   3.346   3.066   6.012
27021WAT      O81304   7.096   1.283   3.608
27021WAT     H181305   7.171   1.217   3.598
27021WAT     H281306   7.021   1.241   3.660
27022WAT      O81307   8.753   6.257   5.385
27022WAT     H181308   8.682   6.228   5.449
27022WAT     H281309   8.757   6.357   5.383
27023WAT      O81310   1.867   7.589   3.074
27023WAT     H181311   1.866   7.612   3.171
27023WAT     H281312   1.821   7.662   3.023
27024WAT      O81313   8.280   4.419   9.118
27024WAT     H181314   8.267   4.326   9.150
27024WAT     H281315   8.368   4.454   9.150
27025WAT      O81316   3.309   9.329   3.107
27025WAT     H181317   3.251   9.284   3.038
27025WAT     H281318   3.313   9.427   3.088
27026WAT      O81319   0.989   6.050   0.683
27026WAT     H181320   1.076   6.002   0.685
27026WAT     H281321   0.928   6.013   0.753
27027WAT      O81322   2.398   4.331   3.373
27027WAT     H181323   2.338   4.339   3.453
27027WAT     H281324   2.492   4.314   3.403
27028WAT      O81325   6.379   7.834   1.313
27028WAT     H181326   6.314   7.880   1.252
27028WAT     H281327   6.464   7.816   1.264
27029WAT      O81328   5.643   7.152   9.145
27029WAT     H181329   5.590   7.139   9.062
27029WAT     H281330   5.582   7.176   9.221
27030WAT      O81331   8.144   2.284   8.084
27030WAT     H181332   8.157   2.375   8.045
27030WAT     H281333   8.047   2.263   8.090
27031WAT      O81334   9.627   1.181   3.010
27031WAT     H181335   9.602   1.139   3.098
27031WAT     H281336   9.552   1.239   2.979
27032WAT      O81337   1.138   6.566   3.596
27032WAT     H181338   1.150   6.477   3.641
27032WAT     H281339   1.079   6.554   3.516
27033WAT      O81340   9.104   2.638   8.829
27033WAT     H181341   9.056   2.663   8.746
27033WAT     H281342   9.196   2.605   8.806
27034WAT      O81343   6.778   1.658   5.448
27034WAT     H181344   6.859   1.702   5.411
27034WAT     H281345   6.777   1.562   5.421
27035WAT      O81346   5.155   5.723   2.412
27035WAT     H181347   5.171   5.803   2.354
27035WAT     H281348   5.240   5.672   2.423
27036WAT      O81349   8.045   1.251   1.839
27036WAT     H181350   8.102   1.264   1.758
27036WAT     H281351   7.949   1.244   1.810
27037WAT      O81352   6.117   3.278   1.202
27037WAT     H181353   6.022   3.291   1.231
27037WAT     H281354   6.171   3.359   1.227
27038WAT      O81355   1.414   1.112   4.631
27038WAT     H181356   1.379   1.091   4.723
27038WAT     H281357   1.416   1.211   4.618
27039WAT      O81358   0.236   5.035   5.642
27039WAT     H181359   0.180   5.110   5.606
27039WAT     H281360   0.252   4.968   5.570
27040WAT      O81361   8.369   2.544   9.027
27040WAT     H181362   8.419   2.553   8.940
27040WAT     H281363   8.382   2.627   9.081
27041WAT      O81364   7.012   7.510   7.184
27041WAT     H181365   7.056   7.424   7.156
27041WAT     H281366   7.012   7.516   7.284
27042WAT      O81367   2.874   5.978   8.026
27042WAT     H181368   2.951   6.027   7.986
27042WAT     H281369   2.862   6.006   8.121
27043WAT      O81370   8.862   4.148   8.804
27043WAT     H181371   8.937   4.146   8.738
27043WAT     H281372   8.830   4.243   8.814
27044WAT      O81373   9.070   4.780   0.045
27044WAT     H181374   9.137   4.721  -0.001
27044WAT     H281375   9.116   4.857   0.088
27045WAT      O81376   2.584   2.223   5.732
27045WAT     H181377   2.663   2.255   5.784
27045WAT     H281378   2.500   2.247   5.781
27046WAT      O81379   8.161   0.814   9.743
27046WAT     H181380   8.063   0.807   9.762
27046WAT     H281381   8.175   0.821   9.644
27047WAT      O81382   1.545   3.512   2.999
27047WAT     H181383   1.639   3.537   2.976
27047WAT     H281384   1.511   3.574   3.070
27048WAT      O81385   0.922   0.057   6.773
27048WAT     H181386   0.941   0.120   6.697
27048WAT     H281387   0.960   0.095   6.857
27049WAT      O81388   7.862   1.410   3.899
27049WAT     H181389   7.822   1.324   3.931
27049WAT     H281390   7.874   1.407   3.800
27050WAT      O81391   0.297   2.465   4.389
27050WAT     H181392   0.224   2.472   4.458
27050WAT     H281393   0.319   2.369   4.374
27051WAT      O81394   2.361   7.860   4.662
27051WAT     H181395   2.273   7.813   4.670
27051WAT     H281396   2.354   7.932   4.593
27052WAT      O81397   3.746   4.603   7.369
27052WAT     H181398   3.763   4.658   7.287
27052WAT     H281399   3.696   4.657   7.436
27053WAT      O81400   7.289   1.364   5.616
27053WAT     H181401   7.271   1.404   5.706
27053WAT     H281402   7.279   1.434   5.545
27054WAT      O81403   1.494   8.875   7.716
27054WAT     H181404   1.466   8.793   7.764
27054WAT     H281405   1.497   8.952   7.780
27055WAT      O81406   9.728   0.904   5.618
27055WAT     H181407   9.719   0.910   5.519
27055WAT     H281408   9.815   0.860   5.641
27056WAT      O81409   1.902   2.180   0.672
27056WAT     H181410   1.817   2.187   0.620
27056WAT     H281411   1.948   2.268   0.673
27057WAT      O81412   7.602   2.149   5.028
27057WAT     H181413   7.560   2.215   5.090
27057WAT     H281414   7.667   2.093   5.079
27058WAT      O81415   1.988   1.037   0.482
27058WAT     H181416   2.030   1.016   0.570
27058WAT     H281417   1.909   1.097   0.496
27059WAT      O81418   3.375   8.969   5.290
27059WAT     H181419   3.348   8.983   5.195
27059WAT     H281420   3.386   8.871   5.308
27060WAT      O81421   1.498   2.436   1.397
27060WAT     H181422   1.423   2.424   1.462
27060WAT     H281423   1.582   2.456   1.448
27061WAT      O81424   9.466   3.554   2.427
27061WAT     H181425   9.522   3.624   2.472
27061WAT     H281426   9.379   3.594   2.398
27062WAT      O81427   5.386   5.898   8.856
27062WAT     H181428   5.430   5.830   8.915
27062WAT     H281429   5.365   5.856   8.767
27063WAT      O81430   2.855   0.311   0.858
27063WAT     H181431   2.768   0.262   0.851
27063WAT     H281432   2.930   0.245   0.858
27064WAT      O81433   8.160   1.723   4.194
27064WAT     H181434   8.178   1.626   4.178
27064WAT     H281435   8.082   1.752   4.138
27065WAT      O81436   5.981   3.251   6.535
27065WAT     H181437   6.060   3.200   6.501
27065WAT     H281438   5.971   3.237   6.633
27066WAT      O81439   6.294   0.727   9.022
27066WAT     H181440   6.292   0.734   9.122
27066WAT     H281441   6.220   0.667   8.991
27067WAT      O81442   0.399   1.079   7.950
27067WAT     H181443   0.390   1.092   7.852
27067WAT     H281444   0.309   1.059   7.990
27068WAT      O81445   8.831   3.095   8.240
27068WAT     H181446   8.746   3.064   8.283
27068WAT     H281447   8.869   3.172   8.292
27069WAT      O81448   3.365   3.853   7.701
27069WAT     H181449   3.341   3.910   7.622
27069WAT     H281450   3.365   3.757   7.675
27070WAT      O81451   9.258   3.193   4.255
27070WAT     H181452   9.230   3.147   4.339
27070WAT     H281453   9.184   3.253   4.224
27071WAT      O81454   4.615   3.874   2.103
27071WAT     H181455   4.596   3.899   2.198
27071WAT     H281456   4.691   3.929   2.068
27072WAT      O81457   9.168   1.834   9.470
27072WAT     H181458   9.167   1.741   9.431
27072WAT     H281459   9.164   1.828   9.570
27073WAT      O81460   0.563   0.126   1.036
27073WAT     H181461   0.622   0.061   0.987
27073WAT     H281462   0.617   0.205   1.064
27074WAT      O81463   6.393   9.205   9.459
27074WAT     H181464   6.444   9.186   9.542
27074WAT     H281465   6.442   9.273   9.404
27075WAT      O81466   0.182   3.989   9.115
27075WAT     H181467   0.281   3.988   9.129
27075WAT     H281468   0.137   4.025   9.197
27076WAT      O81469   3.810   8.972   3.737
27076WAT     H181470   3.761   8.887   3.722
27076WAT     H281471   3.841   9.008   3.649
27077WAT      O81472   8.559   4.729   1.358
27077WAT     H181473   8.468   4.705   1.326
27077WAT     H281474   8.628   4.689   1.297
27078WAT      O81475   5.671   5.785   2.033
27078WAT     H181476   5.700   5.848   2.105
27078WAT     H281477   5.712   5.695   2.049
27079WAT      O81478   7.708   9.786   9.564
27079WAT     H181479   7.666   9.818   9.648
27079WAT     H281480   7.642   9.733   9.512
27080WAT      O81481   6.449   0.475   8.357
27080WAT     H181482   6.516   0.520   8.298
27080WAT     H281483   6.450   0.517   8.447
27081WAT      O81484   1.418   6.703   5.890
27081WAT     H181485   1.330   6.742   5.914
27081WAT     H281486   1.450   6.644   5.964
27082WAT      O81487   8.393   2.958   3.084
27082WAT     H181488   8.341   2.875   3.064
27082WAT     H281489   8.442   2.988   3.002
27083WAT      O81490   7.399   9.147   3.300
27083WAT     H181491   7.357   9.222   3.351
27083WAT     H281492   7.479   9.114   3.351
27084WAT      O81493   6.799   5.364   4.934
27084WAT     H181494   6.882   5.419   4.942
27084WAT     H281495   6.720   5.425   4.930
27085WAT      O81496   9.394   4.828   4.871
27085WAT     H181497   9.491   4.810   4.890
27085WAT     H281498   9.357   4.888   4.942
27086WAT      O81499   4.786   9.537   4.751
27086WAT     H181500   4.718   9.542   4.677
27086WAT     H281501   4.804   9.628   4.786
27087WAT      O81502   3.759   4.282   5.709
27087WAT     H181503   3.839   4.228   5.683
27087WAT     H281504   3.788   4.365   5.757
27088WAT      O81505   3.361   1.329   5.259
27088WAT     H181506   3.319   1.390   5.327
27088WAT     H281507   3.370   1.378   5.172
27089WAT      O81508   0.091   9.753   0.592
27089WAT     H181509   0.143   9.675   0.627
27089WAT     H281510   0.114   9.835   0.645
27090WAT      O81511   5.043   3.443   3.303
27090WAT     H181512   5.045   3.543   3.292
27090WAT     H281513   4.965   3.417   3.359
27091WAT      O81514   6.733   1.467   0.735
27091WAT     H181515   6.730   1.519   0.649
27091WAT     H281516   6.816   1.413   0.738
27092WAT      O81517   5.010   0.793   5.661
27092WAT     H181518   5.103   0.767   5.686
27092WAT     H281519   4.945   0.733   5.708
27093WAT      O81520   7.132   8.553   0.710
27093WAT     H181521   7.053   8.501   0.743
27093WAT     H281522   7.104   8.612   0.635
27094WAT      O81523   3.131   1.775   6.923
27094WAT     H181524   3.120   1.701   6.988
27094WAT     H281525   3.189   1.846   6.962
27095WAT      O81526   3.153   6.227   9.873
27095WAT     H181527   3.213   6.167   9.925
27095WAT     H281528   3.170   6.322   9.898
27096WAT      O81529   4.655   3.063   5.765
27096WAT     H181530   4.716   3.072   5.686
27096WAT     H281531   4.668   3.141   5.826
27097WAT      O81532   2.248   3.995   1.980
27097WAT     H181533   2.211   3.928   1.916
27097WAT     H281534   2.204   3.984   2.069
27098WAT      O81535   7.088   5.480   3.325
27098WAT     H181536   7.037   5.414   3.380
27098WAT     H281537   7.156   5.432   3.270
27099WAT      O81538   0.226   7.202   1.484
27099WAT     H181539   0.276   7.120   1.457
27099WAT     H281540   0.242   7.275   1.418
27100WAT      O81541   8.472   1.621   7.496
27100WAT     H181542   8.543   1.610   7.427
27100WAT     H281543   8.490   1.702   7.551
27101WAT      O81544   4.120   7.319   3.832
27101WAT     H181545   4.049   7.263   3.789
27101WAT     H281546   4.201   7.321   3.774
27102WAT      O81547   5.125   1.107   0.956
27102WAT     H181548   5.051   1.049   0.987
27102WAT     H281549   5.092   1.170   0.886
27103WAT      O81550   9.187   1.504   6.046
27103WAT     H181551   9.133   1.545   5.972
27103WAT     H281552   9.211   1.410   6.022
27104WAT      O81553   4.221   9.826   6.890
27104WAT     H181554   4.203   9.729   6.902
27104WAT     H281555   4.315   9.846   6.916
27105WAT      O81556   8.369   4.162   4.713
27105WAT     H181557   8.329   4.224   4.645
27105WAT     H281558   8.344   4.068   4.691
27106WAT      O81559   6.171   9.141   5.214
27106WAT     H181560   6.191   9.089   5.131
27106WAT     H281561   6.254   9.148   5.270
27107WAT      O81562   5.862   2.387   6.565
27107WAT     H181563   5.820   2.319   6.624
27107WAT     H281564   5.924   2.342   6.501
27108WAT      O81565   1.806   9.065   2.453
27108WAT     H181566   1.812   8.982   2.509
27108WAT     H281567   1.897   9.092   2.422
27109WAT      O81568   5.793   6.658   6.320
27109WAT     H181569   5.835   6.745   6.345
27109WAT     H281570   5.722   6.673   6.252
27110WAT      O81571   7.055   7.679   6.733
27110WAT     H181572   7.048   7.744   6.808
27110WAT     H281573   6.975   7.619   6.733
27111WAT      O81574   6.033   7.810   0.220
27111WAT     H181575   6.112   7.867   0.244
27111WAT     H281576   6.061   7.743   0.152
27112WAT      O81577   3.827   8.894   1.219
27112WAT     H181578   3.850   8.958   1.145
27112WAT     H281579   3.805   8.805   1.180
27113WAT      O81580   7.004   2.474   7.126
27113WAT     H181581   6.947   2.462   7.045
27113WAT     H281582   7.078   2.538   7.105
27114WAT      O81583   7.920   7.107   3.981
27114WAT     H181584   7.860   7.030   4.003
27114WAT     H281585   7.926   7.116   3.881
27115WAT      O81586   7.941   8.425   6.984
27115WAT     H181587   8.020   8.414   7.044
27115WAT     H281588   7.954   8.368   6.902
27116WAT      O81589   4.625   8.133   8.909
27116WAT     H181590   4.600   8.127   8.812
27116WAT     H281591   4.675   8.051   8.936
27117WAT      O81592   8.431   2.977   1.334
27117WAT     H181593   8.479   2.963   1.247
27117WAT     H281594   8.492   3.023   1.398
27118WAT      O81595   0.015   0.695   2.855
27118WAT     H181596   0.069   0.748   2.790
27118WAT     H281597   0.076   0.638   2.910
27119WAT      O81598   5.535   5.280   0.899
27119WAT     H181599   5.548   5.260   0.996
27119WAT     H281600   5.476   5.210   0.858
27120WAT      O81601   8.398   6.454   3.500
27120WAT     H181602   8.343   6.424   3.578
27120WAT     H281603   8.338   6.488   3.428
27121WAT      O81604   8.686   5.536   2.498
27121WAT     H181605   8.661   5.449   2.455
27121WAT     H281606   8.771   5.524   2.550
27122WAT      O81607   1.336   3.400   0.968
27122WAT     H181608   1.406   3.457   1.011
27122WAT     H281609   1.247   3.419   1.011
27123WAT      O81610   5.250   5.141   6.508
27123WAT     H181611   5.265   5.180   6.417
27123WAT     H281612   5.302   5.194   6.576
27124WAT      O81613   7.794   1.884   8.550
27124WAT     H181614   7.722   1.920   8.610
27124WAT     H281615   7.878   1.936   8.565
27125WAT      O81616   3.314   8.242   2.302
27125WAT     H181617   3.270   8.153   2.316
27125WAT     H281618   3.259   8.314   2.344
27126WAT      O81619   8.331   1.840   4.971
27126WAT     H181620   8.415   1.881   4.935
27126WAT     H281621   8.312   1.754   4.924
27127WAT      O81622   5.169   6.610   7.689
27127WAT     H181623   5.226   6.529   7.704
27127WAT     H281624   5.185   6.677   7.762
27128WAT      O81625   8.082   7.054   1.837
27128WAT     H181626   7.984   7.034   1.827
27128WAT     H281627   8.132   7.014   1.761
27129WAT      O81628   8.566   4.647   3.779
27129WAT     H181629   8.522   4.570   3.732
27129WAT     H281630   8.661   4.654   3.748
27130WAT      O81631   4.847   8.773   3.898
27130WAT     H181632   4.820   8.803   3.989
27130WAT     H281633   4.944   8.750   3.897
27131WAT      O81634   4.625   6.010   8.500
27131WAT     H181635   4.720   5.981   8.503
27131WAT     H281636   4.585   5.982   8.412
27132WAT      O81637   2.208   9.266   1.696
27132WAT     H181638   2.198   9.314   1.783
27132WAT     H281639   2.157   9.180   1.700
27133WAT      O81640   8.447   6.982   2.345
27133WAT     H181641   8.517   6.920   2.311
27133WAT     H281642   8.356   6.943   2.328
27134WAT      O81643   0.722   7.720   2.474
27134WAT     H181644   0.790   7.771   2.422
27134WAT     H281645   0.706   7.765   2.562
27135WAT      O81646   3.668   2.842   3.524
27135WAT     H181647   3.636   2.917   3.466
27135WAT     H281648   3.713   2.880   3.605
27136WAT      O81649   1.068   7.943   8.894
27136WAT     H181650   1.100   7.866   8.949
27136WAT     H281651   1.107   7.937   8.802
27137WAT      O81652   8.226   6.617   3.328
27137WAT     H181653   8.282   6.689   3.285
27137WAT     H281654   8.158   6.658   3.388
27138WAT      O81655   2.484   9.010   3.018
27138WAT     H181656   2.542   9.065   3.079
27138WAT     H281657   2.413   8.965   3.071
27139WAT      O81658   5.667   9.572   0.235
27139WAT     H181659   5.731   9.505   0.273
27139WAT     H281660   5.587   9.525   0.199
27140WAT      O81661   2.588   5.550   4.072
27140WAT     H181662   2.489   5.567   4.073
27140WAT     H281663   2.635   5.636   4.051
27141WAT      O81664   7.316   3.092   0.565
27141WAT     H181665   7.264   3.047   0.637
27141WAT     H281666   7.357   3.023   0.506
27142WAT      O81667   6.912   8.506   4.634
27142WAT     H181668   6.922   8.553   4.722
27142WAT     H281669   6.932   8.570   4.560
27143WAT      O81670   5.006   2.481   9.481
27143WAT     H181671   5.057   2.472   9.395
27143WAT     H281672   4.910   2.461   9.465
27144WAT      O81673   9.192   9.715   7.980
27144WAT     H181674   9.256   9.641   8.003
27144WAT     H281675   9.219   9.798   8.028
27145WAT      O81676   6.139   1.775   3.616
27145WAT     H181677   6.166   1.679   3.621
27145WAT     H281678   6.040   1.780   3.601
27146WAT      O81679   2.613   9.766   3.208
27146WAT     H181680   2.692   9.822   3.185
27146WAT     H281681   2.599   9.696   3.138
27147WAT      O81682   1.394   3.007   9.053
27147WAT     H181683   1.328   2.938   9.083
27147WAT     H281684   1.360   3.052   8.971
27148WAT      O81685   5.802   1.519   1.775
27148WAT     H181686   5.732   1.530   1.705
27148WAT     H281687   5.837   1.609   1.802
27149WAT      O81688   4.937   0.539   3.400
27149WAT     H181689   4.861   0.589   3.440
27149WAT     H281690   5.019   0.553   3.455
27150WAT      O81691   6.017   5.581   4.484
27150WAT     H181692   6.076   5.549   4.410
27150WAT     H281693   6.067   5.580   4.570
27151WAT      O81694   5.374   4.551   7.744
27151WAT     H181695   5.364   4.633   7.687
27151WAT     H281696   5.284   4.509   7.757
27152WAT      O81697   8.639   9.524   9.731
27152WAT     H181698   8.581   9.597   9.766
27152WAT     H281699   8.690   9.483   9.807
27153WAT      O81700   7.175   7.303   2.987
27153WAT     H181701   7.257   7.346   3.026
27153WAT     H281702   7.199   7.212   2.954
27154WAT      O81703   3.906   7.298   4.491
27154WAT     H181704   3.982   7.246   4.452
27154WAT     H281705   3.904   7.284   4.590
27155WAT      O81706   0.378   1.372   5.290
27155WAT     H181707   0.301   1.432   5.307
27155WAT     H281708   0.372   1.292   5.349
27156WAT      O81709   1.217   7.097   3.273
27156WAT     H181710   1.204   7.180   3.327
27156WAT     H281711   1.150   7.096   3.198
27157WAT      O81712   8.761   6.886   2.935
27157WAT     H181713   8.841   6.943   2.953
27157WAT     H281714   8.761   6.808   2.998
27158WAT      O81715   3.870   4.742   7.848
27158WAT     H181716   3.917   4.665   7.804
27158WAT     H281717   3.850   4.813   7.780
27159WAT      O81718   9.598   2.198   6.686
27159WAT     H181719   9.555   2.234   6.768
27159WAT     H281720   9.542   2.125   6.648
27160WAT      O81721   8.433   5.569   7.430
27160WAT     H181722   8.449   5.664   7.454
27160WAT     H281723   8.433   5.513   7.513
27161WAT      O81724   6.166   8.652   3.081
27161WAT     H181725   6.246   8.656   3.142
27161WAT     H281726   6.134   8.557   3.076
27162WAT      O81727   2.174   8.431   1.954
27162WAT     H181728   2.146   8.512   1.903
27162WAT     H281729   2.172   8.451   2.052
27163WAT      O81730   7.291   8.017   7.098
27163WAT     H181731   7.305   7.923   7.066
27163WAT     H281732   7.376   8.053   7.135
27164WAT      O81733   6.806   2.678   3.360
27164WAT     H181734   6.811   2.670   3.261
27164WAT     H281735   6.712   2.659   3.390
27165WAT      O81736   8.124   5.435   6.840
27165WAT     H181737   8.037   5.399   6.874
27165WAT     H281738   8.183   5.455   6.918
27166WAT      O81739   7.071   5.293   7.628
27166WAT     H181740   7.016   5.249   7.557
27166WAT     H281741   7.167   5.293   7.599
27167WAT      O81742   8.660   8.162   8.688
27167WAT     H181743   8.701   8.165   8.779
27167WAT     H281744   8.566   8.194   8.692
27168WAT      O81745   4.819   9.761   1.494
27168WAT     H181746   4.773   9.797   1.413
27168WAT     H281747   4.917   9.783   1.489
27169WAT      O81748   3.496   2.819   8.131
27169WAT     H181749   3.431   2.863   8.069
27169WAT     H281750   3.583   2.805   8.083
27170WAT      O81751   1.534   9.712   1.662
27170WAT     H181752   1.573   9.792   1.617
27170WAT     H281753   1.608   9.653   1.695
27171WAT      O81754   3.343   4.959   6.840
27171WAT     H181755   3.372   4.863   6.848
27171WAT     H281756   3.372   5.009   6.922
27172WAT      O81757   2.328   4.323   5.855
27172WAT     H181758   2.410   4.280   5.816
27172WAT     H281759   2.331   4.421   5.838
27173WAT      O81760   3.684   5.189   6.982
27173WAT     H181761   3.763   5.217   7.037
27173WAT     H281762   3.601   5.230   7.019
27174WAT      O81763   4.150   0.502   5.492
27174WAT     H181764   4.163   0.448   5.408
27174WAT     H281765   4.218   0.575   5.496
27175WAT      O81766   5.789   1.524   5.659
27175WAT     H181767   5.845   1.444   5.683
27175WAT     H281768   5.692   1.499   5.665
27176WAT      O81769   2.078   6.691   7.579
27176WAT     H181770   2.028   6.623   7.631
27176WAT     H281771   2.036   6.781   7.591
27177WAT      O81772   9.699   9.501   0.332
27177WAT     H181773   9.673   9.421   0.386
27177WAT     H281774   9.625   9.523   0.268
27178WAT      O81775   4.559   7.721   7.954
27178WAT     H181776   4.607   7.761   7.876
27178WAT     H281777   4.479   7.670   7.921
27179WAT      O81778   2.993   6.375   0.878
27179WAT     H181779   3.084   6.412   0.859
27179WAT     H281780   2.924   6.436   0.839
27180WAT      O81781   6.564   7.440   1.544
27180WAT     H181782   6.496   7.507   1.516
27180WAT     H281783   6.544   7.352   1.502
27181WAT      O81784   7.989   4.845   9.286
27181WAT     H181785   8.049   4.872   9.211
27181WAT     H281786   7.984   4.920   9.353
27182WAT      O81787   0.622   0.343   0.175
27182WAT     H181788   0.588   0.400   0.249
27182WAT     H281789   0.603   0.246   0.195
27183WAT      O81790   5.641   4.319   8.664
27183WAT     H181791   5.593   4.236   8.693
27183WAT     H281792   5.609   4.397   8.717
27184WAT      O81793   0.499   3.444   7.468
27184WAT     H181794   0.433   3.494   7.524
27184WAT     H281795   0.498   3.480   7.375
27185WAT      O81796   0.031   7.934   1.226
27185WAT     H181797   0.111   7.968   1.177
27185WAT     H281798  -0.031   7.889   1.161
27186WAT      O81799   9.502   6.535   9.066
27186WAT     H181800   9.504   6.578   9.157
27186WAT     H281801   9.419   6.562   9.018
27187WAT      O81802   6.251   0.452   2.448
27187WAT     H181803   6.320   0.383   2.469
27187WAT     H281804   6.259   0.528   2.512
27188WAT      O81805   4.130   9.570   0.295
27188WAT     H181806   4.037   9.586   0.326
27188WAT     H281807   4.183   9.654   0.303
27189WAT      O81808   4.158   7.157   0.593
27189WAT     H181809   4.069   7.157   0.639
27189WAT     H281810   4.229   7.189   0.656
27190WAT      O81811   6.206   9.250   7.740
27190WAT     H181812   6.258   9.301   7.808
27190WAT     H281813   6.130   9.305   7.706
27191WAT      O81814   5.625   6.175   6.392
27191WAT     H181815   5.658   6.270   6.396
27191WAT     H281816   5.525   6.175   6.405
27192WAT      O81817   6.060   9.233   6.683
27192WAT     H181818   6.031   9.256   6.776
27192WAT     H281819   6.123   9.155   6.685
27193WAT      O81820   0.810   7.096   1.203
27193WAT     H181821   0.868   7.052   1.271
27193WAT     H281822   0.715   7.068   1.218
27194WAT      O81823   5.261   3.468   3.748
27194WAT     H181824   5.277   3.492   3.652
27194WAT     H281825   5.178   3.413   3.755
27195WAT      O81826   4.719   0.064   3.110
27195WAT     H181827   4.641   0.082   3.170
27195WAT     H281828   4.758  -0.025   3.130
27196WAT      O81829   5.395   8.456   7.676
27196WAT     H181830   5.444   8.479   7.591
27196WAT     H281831   5.311   8.509   7.682
27197WAT      O81832   1.169   7.828   7.386
27197WAT     H181833   1.244   7.894   7.381
27197WAT     H281834   1.169   7.785   7.476
27198WAT      O81835   7.960   0.582   9.865
27198WAT     H181836   8.018   0.513   9.823
27198WAT     H281837   7.935   0.651   9.797
27199WAT      O81838   7.235   2.628   6.608
27199WAT     H181839   7.318   2.634   6.553
27199WAT     H281840   7.259   2.630   6.705
27200WAT      O81841   3.403   0.662   2.639
27200WAT     H181842   3.431   0.757   2.628
27200WAT     H281843   3.386   0.622   2.549
27201WAT      O81844   0.853   0.291   9.390
27201WAT     H181845   0.819   0.383   9.410
27201WAT     H281846   0.886   0.287   9.296
27202WAT      O81847   2.819   5.067   9.018
27202WAT     H181848   2.770   5.127   8.955
27202WAT     H281849   2.864   4.995   8.967
27203WAT      O81850   7.800   2.105   2.964
27203WAT     H181851   7.857   2.093   2.882
27203WAT     H281852   7.842   2.055   3.040
27204WAT      O81853   3.553   6.203   4.163
27204WAT     H181854   3.567   6.294   4.203
27204WAT     H281855   3.515   6.142   4.232
27205WAT      O81856   2.143   9.472   5.819
27205WAT     H181857   2.186   9.515   5.740
27205WAT     H281858   2.205   9.404   5.858
27206WAT      O81859   6.229   2.038   3.576
27206WAT     H181860   6.326   2.042   3.552
27206WAT     H281861   6.207   1.947   3.612
27207WAT      O81862   0.905   3.260   0.229
27207WAT     H181863   0.812   3.251   0.192
27207WAT     H281864   0.971   3.229   0.161
27208WAT      O81865   2.335   1.519   6.225
27208WAT     H181866   2.378   1.476   6.146
27208WAT     H281867   2.396   1.515   6.303
27209WAT      O81868   3.273   7.831   1.518
27209WAT     H181869   3.224   7.794   1.439
27209WAT     H281870   3.328   7.909   1.490
27210WAT      O81871   8.215   1.234   9.036
27210WAT     H181872   8.301   1.191   9.063
27210WAT     H281873   8.215   1.251   8.938
27211WAT      O81874   9.036   0.818   5.871
27211WAT     H181875   9.014   0.897   5.814
27211WAT     H281876   8.980   0.820   5.954
27212WAT      O81877   2.063   3.302   9.076
27212WAT     H181878   2.002   3.225   9.058
27212WAT     H281879   2.019   3.366   9.140
27213WAT      O81880   4.034   4.213   0.565
27213WAT     H181881   3.957   4.175   0.513
27213WAT     H281882   4.062   4.149   0.636
27214WAT      O81883   4.353   1.201   7.654
27214WAT     H181884   4.399   1.146   7.724
27214WAT     H281885   4.276   1.151   7.617
27215WAT      O81886   1.073   6.591   5.325
27215WAT     H181887   1.069   6.568   5.228
27215WAT     H281888   1.032   6.681   5.339
27216WAT      O81889   6.243   9.263   1.525
27216WAT     H181890   6.256   9.325   1.448
27216WAT     H281891   6.177   9.303   1.589
27217WAT      O81892   7.355   9.400   9.123
27217WAT     H181893   7.387   9.470   9.059
27217WAT     H281894   7.426   9.385   9.193
27218WAT      O81895   5.633   5.778   0.563
27218WAT     H181896   5.675   5.746   0.478
27218WAT     H281897   5.535   5.756   0.562
27219WAT      O81898   2.654   7.113   4.859
27219WAT     H181899   2.622   7.194   4.809
27219WAT     H281900   2.740   7.081   4.821
27220WAT      O81901   1.340   8.121   4.930
27220WAT     H181902   1.278   8.179   4.878
27220WAT     H281903   1.370   8.169   5.013
27221WAT      O81904   0.543   4.878   5.145
27221WAT     H181905   0.576   4.929   5.066
27221WAT     H281906   0.511   4.941   5.215
27222WAT      O81907   9.884   6.029   8.268
27222WAT     H181908   9.959   6.094   8.282
27222WAT     H281909   9.799   6.066   8.306
27223WAT      O81910   7.553   9.827   1.405
27223WAT     H181911   7.553   9.727   1.407
27223WAT     H281912   7.648   9.860   1.399
27224WAT      O81913   3.076   2.982   5.539
27224WAT     H181914   3.085   3.030   5.626
27224WAT     H281915   3.165   2.943   5.514
27225WAT      O81916   2.067   7.476   6.796
27225WAT     H181917   2.138   7.444   6.860
27225WAT     H281918   1.979   7.480   6.844
27226WAT      O81919   2.590   5.560   3.271
27226WAT     H181920   2.523   5.604   3.211
27226WAT     H281921   2.548   5.480   3.313
27227WAT      O81922   6.342   6.981   5.267
27227WAT     H181923   6.305   6.987   5.359
27227WAT     H281924   6.422   6.921   5.267
27228WAT      O81925   9.226   0.061   8.175
27228WAT     H181926   9.139   0.108   8.161
27228WAT     H281927   9.294   0.125   8.209
27229WAT      O81928   4.609   6.727   5.012
27229WAT     H181929   4.585   6.791   5.084
27229WAT     H281930   4.604   6.773   4.923
27230WAT      O81931   3.801   0.270   2.232
27230WAT     H181932   3.803   0.201   2.159
27230WAT     H281933   3.715   0.320   2.228
27231WAT      O81934   7.294   3.836   8.765
27231WAT     H181935   7.337   3.776   8.697
27231WAT     H281936   7.267   3.922   8.721
27232WAT      O81937   7.598   8.190   0.755
27232WAT     H181938   7.556   8.269   0.711
27232WAT     H281939   7.665   8.222   0.823
27233WAT      O81940   8.337   3.891   6.095
27233WAT     H181941   8.352   3.978   6.047
27233WAT     H281942   8.290   3.828   6.035
27234WAT      O81943   8.211   2.731   3.413
27234WAT     H181944   8.202   2.662   3.341
27234WAT     H281945   8.254   2.691   3.493
27235WAT      O81946   5.839   0.272   8.084
27235WAT     H181947   5.830   0.357   8.033
27235WAT     H281948   5.860   0.197   8.021
27236WAT      O81949   9.522   7.656   0.485
27236WAT     H181950   9.495   7.735   0.540
27236WAT     H281951   9.549   7.686   0.394
27237WAT      O81952   0.573   2.603   8.277
27237WAT     H181953   0.527   2.624   8.191
27237WAT     H281954   0.576   2.504   8.290
27238WAT      O81955   9.861   9.399   6.851
27238WAT     H181956   9.939   9.345   6.819
27238WAT     H281957   9.814   9.350   6.925
27239WAT      O81958   8.092   7.961   3.667
27239WAT     H181959   8.124   7.999   3.754
27239WAT     H281960   8.073   8.036   3.603
27240WAT      O81961   6.073   9.080   7.085
27240WAT     H181962   6.172   9.068   7.088
27240WAT     H281963   6.050   9.153   7.021
27241WAT      O81964   7.904   6.870   6.568
27241WAT     H181965   7.954   6.951   6.599
27241WAT     H281966   7.932   6.849   6.474
27242WAT      O81967   0.082   5.253   5.494
27242WAT     H181968   0.048   5.335   5.449
27242WAT     H281969   0.006   5.205   5.538
27243WAT      O81970   5.449   1.202   7.075
27243WAT     H181971   5.503   1.128   7.115
27243WAT     H281972   5.383   1.236   7.142
27244WAT      O81973   6.191   1.355   2.573
27244WAT     H181974   6.187   1.258   2.598
27244WAT     H281975   6.231   1.364   2.482
27245WAT      O81976   5.862   3.277   7.280
27245WAT     H181977   5.876   3.321   7.368
27245WAT     H281978   5.848   3.347   7.209
27246WAT      O81979   9.715   4.721   2.390
27246WAT     H181980   9.792   4.754   2.444
27246WAT     H281981   9.726   4.749   2.295
27247WAT      O81982   2.429   1.792   0.579
27247WAT     H181983   2.387   1.817   0.491
27247WAT     H281984   2.482   1.870   0.613
27248WAT      O81985   4.189   1.970   3.321
27248WAT     H181986   4.279   1.933   3.295
27248WAT     H281987   4.122   1.896   3.323
27249WAT      O81988   0.322   2.127   0.401
27249WAT     H181989   0.235   2.165   0.433
27249WAT     H281990   0.335   2.149   0.305
27250WAT      O81991   1.823   6.414   9.142
27250WAT     H181992   1.834   6.392   9.239
27250WAT     H281993   1.822   6.514   9.131
27251WAT      O81994   2.151   6.485   0.967
27251WAT     H181995   2.058   6.490   0.932
27251WAT     H281996   2.154   6.519   1.060
27252WAT      O81997   0.215   4.561   6.075
27252WAT     H181998   0.307   4.545   6.041
27252WAT     H281999   0.203   4.658   6.095
27253WAT      O82000   6.095   1.455   6.391
27253WAT     H182001   6.189   1.435   6.420
27253WAT     H282002   6.090   1.454   6.291
27254WAT      O82003   5.791   2.116   5.627
27254WAT     H182004   5.753   2.087   5.715
27254WAT     H282005   5.720   2.111   5.557
27255WAT      O82006   6.412   6.176   3.875
27255WAT     H182007   6.354   6.206   3.951
27255WAT     H282008   6.506   6.205   3.892
27256WAT      O82009   8.545   3.019   2.856
27256WAT     H182010   8.477   3.032   2.784
27256WAT     H282011   8.636   3.039   2.819
27257WAT      O82012   3.612   4.740   6.698
27257WAT     H182013   3.598   4.815   6.633
27257WAT     H282014   3.608   4.652   6.649
27258WAT      O82015   8.008   8.783   5.051
27258WAT     H182016   8.095   8.739   5.026
27258WAT     H282017   8.015   8.819   5.144
27259WAT      O82018   4.402   7.000   1.135
27259WAT     H182019   4.490   7.045   1.150
27259WAT     H282020   4.407   6.942   1.054
27260WAT      O82021   5.936   4.152   9.016
27260WAT     H182022   5.899   4.148   8.922
27260WAT     H282023   6.017   4.094   9.022
27261WAT      O82024   9.724   5.611   3.529
27261WAT     H182025   9.669   5.618   3.446
27261WAT     H282026   9.688   5.674   3.598
27262WAT      O82027   4.806   0.923   2.542
27262WAT     H182028   4.867   0.844   2.543
27262WAT     H282029   4.859   1.004   2.515
27263WAT      O82030   3.597   5.297   7.757
27263WAT     H182031   3.676   5.309   7.818
27263WAT     H282032   3.527   5.365   7.780
27264WAT      O82033   3.512   8.714   4.244
27264WAT     H182034   3.477   8.692   4.153
27264WAT     H282035   3.600   8.668   4.257
27265WAT      O82036   9.697   7.694   0.034
27265WAT     H182037   9.710   7.612  -0.022
27265WAT     H282038   9.625   7.676   0.102
27266WAT      O82039   0.968   2.135   9.451
27266WAT     H182040   0.871   2.144   9.426
27266WAT     H282041   0.992   2.208   9.516
27267WAT      O82042   0.213   1.431   0.044
27267WAT     H182043   0.269   1.349   0.028
27267WAT     H282044   0.251   1.508  -0.008
27268WAT      O82045   0.468   6.279   1.396
27268WAT     H182046   0.497   6.343   1.466
27268WAT     H282047   0.549   6.244   1.347
27269WAT      O82048   8.252   8.553   6.744
27269WAT     H182049   8.321   8.515   6.805
27269WAT     H282050   8.172   8.582   6.797
27270WAT      O82051   7.416   2.400   4.297
27270WAT     H182052   7.460   2.362   4.378
27270WAT     H282053   7.485   2.415   4.225
27271WAT      O82054   1.133   5.319   9.390
27271WAT     H182055   1.061   5.347   9.328
27271WAT     H282056   1.221   5.321   9.342
27272WAT      O82057   0.772   9.308   9.833
27272WAT     H182058   0.780   9.389   9.890
27272WAT     H282059   0.697   9.251   9.866
27273WAT      O82060   4.227   0.669   9.724
27273WAT     H182061   4.322   0.691   9.702
27273WAT     H282062   4.225   0.605   9.801
27274WAT      O82063   9.143   5.105   5.668
27274WAT     H182064   9.201   5.037   5.624
27274WAT     H282065   9.113   5.172   5.600
27275WAT      O82066   5.232   0.085   0.713
27275WAT     H182067   5.269  -0.001   0.746
27275WAT     H282068   5.183   0.070   0.627
27276WAT      O82069   1.497   2.941   2.792
27276WAT     H182070   1.440   2.901   2.864
27276WAT     H282071   1.478   2.895   2.706
27277WAT      O82072   1.780   1.003   1.573
27277WAT     H182073   1.807   1.085   1.523
27277WAT     H282074   1.717   1.028   1.646
27278WAT      O82075   2.353   1.381   4.952
27278WAT     H182076   2.445   1.420   4.962
27278WAT     H282077   2.357   1.295   4.902
27279WAT      O82078   1.805   4.918   3.985
27279WAT     H182079   1.737   4.963   3.927
27279WAT     H282080   1.764   4.836   4.027
27280WAT      O82081   0.236   1.353   0.440
27280WAT     H182082   0.249   1.447   0.407
27280WAT     H282083   0.177   1.354   0.520
27281WAT      O82084   5.738   4.932   0.027
27281WAT     H182085   5.773   5.024   0.043
27281WAT     H282086   5.663   4.914   0.090
27282WAT      O82087   3.744   9.184   4.222
27282WAT     H182088   3.781   9.095   4.195
27282WAT     H282089   3.789   9.256   4.170
27283WAT      O82090   6.737   6.669   8.403
27283WAT     H182091   6.725   6.629   8.312
27283WAT     H282092   6.742   6.597   8.472
27284WAT      O82093   0.687   3.470   9.299
27284WAT     H182094   0.753   3.529   9.252
27284WAT     H282095   0.596   3.514   9.296
27285WAT      O82096   4.287   7.606   3.104
27285WAT     H182097   4.282   7.506   3.107
27285WAT     H282098   4.382   7.635   3.097
27286WAT      O82099   2.635   7.933   1.262
27286WAT     H182100   2.644   7.911   1.360
27286WAT     H282101   2.538   7.927   1.236
27287WAT      O82102   3.120   8.164   4.223
27287WAT     H182103   3.044   8.099   4.223
27287WAT     H282104   3.197   8.124   4.273
27288WAT      O82105   2.557   9.660   7.995
27288WAT     H182106   2.490   9.698   8.059
27288WAT     H282107   2.573   9.724   7.920
27289WAT      O82108   5.551   6.957   7.575
27289WAT     H182109   5.496   6.893   7.523
27289WAT     H282110   5.552   7.046   7.528
27290WAT      O82111   2.633   9.607   6.016
27290WAT     H182112   2.598   9.622   6.109
27290WAT     H282113   2.613   9.688   5.960
27291WAT      O82114   3.908   7.745   2.956
27291WAT     H182115   3.898   7.778   2.863
27291WAT     H282116   4.000   7.706   2.968
27292WAT      O82117   2.935   4.029   2.235
27292WAT     H182118   2.940   3.931   2.215
27292WAT     H282119   2.846   4.064   2.208
27293WAT      O82120   6.110   1.826   2.697
27293WAT     H182121   6.169   1.749   2.720
27293WAT     H282122   6.150   1.877   2.621
27294WAT      O82123   1.915   7.494   5.636
27294WAT     H182124   1.831   7.474   5.686
27294WAT     H282125   1.952   7.410   5.597
27295WAT      O82126   7.188   0.494   8.294
27295WAT     H182127   7.100   0.454   8.320
27295WAT     H282128   7.175   0.589   8.266
27296WAT      O82129   3.790   1.051   3.787
27296WAT     H182130   3.833   1.055   3.697
27296WAT     H282131   3.805   0.961   3.828
27297WAT      O82132   5.493   7.489   9.094
27297WAT     H182133   5.544   7.492   9.008
27297WAT     H282134   5.546   7.438   9.162
27298WAT      O82135   1.569   9.844   8.343
27298WAT     H182136   1.632   9.907   8.390
27298WAT     H282137   1.607   9.751   8.346
27299WAT      O82138   8.762   0.543   4.627
27299WAT     H182139   8.743   0.565   4.722
27299WAT     H282140   8.860   0.553   4.610
27300WAT      O82141   7.660   1.359   2.073
27300WAT     H182142   7.583   1.386   2.015
27300WAT     H282143   7.719   1.438   2.088
27301WAT      O82144   1.110   3.906   1.038
27301WAT     H182145   1.193   3.858   1.011
27301WAT     H282146   1.130   4.004   1.047
27302WAT      O82147   3.078   9.701   3.186
27302WAT     H182148   3.095   9.749   3.272
27302WAT     H282149   3.056   9.768   3.115
27303WAT      O82150   0.378   4.579   4.038
27303WAT     H182151   0.347   4.670   4.065
27303WAT     H282152   0.395   4.577   3.940
27304WAT      O82153   4.237   8.522   0.578
27304WAT     H182154   4.311   8.527   0.510
27304WAT     H282155   4.210   8.427   0.591
27305WAT      O82156   0.048   6.461   0.031
27305WAT     H182157  -0.021   6.413   0.085
27305WAT     H282158   0.135   6.462   0.081
27306WAT      O82159   2.203   3.970   6.460
27306WAT     H182160   2.236   4.031   6.388
27306WAT     H282161   2.139   3.904   6.420
27307WAT      O82162   7.743   6.120   7.104
27307WAT     H182163   7.730   6.030   7.063
27307WAT     H282164   7.831   6.158   7.074
27308WAT      O82165   9.641   2.329   8.578
27308WAT     H182166   9.566   2.384   8.541
27308WAT     H282167   9.686   2.380   8.651
27309WAT      O82168   6.558   9.788   9.294
27309WAT     H182169   6.613   9.803   9.376
27309WAT     H282170   6.507   9.872   9.273
27310WAT      O82171   5.867   8.779   7.601
27310WAT     H182172   5.874   8.705   7.668
27310WAT     H282173   5.835   8.862   7.646
27311WAT      O82174   8.689   7.575   2.801
27311WAT     H182175   8.771   7.557   2.747
27311WAT     H282176   8.702   7.541   2.894
27312WAT      O82177   8.396   5.463   4.152
27312WAT     H182178   8.425   5.534   4.217
27312WAT     H282179   8.387   5.376   4.199
27313WAT      O82180   3.980   4.342   9.817
27313WAT     H182181   4.004   4.438   9.800
27313WAT     H282182   4.016   4.315   9.906
27314WAT      O82183   7.105   2.267   8.479
27314WAT     H182184   7.015   2.297   8.448
27314WAT     H282185   7.101   2.248   8.578
27315WAT      O82186   6.804   4.658   3.028
27315WAT     H182187   6.758   4.671   2.940
27315WAT     H282188   6.768   4.577   3.073
27316WAT      O82189   1.515   2.243   9.155
27316WAT     H182190   1.492   2.180   9.229
27316WAT     H282191   1.613   2.259   9.154
27317WAT      O82192   6.601   7.469   0.163
27317WAT     H182193   6.540   7.544   0.188
27317WAT     H282194   6.609   7.465   0.063
27318WAT      O82195   1.081   8.987   1.187
27318WAT     H182196   1.115   9.017   1.097
27318WAT     H282197   0.995   9.034   1.207
27319WAT      O82198   3.287   7.966   0.058
27319WAT     H182199   3.194   7.931   0.068
27319WAT     H282200   3.320   7.947  -0.034
27320WAT      O82201   5.880   4.685   0.144
27320WAT     H182202   5.967   4.637   0.149
27320WAT     H282203   5.884   4.757   0.075
27321WAT      O82204   7.446   5.342   1.433
27321WAT     H182205   7.347   5.345   1.447
27321WAT     H282206   7.477   5.429   1.394
27322WAT      O82207   8.319   5.802   2.331
27322WAT     H182208   8.376   5.731   2.290
27322WAT     H282209   8.290   5.773   2.422
27323WAT      O82210   7.966   8.728   5.710
27323WAT     H182211   7.974   8.673   5.793
27323WAT     H282212   7.986   8.824   5.730
27324WAT      O82213   5.181   5.061   4.773
27324WAT     H182214   5.093   5.077   4.819
27324WAT     H282215   5.222   5.149   4.750
27325WAT      O82216   1.322   6.881   5.477
27325WAT     H182217   1.386   6.891   5.553
27325WAT     H282218   1.347   6.801   5.423
27326WAT      O82219   8.541   7.917   1.961
27326WAT     H182220   8.596   7.863   1.898
27326WAT     H282221   8.454   7.941   1.918
27327WAT      O82222   2.785   8.875   8.777
27327WAT     H182223   2.689   8.893   8.798
27327WAT     H282224   2.820   8.804   8.839
27328WAT      O82225   3.220   2.746   6.054
27328WAT     H182226   3.149   2.764   5.986
27328WAT     H282227   3.261   2.833   6.082
27329WAT      O82228   1.501   1.961   5.299
27329WAT     H182229   1.547   1.877   5.329
27329WAT     H282230   1.560   2.010   5.235
27330WAT      O82231   6.001   9.840   3.983
27330WAT     H182232   5.954   9.821   3.897
27330WAT     H282233   6.015   9.755   4.033
27331WAT      O82234   4.984   5.968   7.187
27331WAT     H182235   4.984   5.874   7.220
27331WAT     H282236   4.971   5.968   7.088
27332WAT      O82237   7.789   0.703   4.920
27332WAT     H182238   7.733   0.786   4.921
27332WAT     H282239   7.852   0.705   4.998
27333WAT      O82240   6.592   5.631   9.524
27333WAT     H182241   6.562   5.634   9.429
27333WAT     H282242   6.631   5.719   9.551
27334WAT      O82243   6.442   4.807   3.339
27334WAT     H182244   6.468   4.875   3.270
27334WAT     H282245   6.348   4.823   3.367
27335WAT      O82246   4.504   6.865   4.068
27335WAT     H182247   4.410   6.896   4.051
27335WAT     H282248   4.519   6.856   4.167
27336WAT      O82249   9.815   2.983   7.635
27336WAT     H182250   9.735   2.955   7.581
27336WAT     H282251   9.861   2.903   7.671
27337WAT      O82252   1.525   4.359   4.221
27337WAT     H182253   1.520   4.450   4.181
27337WAT     H282254   1.617   4.342   4.254
27338WAT      O82255   1.921   8.154   5.312
27338WAT     H182256   1.965   8.225   5.258
27338WAT     H282257   1.943   8.064   5.273
27339WAT      O82258   1.252   3.677   1.275
27339WAT     H182259   1.306   3.700   1.194
27339WAT     H282260   1.218   3.761   1.317
27340WAT      O82261   8.229   3.598   0.375
27340WAT     H182262   8.226   3.695   0.351
27340WAT     H282263   8.138   3.558   0.363
27341WAT      O82264   0.207   2.234   2.990
27341WAT     H182265   0.264   2.289   2.930
27341WAT     H282266   0.202   2.277   3.080
27342WAT      O82267   5.001   4.463   2.792
27342WAT     H182268   4.985   4.396   2.864
27342WAT     H282269   5.024   4.551   2.833
27343WAT      O82270   1.146   1.001   5.218
27343WAT     H182271   1.084   1.007   5.139
27343WAT     H282272   1.092   0.997   5.302
27344WAT      O82273   2.524   4.368   9.700
27344WAT     H182274   2.447   4.403   9.753
27344WAT     H282275   2.528   4.268   9.709
27345WAT      O82276   8.924   5.376   2.627
27345WAT     H182277   8.942   5.433   2.547
27345WAT     H282278   8.933   5.280   2.602
27346WAT      O82279   6.835   2.433   2.729
27346WAT     H182280   6.879   2.372   2.795
27346WAT     H282281   6.739   2.409   2.721
27347WAT      O82282   9.687   6.106   9.159
27347WAT     H182283   9.677   6.201   9.131
27347WAT     H282284   9.613   6.052   9.119
27348WAT      O82285   0.543   8.783   8.014
27348WAT     H182286   0.523   8.705   7.955
27348WAT     H282287   0.460   8.810   8.063
27349WAT      O82288   9.775   3.711   0.677
27349WAT     H182289   9.861   3.661   0.682
27349WAT     H282290   9.717   3.686   0.754
27350WAT      O82291   9.054   4.700   9.574
27350WAT     H182292   9.102   4.715   9.661
27350WAT     H282293   8.960   4.733   9.581
27351WAT      O82294   5.725   9.157   3.522
27351WAT     H182295   5.756   9.131   3.430
27351WAT     H282296   5.681   9.247   3.518
27352WAT      O82297   1.132   0.697   3.526
27352WAT     H182298   1.149   0.793   3.507
27352WAT     H282299   1.204   0.641   3.485
27353WAT      O82300   4.155   1.256   6.376
27353WAT     H182301   4.166   1.244   6.474
27353WAT     H282302   4.059   1.241   6.351
27354WAT      O82303   6.646   6.796   4.184
27354WAT     H182304   6.572   6.835   4.238
27354WAT     H282305   6.732   6.803   4.235
27355WAT      O82306   0.156   4.935   5.873
27355WAT     H182307   0.203   4.979   5.797
27355WAT     H282308   0.130   4.842   5.848
27356WAT      O82309   8.436   3.955   1.051
27356WAT     H182310   8.375   3.876   1.060
27356WAT     H282311   8.530   3.923   1.043
27357WAT      O82312   6.450   0.190   9.225
27357WAT     H182313   6.516   0.263   9.243
27357WAT     H282314   6.437   0.180   9.126
27358WAT      O82315   8.903   1.669   3.374
27358WAT     H182316   8.822   1.724   3.397
27358WAT     H282317   8.899   1.582   3.423
27359WAT      O82318   5.762   9.038   2.610
27359WAT     H182319   5.783   9.104   2.538
27359WAT     H282320   5.825   9.050   2.686
27360WAT      O82321   3.632   0.943   0.903
27360WAT     H182322   3.592   0.861   0.861
27360WAT     H282323   3.562   0.990   0.956
27361WAT      O82324   1.723   0.906   0.064
27361WAT     H182325   1.627   0.930   0.079
27361WAT     H282326   1.729   0.810   0.036
27362WAT      O82327   1.228   1.859   3.622
27362WAT     H182328   1.304   1.853   3.558
27362WAT     H282329   1.258   1.829   3.713
27363WAT      O82330   0.209   6.766   2.381
27363WAT     H182331   0.263   6.682   2.374
27363WAT     H282332   0.114   6.743   2.405
27364WAT      O82333   3.825   8.298   2.592
27364WAT     H182334   3.920   8.324   2.574
27364WAT     H282335   3.790   8.351   2.670
27365WAT      O82336   8.101   8.019   0.074
27365WAT     H182337   8.197   7.991   0.064
27365WAT     H282338   8.042   7.947   0.037
27366WAT      O82339   0.507   8.595   0.274
27366WAT     H182340   0.561   8.674   0.247
27366WAT     H282341   0.420   8.597   0.225
27367WAT      O82342   3.467   1.415   8.003
27367WAT     H182343   3.557   1.431   8.043
27367WAT     H282344   3.468   1.437   7.906
27368WAT      O82345   3.728   8.718   0.654
27368WAT     H182346   3.823   8.708   0.683
27368WAT     H282347   3.702   8.814   0.660
27369WAT      O82348   7.558   5.562   1.337
27369WAT     H182349   7.629   5.618   1.379
27369WAT     H282350   7.579   5.550   1.239
27370WAT      O82351   2.026   5.369   2.076
27370WAT     H182352   2.122   5.382   2.052
27370WAT     H282353   1.969   5.428   2.019
27371WAT      O82354   3.295   9.429   1.028
27371WAT     H182355   3.299   9.381   1.115
27371WAT     H282356   3.322   9.367   0.954
27372WAT      O82357   3.122   6.845   8.967
27372WAT     H182358   3.142   6.916   8.900
27372WAT     H282359   3.165   6.868   9.054
27373WAT      O82360   4.946   9.416   1.439
27373WAT     H182361   4.929   9.400   1.536
27373WAT     H282362   5.040   9.450   1.427
27374WAT      O82363   6.945   5.258   1.508
27374WAT     H182364   6.853   5.297   1.496
27374WAT     H282365   6.945   5.164   1.474
27375WAT      O82366   6.065   7.703   1.152
27375WAT     H182367   6.066   7.623   1.212
27375WAT     H282368   6.020   7.779   1.199
27376WAT      O82369   9.379   1.010   9.799
27376WAT     H182370   9.449   0.947   9.831
27376WAT     H282371   9.373   1.088   9.862
27377WAT      O82372   9.359   4.568   8.220
27377WAT     H182373   9.267   4.599   8.193
27377WAT     H282374   9.352   4.483   8.271
27378WAT      O82375   5.062   3.864   2.306
27378WAT     H182376   5.127   3.837   2.377
27378WAT     H282377   5.055   3.964   2.303
27379WAT      O82378   8.268   2.778   7.936
27379WAT     H182379   8.311   2.777   8.026
27379WAT     H282380   8.314   2.845   7.878
27380WAT      O82381   7.368   1.390   7.395
27380WAT     H182382   7.378   1.482   7.431
27380WAT     H282383   7.405   1.324   7.461
27381WAT      O82384   3.748   1.526   9.837
27381WAT     H182385   3.701   1.550   9.752
27381WAT     H282386   3.804   1.603   9.867
27382WAT      O82387   4.626   1.866   8.106
27382WAT     H182388   4.638   1.817   8.020
27382WAT     H282389   4.535   1.846   8.144
27383WAT      O82390   5.997   4.383   8.518
27383WAT     H182391   5.946   4.426   8.593
27383WAT     H282392   5.934   4.330   8.461
27384WAT      O82393   1.208   4.228   6.985
27384WAT     H182394   1.196   4.142   6.935
27384WAT     H282395   1.303   4.236   7.015
27385WAT      O82396   6.996   5.029   5.279
27385WAT     H182397   7.007   4.959   5.209
27385WAT     H282398   6.954   5.110   5.240
27386WAT      O82399   4.760   7.588   0.532
27386WAT     H182400   4.665   7.611   0.555
27386WAT     H282401   4.800   7.663   0.479
27387WAT      O82402   3.839   5.739   8.351
27387WAT     H182403   3.842   5.683   8.434
27387WAT     H282404   3.846   5.681   8.270
27388WAT      O82405   7.365   9.643   3.975
27388WAT     H182406   7.339   9.730   3.932
27388WAT     H282407   7.452   9.612   3.936
27389WAT      O82408   2.702   1.818   1.622
27389WAT     H182409   2.649   1.902   1.609
27389WAT     H282410   2.717   1.775   1.534
27390WAT      O82411   6.060   4.946   8.341
27390WAT     H182412   5.985   4.902   8.292
27390WAT     H282413   6.039   5.044   8.352
27391WAT      O82414   2.661   8.737   2.940
27391WAT     H182415   2.607   8.712   3.021
27391WAT     H282416   2.671   8.836   2.937
27392WAT      O82417   0.245   3.831   6.797
27392WAT     H182418   0.271   3.739   6.825
27392WAT     H282419   0.162   3.826   6.741
27393WAT      O82420   0.467   1.799   2.541
27393WAT     H182421   0.529   1.738   2.590
27393WAT     H282422   0.437   1.873   2.602
27394WAT      O82423   3.160   8.712   1.011
27394WAT     H182424   3.070   8.754   1.003
27394WAT     H282425   3.183   8.664   0.926
27395WAT      O82426   3.101   4.399   4.544
27395WAT     H182427   3.040   4.319   4.538
27395WAT     H282428   3.187   4.378   4.498
27396WAT      O82429   0.525   9.611   8.700
27396WAT     H182430   0.434   9.588   8.734
27396WAT     H282431   0.529   9.709   8.679
27397WAT      O82432   8.260   0.214   2.366
27397WAT     H182433   8.213   0.131   2.396
27397WAT     H282434   8.348   0.220   2.411
27398WAT      O82435   6.632   2.956   9.135
27398WAT     H182436   6.562   2.893   9.168
27398WAT     H282437   6.690   2.909   9.069
27399WAT      O82438   4.656   3.510   1.851
27399WAT     H182439   4.699   3.464   1.773
27399WAT     H282440   4.619   3.441   1.914
27400WAT      O82441   8.101   1.766   6.021
27400WAT     H182442   8.158   1.793   5.944
27400WAT     H282443   8.133   1.813   6.104
27401WAT      O82444   6.582   6.165   9.621
27401WAT     H182445   6.500   6.150   9.566
27401WAT     H282446   6.555   6.189   9.714
27402WAT      O82447   2.665   7.459   2.937
27402WAT     H182448   2.654   7.527   3.009
27402WAT     H282449   2.576   7.417   2.917
27403WAT      O82450   1.720   5.041   8.933
27403WAT     H182451   1.715   4.962   8.871
27403WAT     H282452   1.768   5.116   8.888
27404WAT      O82453   5.881   6.822   6.794
27404WAT     H182454   5.891   6.731   6.834
27404WAT     H282455   5.915   6.821   6.700
27405WAT      O82456   2.711   0.582   2.635
27405WAT     H182457   2.673   0.585   2.727
27405WAT     H282458   2.656   0.639   2.574
27406WAT      O82459   6.754   9.027   0.362
27406WAT     H182460   6.673   8.992   0.408
27406WAT     H282461   6.727   9.095   0.293
27407WAT      O82462   8.169   6.154   8.560
27407WAT     H182463   8.091   6.124   8.505
27407WAT     H282464   8.236   6.198   8.500
27408WAT      O82465   4.779   3.473   4.391
27408WAT     H182466   4.802   3.569   4.405
27408WAT     H282467   4.785   3.424   4.478
27409WAT      O82468   7.998   2.062   6.355
27409WAT     H182469   8.017   2.096   6.447
27409WAT     H282470   8.052   2.113   6.289
27410WAT      O82471   8.721   5.010   5.313
27410WAT     H182472   8.785   4.944   5.274
27410WAT     H282473   8.737   5.100   5.272
27411WAT      O82474   5.344   1.498   9.424
27411WAT     H182475   5.292   1.578   9.454
27411WAT     H282476   5.441   1.521   9.418
27412WAT      O82477   0.329   5.765   0.493
27412WAT     H182478   0.300   5.787   0.400
27412WAT     H282479   0.424   5.794   0.506
27413WAT      O82480   2.082   2.313   9.618
27413WAT     H182481   2.090   2.239   9.551
27413WAT     H282482   2.172   2.356   9.629
27414WAT      O82483   2.225   1.420   7.734
27414WAT     H182484   2.301   1.409   7.799
27414WAT     H282485   2.148   1.364   7.764
27415WAT      O82486   5.425   0.656   3.791
27415WAT     H182487   5.437   0.614   3.701
27415WAT     H282488   5.329   0.648   3.819
27416WAT      O82489   7.762   4.512   4.732
27416WAT     H182490   7.837   4.448   4.716
27416WAT     H282491   7.784   4.600   4.688
27417WAT      O82492   5.954   3.315   7.921
27417WAT     H182493   5.856   3.310   7.941
27417WAT     H282494   5.980   3.236   7.866
27418WAT      O82495   0.931   3.621   6.557
27418WAT     H182496   0.978   3.532   6.552
27418WAT     H282497   0.837   3.611   6.523
27419WAT      O82498   0.278   0.986   4.733
27419WAT     H182499   0.195   1.020   4.688
27419WAT     H282500   0.260   0.897   4.774
27420WAT      O82501   0.966   2.622   4.790
27420WAT     H182502   0.919   2.653   4.873
27420WAT     H282503   0.931   2.672   4.711
27421WAT      O82504   7.423   8.210   8.666
27421WAT     H182505   7.415   8.113   8.642
27421WAT     H282506   7.332   8.247   8.685
27422WAT      O82507   7.252   1.031   3.507
27422WAT     H182508   7.264   1.037   3.408
27422WAT     H282509   7.158   1.005   3.528
27423WAT      O82510   9.804   8.978   9.340
27423WAT     H182511   9.806   8.933   9.251
27423WAT     H282512   9.890   8.961   9.388
27424WAT      O82513   5.109   5.068   7.238
27424WAT     H182514   5.014   5.061   7.207
27424WAT     H282515   5.111   5.098   7.333
27425WAT      O82516   4.430   8.922   4.769
27425WAT     H182517   4.485   8.926   4.853
27425WAT     H282518   4.333   8.928   4.793
27426WAT      O82519   4.047   4.848   9.213
27426WAT     H182520   3.968   4.909   9.214
27426WAT     H282521   4.107   4.870   9.290
27427WAT      O82522   5.516   3.257   9.376
27427WAT     H182523   5.572   3.338   9.360
27427WAT     H282524   5.453   3.275   9.451
27428WAT      O82525   8.351   7.928   3.884
27428WAT     H182526   8.283   8.000   3.893
27428WAT     H282527   8.321   7.847   3.934
27429WAT      O82528   5.810   1.189   4.668
27429WAT     H182529   5.774   1.139   4.589
27429WAT     H282530   5.806   1.287   4.650
27430WAT      O82531   1.970   5.789   1.826
27430WAT     H182532   1.976   5.813   1.729
27430WAT     H282533   1.963   5.873   1.880
27431WAT      O82534   5.966   7.839   9.776
27431WAT     H182535   5.966   7.878   9.684
27431WAT     H282536   6.060   7.819   9.803
27432WAT      O82537   7.891   6.081   4.879
27432WAT     H182538   7.821   6.134   4.831
27432WAT     H282539   7.951   6.143   4.929
27433WAT      O82540   4.844   7.749   5.120
27433WAT     H182541   4.843   7.698   5.034
27433WAT     H282542   4.935   7.787   5.135
27434WAT      O82543   5.594   0.832   3.615
27434WAT     H182544   5.508   0.809   3.568
27434WAT     H282545   5.585   0.811   3.712
27435WAT      O82546   3.625   1.047   4.737
27435WAT     H182547   3.550   1.006   4.790
27435WAT     H282548   3.711   1.006   4.766
27436WAT      O82549   9.736   6.715   5.389
27436WAT     H182550   9.793   6.784   5.433
27436WAT     H282551   9.762   6.625   5.423
27437WAT      O82552   2.399   6.407   1.254
27437WAT     H182553   2.413   6.499   1.219
27437WAT     H282554   2.359   6.412   1.346
27438WAT      O82555   9.717   7.302   6.020
27438WAT     H182556   9.802   7.355   6.013
27438WAT     H282557   9.726   7.234   6.093
27439WAT      O82558   9.655   6.019   6.628
27439WAT     H182559   9.720   6.082   6.670
27439WAT     H282560   9.586   5.992   6.696
27440WAT      O82561   5.722   4.119   7.493
27440WAT     H182562   5.821   4.130   7.493
27440WAT     H282563   5.696   4.045   7.430
27441WAT      O82564   5.612   3.858   2.183
27441WAT     H182565   5.534   3.920   2.198
27441WAT     H282566   5.696   3.912   2.184
27442WAT      O82567   2.589   9.494   1.839
27442WAT     H182568   2.604   9.399   1.866
27442WAT     H282569   2.580   9.499   1.739
27443WAT      O82570   2.411   6.967   4.355
27443WAT     H182571   2.402   7.002   4.449
27443WAT     H282572   2.339   6.900   4.337
27444WAT      O82573   0.703   0.924   1.496
27444WAT     H182574   0.799   0.926   1.523
27444WAT     H282575   0.677   1.014   1.459
27445WAT      O82576   0.850   2.147   6.665
27445WAT     H182577   0.756   2.145   6.699
27445WAT     H282578   0.899   2.065   6.695
27446WAT      O82579   3.340   0.662   2.917
27446WAT     H182580   3.378   0.753   2.930
27446WAT     H282581   3.325   0.646   2.820
27447WAT      O82582   5.356   6.633   0.875
27447WAT     H182583   5.300   6.556   0.845
27447WAT     H282584   5.428   6.600   0.937
27448WAT      O82585   8.988   5.839   5.673
27448WAT     H182586   9.030   5.853   5.583
27448WAT     H282587   8.948   5.925   5.705
27449WAT      O82588   4.856   3.284   2.255
27449WAT     H182589   4.802   3.368   2.262
27449WAT     H282590   4.915   3.276   2.335
27450WAT      O82591   5.889   8.060   1.659
27450WAT     H182592   5.806   8.019   1.622
27450WAT     H282593   5.941   7.990   1.709
27451WAT      O82594   5.242   5.316   9.470
27451WAT     H182595   5.165   5.296   9.530
27451WAT     H282596   5.207   5.347   9.381
27452WAT      O82597   2.727   8.513   9.280
27452WAT     H182598   2.807   8.476   9.231
27452WAT     H282599   2.708   8.605   9.247
27453WAT      O82600   0.448   2.201   8.565
27453WAT     H182601   0.366   2.145   8.573
27453WAT     H282602   0.502   2.192   8.648
27454WAT      O82603   2.388   0.731   1.597
27454WAT     H182604   2.298   0.749   1.637
27454WAT     H282605   2.422   0.643   1.628
27455WAT      O82606   6.007   6.381   0.732
27455WAT     H182607   5.923   6.379   0.787
27455WAT     H282608   6.049   6.471   0.738
27456WAT      O82609   3.701   3.604   3.332
27456WAT     H182610   3.684   3.545   3.411
27456WAT     H282611   3.753   3.684   3.360
27457WAT      O82612   3.002   0.618   7.944
27457WAT     H182613   3.045   0.536   7.909
27457WAT     H282614   3.008   0.619   8.044
27458WAT      O82615   5.580   0.911   0.019
27458WAT     H182616   5.526   0.972  -0.038
27458WAT     H282617   5.670   0.898  -0.022
27459WAT      O82618   7.301   8.866   5.427
27459WAT     H182619   7.206   8.890   5.408
27459WAT     H282620   7.347   8.839   5.342
27460WAT      O82621   6.236   2.988   6.074
27460WAT     H182622   6.273   2.936   6.151
27460WAT     H282623   6.137   2.994   6.082
27461WAT      O82624   9.356   1.540   7.295
27461WAT     H182625   9.428   1.606   7.319
27461WAT     H282626   9.322   1.560   7.204
27462WAT      O82627   7.453   0.983   1.859
27462WAT     H182628   7.391   0.975   1.937
27462WAT     H282629   7.542   0.946   1.883
27463WAT      O82630   1.096   6.873   9.606
27463WAT     H182631   1.072   6.968   9.626
27463WAT     H282632   1.110   6.863   9.508
27464WAT      O82633   5.758   2.345   1.772
27464WAT     H182634   5.754   2.254   1.732
27464WAT     H282635   5.775   2.338   1.870
27465WAT      O82636   8.699   3.151   0.437
27465WAT     H182637   8.637   3.225   0.411
27465WAT     H282638   8.647   3.069   0.458
27466WAT      O82639   3.054   6.748   1.445
27466WAT     H182640   2.974   6.756   1.387
27466WAT     H282641   3.055   6.823   1.512
27467WAT      O82642   3.539   7.734   1.832
27467WAT     H182643   3.627   7.716   1.874
27467WAT     H282644   3.534   7.830   1.803
27468WAT      O82645   5.318   7.096   3.290
27468WAT     H182646   5.295   7.021   3.352
27468WAT     H282647   5.273   7.083   3.202
27469WAT      O82648   3.463   4.767   5.691
27469WAT     H182649   3.562   4.780   5.699
27469WAT     H282650   3.437   4.767   5.594
27470WAT      O82651   1.609   2.077   2.344
27470WAT     H182652   1.596   1.986   2.384
27470WAT     H282653   1.542   2.091   2.271
27471WAT      O82654   3.014   9.606   9.692
27471WAT     H182655   3.016   9.510   9.721
27471WAT     H282656   3.106   9.644   9.699
27472WAT      O82657   3.317   1.554   0.006
27472WAT     H182658   3.331   1.489  -0.069
27472WAT     H282659   3.367   1.639  -0.014
27473WAT      O82660   8.058   8.979   0.991
27473WAT     H182661   8.118   9.057   1.012
27473WAT     H282662   8.072   8.952   0.896
27474WAT      O82663   3.247   0.490   0.892
27474WAT     H182664   3.227   0.406   0.943
27474WAT     H282665   3.318   0.541   0.939
27475WAT      O82666   3.403   8.885   6.383
27475WAT     H182667   3.357   8.948   6.445
27475WAT     H282668   3.390   8.916   6.289
27476WAT      O82669   3.212   6.023   1.124
27476WAT     H182670   3.225   5.924   1.128
27476WAT     H282671   3.167   6.047   1.037
27477WAT      O82672   7.405   1.174   8.363
27477WAT     H182673   7.432   1.208   8.453
27477WAT     H282674   7.323   1.222   8.332
27478WAT      O82675   7.698   7.245   2.401
27478WAT     H182676   7.600   7.223   2.391
27478WAT     H282677   7.709   7.344   2.406
27479WAT      O82678   9.557   6.282   3.418
27479WAT     H182679   9.473   6.236   3.448
27479WAT     H282680   9.567   6.368   3.468
27480WAT      O82681   8.043   7.359   0.313
27480WAT     H182682   7.966   7.300   0.338
27480WAT     H282683   8.013   7.425   0.243
27481WAT      O82684   1.896   8.506   3.277
27481WAT     H182685   1.957   8.446   3.224
27481WAT     H282686   1.951   8.564   3.337
27482WAT      O82687   8.993   4.233   1.707
27482WAT     H182688   9.064   4.170   1.736
27482WAT     H282689   9.031   4.325   1.699
27483WAT      O82690   3.922   4.121   9.458
27483WAT     H182691   3.871   4.047   9.502
27483WAT     H282692   3.891   4.133   9.364
27484WAT      O82693   0.735   9.126   0.297
27484WAT     H182694   0.811   9.190   0.306
27484WAT     H282695   0.757   9.041   0.343
27485WAT      O82696   0.759   0.455   6.699
27485WAT     H182697   0.730   0.467   6.794
27485WAT     H282698   0.679   0.439   6.641
27486WAT      O82699   9.514   3.538   3.623
27486WAT     H182700   9.599   3.515   3.672
27486WAT     H282701   9.455   3.458   3.618
27487WAT      O82702   1.372   6.954   8.171
27487WAT     H182703   1.405   7.048   8.181
27487WAT     H282704   1.310   6.933   8.248
27488WAT      O82705   2.471   3.064   9.036
27488WAT     H182706   2.566   3.061   9.003
27488WAT     H282707   2.451   3.155   9.072
27489WAT      O82708   6.285   5.572   8.030
27489WAT     H182709   6.258   5.516   7.952
27489WAT     H282710   6.367   5.532   8.073
27490WAT      O82711   9.264   0.435   4.514
27490WAT     H182712   9.264   0.453   4.415
27490WAT     H282713   9.351   0.395   4.541
27491WAT      O82714   8.854   6.828   4.436
27491WAT     H182715   8.774   6.852   4.491
27491WAT     H282716   8.911   6.763   4.486
27492WAT      O82717   1.435   9.585   9.691
27492WAT     H182718   1.499   9.630   9.753
27492WAT     H282719   1.386   9.654   9.638
27493WAT      O82720   2.165   2.211   1.545
27493WAT     H182721   2.166   2.294   1.489
27493WAT     H282722   2.240   2.213   1.610
27494WAT      O82723   4.830   1.696   6.882
27494WAT     H182724   4.834   1.672   6.979
27494WAT     H282725   4.920   1.682   6.841
27495WAT      O82726   5.763   3.680   4.175
27495WAT     H182727   5.753   3.765   4.227
27495WAT     H282728   5.722   3.605   4.227
27496WAT      O82729   4.078   0.403   6.618
27496WAT     H182730   3.998   0.422   6.560
27496WAT     H282731   4.101   0.485   6.670
27497WAT      O82732   9.544   3.188   6.868
27497WAT     H182733   9.462   3.144   6.832
27497WAT     H282734   9.532   3.288   6.867
27498WAT      O82735   4.777   6.768   1.611
27498WAT     H182736   4.683   6.768   1.578
27498WAT     H282737   4.838   6.738   1.537
27499WAT      O82738   2.237   4.751   3.457
27499WAT     H182739   2.274   4.686   3.391
27499WAT     H282740   2.195   4.828   3.408
27500WAT      O82741   6.555   8.057   7.544
27500WAT     H182742   6.601   8.128   7.491
27500WAT     H282743   6.541   7.976   7.486
27501WAT      O82744   1.233   4.694   4.726
27501WAT     H182745   1.141   4.727   4.746
27501WAT     H282746   1.244   4.686   4.627
27502WAT      O82747   4.030   8.205   2.186
27502WAT     H182748   4.109   8.166   2.232
27502WAT     H282749   3.965   8.240   2.254
27503WAT      O82750   6.635   9.277   4.873
27503WAT     H182751   6.553   9.236   4.833
27503WAT     H282752   6.691   9.206   4.915
27504WAT      O82753   5.885   5.531   6.948
27504WAT     H182754   5.954   5.534   6.875
27504WAT     H282755   5.794   5.523   6.907
27505WAT      O82756   9.049   7.463   7.176
27505WAT     H182757   8.974   7.530   7.180
27505WAT     H282758   9.088   7.452   7.268
27506WAT      O82759   2.175   5.929   6.979
27506WAT     H182760   2.247   5.915   7.047
27506WAT     H282761   2.145   6.024   6.981
27507WAT      O82762   3.011   1.421   7.765
27507WAT     H182763   3.107   1.393   7.773
27507WAT     H282764   2.952   1.343   7.782
27508WAT      O82765   8.529   1.865   7.608
27508WAT     H182766   8.610   1.889   7.662
27508WAT     H282767   8.532   1.913   7.520
27509WAT      O82768   2.754   0.587   7.375
27509WAT     H182769   2.678   0.562   7.316
27509WAT     H282770   2.724   0.587   7.471
27510WAT      O82771   8.442   8.487   9.388
27510WAT     H182772   8.396   8.493   9.299
27510WAT     H282773   8.393   8.423   9.446
27511WAT      O82774   7.817   9.122   7.243
27511WAT     H182775   7.897   9.064   7.251
27511WAT     H282776   7.772   9.105   7.155
27512WAT      O82777   7.564   7.791   7.450
27512WAT     H182778   7.645   7.814   7.397
27512WAT     H282779   7.549   7.860   7.520
27513WAT      O82780   3.594   3.072   5.503
27513WAT     H182781   3.637   2.988   5.469
27513WAT     H282782   3.598   3.142   5.431
27514WAT      O82783   5.582   3.954   4.500
27514WAT     H182784   5.656   3.983   4.561
27514WAT     H282785   5.497   4.000   4.525
27515WAT      O82786   6.987   8.278   0.539
27515WAT     H182787   7.029   8.251   0.626
27515WAT     H282788   6.974   8.197   0.482
27516WAT      O82789   7.736   5.468   3.944
27516WAT     H182790   7.742   5.400   4.017
27516WAT     H282791   7.779   5.432   3.861
27517WAT      O82792   7.855   6.305   0.726
27517WAT     H182793   7.848   6.321   0.627
27517WAT     H282794   7.939   6.346   0.761
27518WAT      O82795   6.222   1.862   8.081
27518WAT     H182796   6.173   1.944   8.052
27518WAT     H282797   6.316   1.886   8.103
27519WAT      O82798   5.298   8.968   8.562
27519WAT     H182799   5.378   9.027   8.571
27519WAT     H282800   5.327   8.873   8.552
27520WAT      O82801   1.584   5.907   5.274
27520WAT     H182802   1.485   5.897   5.270
27520WAT     H282803   1.617   5.883   5.365
27521WAT      O82804   2.946   8.903   4.624
27521WAT     H182805   2.854   8.866   4.617
27521WAT     H282806   3.013   8.829   4.616
27522WAT      O82807   3.284   3.591   7.646
27522WAT     H182808   3.262   3.584   7.549
27522WAT     H282809   3.227   3.528   7.699
27523WAT      O82810   8.429   5.079   2.148
27523WAT     H182811   8.415   4.986   2.113
27523WAT     H282812   8.482   5.132   2.081
27524WAT      O82813   4.462   9.656   3.314
27524WAT     H182814   4.467   9.652   3.214
27524WAT     H282815   4.369   9.633   3.343
27525WAT      O82816   4.827   9.242   5.800
27525WAT     H182817   4.924   9.260   5.811
27525WAT     H282818   4.776   9.283   5.876
27526WAT      O82819   2.241   6.463   7.456
27526WAT     H182820   2.341   6.454   7.461
27526WAT     H282821   2.211   6.534   7.520
27527WAT      O82822   6.299   4.605   0.716
27527WAT     H182823   6.318   4.661   0.797
27527WAT     H282824   6.383   4.595   0.663
27528WAT      O82825   4.631   2.745   3.533
27528WAT     H182826   4.596   2.781   3.620
27528WAT     H282827   4.688   2.665   3.550
27529WAT      O82828   2.154   3.721   0.943
27529WAT     H182829   2.231   3.704   0.881
27529WAT     H282830   2.075   3.750   0.889
27530WAT      O82831   7.181   9.631   0.771
27530WAT     H182832   7.104   9.695   0.765
27530WAT     H282833   7.248   9.652   0.700
27531WAT      O82834   2.984   8.743   9.245
27531WAT     H182835   2.933   8.820   9.284
27531WAT     H282836   3.032   8.694   9.317
27532WAT      O82837   3.076   0.056   7.667
27532WAT     H182838   3.051   0.116   7.742
27532WAT     H282839   3.146  -0.009   7.698
27533WAT      O82840   7.683   1.772   6.838
27533WAT     H182841   7.620   1.848   6.819
27533WAT     H282842   7.633   1.686   6.838
27534WAT      O82843   9.199   3.976   0.712
27534WAT     H182844   9.211   4.039   0.789
27534WAT     H282845   9.103   3.976   0.683
27535WAT      O82846   5.375   2.343   3.050
27535WAT     H182847   5.348   2.247   3.051
27535WAT     H282848   5.399   2.369   2.956
27536WAT      O82849   5.463   1.663   0.761
27536WAT     H182850   5.387   1.694   0.704
27536WAT     H282851   5.440   1.677   0.857
27537WAT      O82852   4.921   0.083   1.056
27537WAT     H182853   4.935   0.017   0.983
27537WAT     H282854   4.903   0.173   1.016
27538WAT      O82855   3.359   7.843   5.620
27538WAT     H182856   3.390   7.768   5.677
27538WAT     H282857   3.305   7.907   5.674
27539WAT      O82858   1.667   6.634   1.233
27539WAT     H182859   1.762   6.626   1.202
27539WAT     H282860   1.664   6.641   1.333
27540WAT      O82861   7.461   6.865   2.584
27540WAT     H182862   7.446   6.914   2.499
27540WAT     H282863   7.514   6.922   2.647
27541WAT      O82864   5.291   8.342   7.206
27541WAT     H182865   5.340   8.427   7.188
27541WAT     H282866   5.195   8.352   7.180
27542WAT      O82867   7.708   2.169   6.423
27542WAT     H182868   7.803   2.142   6.409
27542WAT     H282869   7.649   2.090   6.407
27543WAT      O82870   4.395   2.377   7.773
27543WAT     H182871   4.438   2.311   7.711
27543WAT     H282872   4.307   2.342   7.803
27544WAT      O82873   3.746   0.598   8.781
27544WAT     H182874   3.699   0.573   8.697
27544WAT     H282875   3.679   0.616   8.853
27545WAT      O82876   3.869   8.770   5.812
27545WAT     H182877   3.828   8.795   5.900
27545WAT     H282878   3.865   8.671   5.801
27546WAT      O82879   7.402   8.075   5.265
27546WAT     H182880   7.397   8.171   5.236
27546WAT     H282881   7.490   8.037   5.237
27547WAT      O82882   5.607   4.946   1.355
27547WAT     H182883   5.633   4.957   1.451
27547WAT     H282884   5.687   4.920   1.302
27548WAT      O82885   8.195   1.896   9.773
27548WAT     H182886   8.184   1.986   9.815
27548WAT     H282887   8.109   1.867   9.731
27549WAT      O82888   4.857   4.889   8.035
27549WAT     H182889   4.880   4.792   8.044
27549WAT     H282890   4.897   4.925   7.951
27550WAT      O82891   5.720   3.391   7.028
27550WAT     H182892   5.654   3.330   7.072
27550WAT     H282893   5.727   3.368   6.931
27551WAT      O82894   1.866   4.078   1.781
27551WAT     H182895   1.855   4.036   1.871
27551WAT     H282896   1.946   4.039   1.736
27552WAT      O82897   0.151   2.865   0.935
27552WAT     H182898   0.095   2.786   0.910
27552WAT     H282899   0.203   2.845   1.018
27553WAT      O82900   8.351   0.021   1.177
27553WAT     H182901   8.268   0.041   1.125
27553WAT     H282902   8.413  -0.034   1.120
27554WAT      O82903   7.167   4.125   2.591
27554WAT     H182904   7.255   4.165   2.616
27554WAT     H282905   7.172   4.025   2.598
27555WAT      O82906   4.141   8.873   5.170
27555WAT     H182907   4.129   8.785   5.125
27555WAT     H282908   4.063   8.892   5.229
27556WAT      O82909   5.420   4.917   9.586
27556WAT     H182910   5.451   4.991   9.526
27556WAT     H282911   5.409   4.951   9.679
27557WAT      O82912   7.562   1.574   6.360
27557WAT     H182913   7.630   1.645   6.378
27557WAT     H282914   7.602   1.484   6.374
27558WAT      O82915   7.254   1.694   4.359
27558WAT     H182916   7.336   1.695   4.416
27558WAT     H282917   7.173   1.700   4.418
27559WAT      O82918   4.448   5.436   2.868
27559WAT     H182919   4.433   5.367   2.939
27559WAT     H282920   4.360   5.460   2.826
27560WAT      O82921   0.568   0.750   0.436
27560WAT     H182922   0.552   0.847   0.415
27560WAT     H282923   0.666   0.734   0.447
27561WAT      O82924   0.480   4.504   5.993
27561WAT     H182925   0.498   4.420   5.941
27561WAT     H282926   0.530   4.580   5.952
27562WAT      O82927   8.211   3.593   3.016
27562WAT     H182928   8.121   3.554   3.035
27562WAT     H282929   8.207   3.644   2.930
27563WAT      O82930   7.808   7.608   6.387
27563WAT     H182931   7.712   7.599   6.362
27563WAT     H282932   7.854   7.670   6.324
27564WAT      O82933   4.950   8.727   1.172
27564WAT     H182934   4.901   8.661   1.115
27564WAT     H282935   5.037   8.749   1.130
27565WAT      O82936   2.263   9.293   5.483
27565WAT     H182937   2.213   9.375   5.509
27565WAT     H282938   2.203   9.234   5.429
27566WAT      O82939   1.360   7.078   8.989
27566WAT     H182940   1.262   7.072   9.007
27566WAT     H282941   1.375   7.132   8.906
27567WAT      O82942   7.315   5.522   2.388
27567WAT     H182943   7.230   5.574   2.378
27567WAT     H282944   7.377   5.545   2.313
27568WAT      O82945   1.736   9.839   1.529
27568WAT     H182946   1.784   9.869   1.611
27568WAT     H282947   1.792   9.855   1.449
27569WAT      O82948   1.837   4.007   9.124
27569WAT     H182949   1.764   3.945   9.094
27569WAT     H282950   1.925   3.960   9.119
27570WAT      O82951   9.823   3.560   8.824
27570WAT     H182952   9.859   3.551   8.731
27570WAT     H282953   9.880   3.506   8.886
27571WAT      O82954   6.965   2.914   8.823
27571WAT     H182955   6.886   2.867   8.863
27571WAT     H282956   6.954   2.918   8.724
27572WAT      O82957   0.300   1.408   8.236
27572WAT     H182958   0.352   1.345   8.178
27572WAT     H282959   0.363   1.460   8.293
27573WAT      O82960   9.002   7.497   4.854
27573WAT     H182961   9.078   7.532   4.909
27573WAT     H282962   8.952   7.574   4.814
27574WAT      O82963   2.603   2.887   3.099
27574WAT     H182964   2.596   2.984   3.078
27574WAT     H282965   2.690   2.851   3.065
27575WAT      O82966   0.019   6.971   6.437
27575WAT     H182967  -0.032   7.025   6.370
27575WAT     H282968   0.092   6.920   6.390
27576WAT      O82969   7.530   1.051   7.737
27576WAT     H182970   7.615   1.104   7.741
27576WAT     H282971   7.551   0.954   7.749
27577WAT      O82972   1.007   3.215   2.172
27577WAT     H182973   0.908   3.210   2.179
27577WAT     H282974   1.047   3.132   2.211
27578WAT      O82975   8.598   7.549   6.113
27578WAT     H182976   8.504   7.582   6.102
27578WAT     H282977   8.656   7.623   6.148
27579WAT      O82978   6.097   8.641   6.964
27579WAT     H182979   6.069   8.735   6.947
27579WAT     H282980   6.192   8.640   6.997
27580WAT      O82981   6.755   4.603   5.270
27580WAT     H182982   6.767   4.666   5.194
27580WAT     H282983   6.818   4.628   5.344
27581WAT      O82984   0.462   0.384   4.160
27581WAT     H182985   0.440   0.331   4.078
27581WAT     H282986   0.549   0.353   4.198
27582WAT      O82987   5.080   7.398   0.140
27582WAT     H182988   5.127   7.333   0.079
27582WAT     H282989   5.023   7.459   0.085
27583WAT      O82990   9.111   6.240   9.571
27583WAT     H182991   9.057   6.160   9.545
27583WAT     H282992   9.115   6.247   9.670
27584WAT      O82993   0.480   3.274   8.977
27584WAT     H182994   0.527   3.277   9.065
27584WAT     H282995   0.401   3.213   8.983
27585WAT      O82996   4.394   1.643   2.156
27585WAT     H182997   4.299   1.614   2.169
27585WAT     H282998   4.435   1.664   2.244
27586WAT      O82999   1.648   9.594   0.457
27586WAT     H183000   1.655   9.677   0.513
27586WAT     H283001   1.733   9.542   0.463
27587WAT      O83002   5.722   7.657   2.559
27587WAT     H183003   5.781   7.680   2.482
27587WAT     H283004   5.690   7.741   2.603
27588WAT      O83005   4.161   4.961   1.256
27588WAT     H183006   4.202   4.901   1.325
27588WAT     H283007   4.218   5.042   1.243
27589WAT      O83008   2.084   4.756   2.082
27589WAT     H183009   2.043   4.718   1.999
27589WAT     H283010   2.153   4.693   2.116
27590WAT      O83011   1.366   7.077   9.482
27590WAT     H183012   1.401   7.165   9.451
27590WAT     H283013   1.442   7.019   9.512
27591WAT      O83014   3.907   1.175   6.322
27591WAT     H183015   3.908   1.177   6.422
27591WAT     H283016   3.840   1.241   6.288
27592WAT      O83017   7.405   1.205   2.882
27592WAT     H183018   7.392   1.196   2.980
27592WAT     H283019   7.503   1.198   2.861
27593WAT      O83020   4.601   3.844   6.282
27593WAT     H183021   4.584   3.906   6.358
27593WAT     H283022   4.680   3.876   6.230
27594WAT      O83023   5.679   0.779   4.862
27594WAT     H183024   5.660   0.773   4.764
27594WAT     H283025   5.649   0.695   4.907
27595WAT      O83026   6.601   0.598   7.221
27595WAT     H183027   6.505   0.570   7.220
27595WAT     H283028   6.659   0.517   7.225
27596WAT      O83029   0.449   9.239   9.016
27596WAT     H183030   0.407   9.287   9.093
27596WAT     H283031   0.429   9.142   9.023
27597WAT      O83032   9.023   9.491   2.826
27597WAT     H183033   9.036   9.462   2.731
27597WAT     H283034   8.949   9.558   2.831
27598WAT      O83035   4.729   4.159   1.663
27598WAT     H183036   4.802   4.097   1.688
27598WAT     H283037   4.672   4.179   1.743
27599WAT      O83038   1.906   6.531   7.712
27599WAT     H183039   1.874   6.607   7.769
27599WAT     H283040   1.934   6.455   7.772
27600WAT      O83041   8.154   7.369   6.167
27600WAT     H183042   8.205   7.283   6.163
27600WAT     H283043   8.212   7.443   6.132
27601WAT      O83044   6.362   0.081   0.351
27601WAT     H183045   6.323   0.004   0.402
27601WAT     H283046   6.301   0.161   0.360
27602WAT      O83047   7.530   0.760   2.196
27602WAT     H183048   7.431   0.772   2.194
27602WAT     H283049   7.553   0.663   2.186
27603WAT      O83050   0.712   2.437   6.816
27603WAT     H183051   0.726   2.467   6.910
27603WAT     H283052   0.681   2.342   6.816
27604WAT      O83053   1.348   0.455   5.642
27604WAT     H183054   1.326   0.459   5.544
27604WAT     H283055   1.374   0.546   5.674
27605WAT      O83056   0.427   3.025   8.756
27605WAT     H183057   0.497   2.968   8.797
27605WAT     H283058   0.447   3.037   8.659
27606WAT      O83059   2.384   9.794   2.089
27606WAT     H183060   2.427   9.872   2.043
27606WAT     H283061   2.404   9.799   2.187
27607WAT      O83062   7.844   5.670   1.302
27607WAT     H183063   7.886   5.640   1.216
27607WAT     H283064   7.822   5.767   1.297
27608WAT      O83065   4.325   2.411   2.311
27608WAT     H183066   4.278   2.495   2.340
27608WAT     H283067   4.415   2.407   2.353
27609WAT      O83068   7.450   9.805   1.874
27609WAT     H183069   7.430   9.902   1.857
27609WAT     H283070   7.543   9.798   1.913
27610WAT      O83071   4.311   2.051   2.897
27610WAT     H183072   4.360   2.124   2.849
27610WAT     H283073   4.320   1.966   2.846
27611WAT      O83074   3.067   4.661   4.512
27611WAT     H183075   3.158   4.704   4.515
27611WAT     H283076   3.075   4.566   4.540
27612WAT      O83077   0.693   8.729   3.353
27612WAT     H183078   0.748   8.652   3.322
27612WAT     H283079   0.597   8.703   3.355
27613WAT      O83080   8.100   8.929   9.845
27613WAT     H183081   8.125   8.832   9.837
27613WAT     H283082   8.042   8.942   9.925
27614WAT      O83083   9.502   2.701   9.759
27614WAT     H183084   9.472   2.795   9.742
27614WAT     H283085   9.481   2.644   9.680
27615WAT      O83086   7.720   6.066   3.501
27615WAT     H183087   7.683   6.106   3.417
27615WAT     H283088   7.657   6.082   3.577
27616WAT      O83089   3.663   7.685   1.169
27616WAT     H183090   3.583   7.685   1.229
27616WAT     H283091   3.741   7.722   1.219
27617WAT      O83092   7.197   0.930   4.433
27617WAT     H183093   7.198   0.904   4.530
27617WAT     H283094   7.218   1.027   4.425
27618WAT      O83095   3.348   0.922   7.478
27618WAT     H183096   3.373   1.015   7.453
27618WAT     H283097   3.259   0.900   7.437
27619WAT      O83098   5.282   5.282   4.615
27619WAT     H183099   5.256   5.360   4.672
27619WAT     H283100   5.357   5.307   4.555
27620WAT      O83101   4.603   4.854   5.531
27620WAT     H183102   4.651   4.910   5.463
27620WAT     H283103   4.511   4.834   5.497
27621WAT      O83104   1.820   7.758   1.141
27621WAT     H183105   1.825   7.744   1.042
27621WAT     H283106   1.871   7.686   1.188
27622WAT      O83107   1.615   4.695   6.314
27622WAT     H183108   1.672   4.737   6.243
27622WAT     H283109   1.523   4.683   6.278
27623WAT      O83110   0.792   8.341   6.749
27623WAT     H183111   0.736   8.425   6.750
27623WAT     H283112   0.861   8.348   6.677
27624WAT      O83113   8.457   1.239   0.545
27624WAT     H183114   8.404   1.262   0.463
27624WAT     H283115   8.462   1.139   0.554
27625WAT      O83116   5.531   7.847   6.298
27625WAT     H183117   5.495   7.806   6.382
27625WAT     H283118   5.480   7.813   6.220
27626WAT      O83119   7.170   6.357   5.601
27626WAT     H183120   7.112   6.374   5.681
27626WAT     H283121   7.175   6.440   5.546
27627WAT      O83122   0.932   4.102   2.373
27627WAT     H183123   0.949   4.197   2.349
27627WAT     H283124   0.857   4.097   2.440
27628WAT      O83125   1.812   2.693   7.949
27628WAT     H183126   1.834   2.709   8.045
27628WAT     H283127   1.734   2.750   7.922
27629WAT      O83128   4.107   4.670   5.522
27629WAT     H183129   4.118   4.609   5.444
27629WAT     H283130   4.011   4.675   5.548
27630WAT      O83131   7.973   8.027   4.936
27630WAT     H183132   8.052   8.083   4.961
27630WAT     H283133   7.946   8.048   4.842
27631WAT      O83134   3.857   6.723   4.423
27631WAT     H183135   3.778   6.740   4.481
27631WAT     H283136   3.891   6.630   4.440
27632WAT      O83137   5.698   2.161   2.984
27632WAT     H183138   5.761   2.095   3.025
27632WAT     H283139   5.663   2.222   3.055
27633WAT      O83140   5.000   2.992   1.735
27633WAT     H183141   5.094   2.974   1.708
27633WAT     H283142   4.944   3.005   1.653
27634WAT      O83143   6.883   9.670   7.828
27634WAT     H183144   6.880   9.581   7.783
27634WAT     H283145   6.919   9.738   7.764
27635WAT      O83146   5.395   9.155   9.494
27635WAT     H183147   5.343   9.081   9.536
27635WAT     H283148   5.478   9.172   9.547
27636WAT      O83149   1.255   5.224   1.440
27636WAT     H183150   1.290   5.190   1.527
27636WAT     H283151   1.322   5.208   1.368
27637WAT      O83152   0.243   5.723   1.093
27637WAT     H183153   0.279   5.634   1.122
27637WAT     H283154   0.319   5.788   1.087
27638WAT      O83155   3.042   3.205   6.995
27638WAT     H183156   2.999   3.159   6.917
27638WAT     H283157   3.139   3.217   6.978
27639WAT      O83158   2.749   2.026   7.736
27639WAT     H183159   2.730   2.009   7.639
27639WAT     H283160   2.700   1.958   7.792
27640WAT      O83161   2.784   9.159   6.705
27640WAT     H183162   2.705   9.099   6.691
27640WAT     H283163   2.841   9.123   6.778
27641WAT      O83164   1.057   7.023   1.989
27641WAT     H183165   1.051   6.955   1.916
27641WAT     H283166   0.968   7.030   2.035
27642WAT      O83167   2.626   4.353   2.535
27642WAT     H183168   2.687   4.381   2.609
27642WAT     H283169   2.648   4.259   2.508
27643WAT      O83170   3.689   6.735   3.420
27643WAT     H183171   3.637   6.792   3.357
27643WAT     H283172   3.720   6.789   3.498
27644WAT      O83173   7.989   7.947   2.769
27644WAT     H183174   8.012   7.965   2.673
27644WAT     H283175   8.073   7.947   2.824
27645WAT      O83176   5.345   6.066   9.061
27645WAT     H183177   5.359   6.011   8.979
27645WAT     H283178   5.323   6.006   9.138
27646WAT      O83179   3.780   8.098   8.231
27646WAT     H183180   3.811   8.150   8.311
27646WAT     H283181   3.859   8.076   8.174
27647WAT      O83182   3.245   5.729   5.331
27647WAT     H183183   3.300   5.721   5.249
27647WAT     H283184   3.153   5.693   5.313
27648WAT      O83185   7.418   1.005   5.375
27648WAT     H183186   7.420   0.954   5.289
27648WAT     H283187   7.479   0.960   5.441
27649WAT      O83188   1.353   3.213   6.963
27649WAT     H183189   1.329   3.304   6.997
27649WAT     H283190   1.287   3.185   6.893
27650WAT      O83191   0.742   0.305   7.618
27650WAT     H183192   0.681   0.307   7.539
27650WAT     H283193   0.710   0.237   7.684
27651WAT      O83194   9.593   9.696   9.558
27651WAT     H183195   9.581   9.597   9.571
27651WAT     H283196   9.683   9.714   9.518
27652WAT      O83197   7.514   6.999   5.284
27652WAT     H183198   7.556   7.006   5.193
27652WAT     H283199   7.456   7.078   5.301
27653WAT      O83200   0.753   0.775   7.476
27653WAT     H183201   0.718   0.863   7.444
27653WAT     H283202   0.769   0.715   7.398
27654WAT      O83203   1.567   1.346   0.713
27654WAT     H183204   1.549   1.400   0.795
27654WAT     H283205   1.637   1.391   0.658
27655WAT      O83206   6.477   5.278   9.033
27655WAT     H183207   6.555   5.217   9.022
27655WAT     H283208   6.477   5.314   9.127
27656WAT      O83209   7.834   2.176   6.767
27656WAT     H183210   7.798   2.263   6.801
27656WAT     H283211   7.850   2.114   6.844
27657WAT      O83212   1.045   8.317   3.977
27657WAT     H183213   1.126   8.376   3.970
27657WAT     H283214   1.069   8.233   4.026
27658WAT      O83215   5.276   3.919   1.309
27658WAT     H183216   5.354   3.980   1.322
27658WAT     H283217   5.193   3.964   1.342
27659WAT      O83218   7.341   7.392   5.567
27659WAT     H183219   7.363   7.327   5.640
27659WAT     H283220   7.243   7.412   5.570
27660WAT      O83221   6.233   7.086   0.671
27660WAT     H183222   6.138   7.117   0.674
27660WAT     H283223   6.258   7.048   0.760
27661WAT      O83224   6.205   1.643   8.232
27661WAT     H183225   6.242   1.664   8.322
27661WAT     H283226   6.207   1.725   8.175
27662WAT      O83227   7.954   3.561   0.378
27662WAT     H183228   7.866   3.551   0.333
27662WAT     H283229   7.947   3.532   0.473
27663WAT      O83230   1.442   1.738   7.149
27663WAT     H183231   1.503   1.663   7.175
27663WAT     H283232   1.493   1.824   7.150
27664WAT      O83233   5.185   7.249   2.846
27664WAT     H183234   5.263   7.303   2.815
27664WAT     H283235   5.100   7.290   2.813
27665WAT      O83236   5.207   8.653   6.117
27665WAT     H183237   5.196   8.696   6.207
27665WAT     H283238   5.156   8.706   6.049
27666WAT      O83239   0.007   4.997   2.268
27666WAT     H183240   0.083   5.055   2.237
27666WAT     H283241   0.040   4.931   2.335
27667WAT      O83242   9.839   5.768   1.448
27667WAT     H183243   9.784   5.848   1.472
27667WAT     H283244   9.867   5.721   1.531
27668WAT      O83245   2.734   3.386   8.318
27668WAT     H183246   2.760   3.419   8.408
27668WAT     H283247   2.759   3.290   8.308
27669WAT      O83248   5.358   0.727   0.393
27669WAT     H183249   5.288   0.798   0.396
27669WAT     H283250   5.399   0.716   0.484
27670WAT      O83251   4.992   2.927   8.384
27670WAT     H183252   5.017   2.945   8.289
27670WAT     H283253   5.045   2.850   8.418
27671WAT      O83254   2.925   3.107   6.768
27671WAT     H183255   2.835   3.138   6.797
27671WAT     H283256   2.965   3.173   6.705
27672WAT      O83257   8.432   3.778   8.045
27672WAT     H183258   8.529   3.771   8.066
27672WAT     H283259   8.402   3.693   8.001
27673WAT      O83260   6.365   8.140   4.914
27673WAT     H183261   6.276   8.181   4.894
27673WAT     H283262   6.415   8.126   4.828
27674WAT      O83263   6.194   7.745   1.583
27674WAT     H183264   6.243   7.668   1.543
27674WAT     H283265   6.243   7.830   1.562
27675WAT      O83266   1.652   4.855   3.132
27675WAT     H183267   1.609   4.820   3.215
27675WAT     H283268   1.731   4.911   3.156
27676WAT      O83269   9.334   0.995   8.309
27676WAT     H183270   9.292   1.022   8.222
27676WAT     H283271   9.432   0.979   8.294
27677WAT      O83272   0.652   0.934   5.903
27677WAT     H183273   0.613   0.843   5.922
27677WAT     H283274   0.578   0.998   5.881
27678WAT      O83275   5.974   5.218   7.295
27678WAT     H183276   5.884   5.258   7.280
27678WAT     H283277   6.011   5.186   7.208
27679WAT      O83278   7.553   2.701   0.943
27679WAT     H183279   7.592   2.793   0.940
27679WAT     H283280   7.607   2.645   1.007
27680WAT      O83281   4.314   4.646   2.733
27680WAT     H183282   4.391   4.583   2.743
27680WAT     H283283   4.285   4.648   2.637
27681WAT      O83284   8.635   0.575   0.107
27681WAT     H183285   8.544   0.578   0.066
27681WAT     H283286   8.703   0.597   0.038
27682WAT      O83287   8.284   7.231   9.375
27682WAT     H183288   8.376   7.235   9.339
27682WAT     H283289   8.284   7.260   9.471
27683WAT      O83290   7.009   5.763   5.594
27683WAT     H183291   6.958   5.678   5.583
27683WAT     H283292   7.094   5.758   5.543
27684WAT      O83293   7.099   7.779   4.246
27684WAT     H183294   7.154   7.766   4.163
27684WAT     H283295   7.037   7.701   4.258
27685WAT      O83296   3.954   0.355   8.861
27685WAT     H183297   3.916   0.265   8.841
27685WAT     H283298   3.881   0.423   8.864
27686WAT      O83299   6.676   8.051   3.646
27686WAT     H183300   6.594   8.021   3.598
27686WAT     H283301   6.753   7.995   3.618
27687WAT      O83302   5.134   9.416   4.991
27687WAT     H183303   5.039   9.389   5.004
27687WAT     H283304   5.190   9.376   5.064
27688WAT      O83305   4.264   4.676   2.236
27688WAT     H183306   4.198   4.728   2.180
27688WAT     H283307   4.352   4.724   2.236
27689WAT      O83308   3.934   8.162   0.487
27689WAT     H183309   3.907   8.174   0.583
27689WAT     H283310   3.858   8.190   0.428
27690WAT      O83311   7.903   3.217   5.408
27690WAT     H183312   8.002   3.230   5.414
27690WAT     H283313   7.876   3.142   5.469
27691WAT      O83314   6.947   2.061   8.313
27691WAT     H183315   7.022   2.088   8.253
27691WAT     H283316   6.976   2.067   8.408
27692WAT      O83317   9.327   1.043   1.158
27692WAT     H183318   9.264   1.068   1.084
27692WAT     H283319   9.373   0.957   1.135
27693WAT      O83320   1.655   2.125   4.349
27693WAT     H183321   1.684   2.061   4.278
27693WAT     H283322   1.708   2.210   4.340
27694WAT      O83323   3.154   9.245   2.921
27694WAT     H183324   3.092   9.323   2.930
27694WAT     H283325   3.160   9.219   2.824
27695WAT      O83326   6.151   7.031   7.288
27695WAT     H183327   6.081   7.019   7.217
27695WAT     H283328   6.130   6.971   7.365
27696WAT      O83329   6.155   3.879   2.705
27696WAT     H183330   6.194   3.967   2.735
27696WAT     H283331   6.128   3.826   2.786
27697WAT      O83332   1.473   1.023   0.596
27697WAT     H183333   1.385   1.032   0.643
27697WAT     H283334   1.543   1.073   0.646
27698WAT      O83335   1.055   9.542   1.241
27698WAT     H183336   1.110   9.549   1.324
27698WAT     H283337   1.053   9.448   1.209
27699WAT      O83338   4.781   0.861   9.590
27699WAT     H183339   4.822   0.819   9.510
27699WAT     H283340   4.835   0.838   9.671
27700WAT      O83341   3.402   2.316   2.008
27700WAT     H183342   3.354   2.284   2.090
27700WAT     H283343   3.398   2.416   2.004
27701WAT      O83344   2.421   8.559   2.207
27701WAT     H183345   2.340   8.612   2.232
27701WAT     H283346   2.406   8.463   2.232
27702WAT      O83347   7.096   0.372   7.944
27702WAT     H183348   7.098   0.367   7.845
27702WAT     H283349   7.159   0.304   7.982
27703WAT      O83350   7.293   0.786   9.365
27703WAT     H183351   7.211   0.815   9.414
27703WAT     H283352   7.298   0.834   9.277
27704WAT      O83353   0.222   2.564   8.999
27704WAT     H183354   0.303   2.600   8.954
27704WAT     H283355   0.174   2.502   8.937
27705WAT      O83356   6.865   1.690   6.990
27705WAT     H183357   6.838   1.752   7.064
27705WAT     H283358   6.850   1.596   7.019
27706WAT      O83359   3.209   9.444   6.842
27706WAT     H183360   3.168   9.452   6.751
27706WAT     H283361   3.144   9.400   6.904
27707WAT      O83362   6.339   6.911   3.964
27707WAT     H183363   6.321   6.855   3.883
27707WAT     H283364   6.253   6.946   4.000
27708WAT      O83365   0.247   6.873   2.010
27708WAT     H183366   0.294   6.904   1.928
27708WAT     H283367   0.310   6.877   2.088
27709WAT      O83368   8.752   4.302   7.706
27709WAT     H183369   8.737   4.363   7.628
27709WAT     H283370   8.830   4.242   7.686
27710WAT      O83371   7.212   0.184   1.627
27710WAT     H183372   7.278   0.110   1.618
27710WAT     H283373   7.128   0.148   1.668
27711WAT      O83374   5.414   9.247   7.493
27711WAT     H183375   5.480   9.193   7.442
27711WAT     H283376   5.332   9.260   7.437
27712WAT      O83377   0.882   2.793   4.594
27712WAT     H183378   0.950   2.749   4.536
27712WAT     H283379   0.862   2.884   4.557
27713WAT      O83380   0.933   1.044   5.019
27713WAT     H183381   0.907   0.963   4.967
27713WAT     H283382   0.851   1.084   5.061
27714WAT      O83383   6.720   5.627   4.603
27714WAT     H183384   6.735   5.530   4.621
27714WAT     H283385   6.696   5.639   4.507
27715WAT      O83386   3.655   5.179   3.934
27715WAT     H183387   3.555   5.185   3.928
27715WAT     H283388   3.695   5.268   3.911
27716WAT      O83389   0.518   8.265   4.180
27716WAT     H183390   0.425   8.288   4.209
27716WAT     H283391   0.564   8.347   4.147
27717WAT      O83392   0.031   3.189   6.477
27717WAT     H183393  -0.034   3.178   6.402
27717WAT     H283394   0.002   3.265   6.535
27718WAT      O83395   5.219   3.047   9.563
27718WAT     H183396   5.187   3.028   9.470
27718WAT     H283397   5.228   2.961   9.613
27719WAT      O83398   5.278   9.610   4.461
27719WAT     H183399   5.260   9.538   4.528
27719WAT     H283400   5.195   9.630   4.410
27720WAT      O83401   2.073   7.108   6.813
27720WAT     H183402   2.144   7.178   6.813
27720WAT     H283403   2.031   7.102   6.722
27721WAT      O83404   1.157   3.647   4.540
27721WAT     H183405   1.193   3.719   4.482
27721WAT     H283406   1.159   3.560   4.490
27722WAT      O83407   4.528   0.480   7.914
27722WAT     H183408   4.459   0.547   7.889
27722WAT     H283409   4.561   0.434   7.831
27723WAT      O83410   7.586   1.252   3.293
27723WAT     H183411   7.673   1.296   3.269
27723WAT     H283412   7.584   1.234   3.391
27724WAT      O83413   2.933   7.582   3.255
27724WAT     H183414   3.024   7.622   3.243
27724WAT     H283415   2.932   7.526   3.338
27725WAT      O83416   2.099   3.990   5.237
27725WAT     H183417   2.122   3.985   5.334
27725WAT     H283418   2.109   3.899   5.195
27726WAT      O83419   6.348   5.315   8.587
27726WAT     H183420   6.277   5.247   8.604
27726WAT     H283421   6.370   5.362   8.673
27727WAT      O83422   3.570   6.359   8.205
27727WAT     H183423   3.571   6.287   8.275
27727WAT     H283424   3.654   6.354   8.152
27728WAT      O83425   7.356   5.556   8.796
27728WAT     H183426   7.394   5.549   8.888
27728WAT     H283427   7.423   5.599   8.735
27729WAT      O83428   4.829   2.694   0.358
27729WAT     H183429   4.862   2.700   0.452
27729WAT     H283430   4.811   2.599   0.334
27730WAT      O83431   9.252   2.431   3.443
27730WAT     H183432   9.178   2.407   3.505
27730WAT     H283433   9.221   2.504   3.381
27731WAT      O83434   1.503   1.661   8.980
27731WAT     H183435   1.526   1.683   8.885
27731WAT     H283436   1.414   1.702   9.002
27732WAT      O83437   7.583   7.726   0.056
27732WAT     H183438   7.641   7.667   0.001
27732WAT     H283439   7.582   7.694   0.150
27733WAT      O83440   2.587   6.238   9.094
27733WAT     H183441   2.664   6.175   9.080
27733WAT     H283442   2.596   6.283   9.182
27734WAT      O83443   9.626   0.494   7.554
27734WAT     H183444   9.551   0.544   7.510
27734WAT     H283445   9.594   0.404   7.583
27735WAT      O83446   7.968   5.858   3.422
27735WAT     H183447   8.029   5.884   3.496
27735WAT     H283448   7.880   5.828   3.460
27736WAT      O83449   1.271   1.935   1.152
27736WAT     H183450   1.257   1.933   1.053
27736WAT     H283451   1.261   2.029   1.185
27737WAT      O83452   2.324   2.348   3.498
27737WAT     H183453   2.241   2.304   3.531
27737WAT     H283454   2.355   2.417   3.565
27738WAT      O83455   3.962   1.971   7.419
27738WAT     H183456   3.900   1.914   7.365
27738WAT     H283457   4.053   1.970   7.378
27739WAT      O83458   5.276   1.958   7.250
27739WAT     H183459   5.363   1.917   7.223
27739WAT     H283460   5.250   2.028   7.184
27740WAT      O83461   4.335   8.357   8.539
27740WAT     H183462   4.354   8.423   8.466
27740WAT     H283463   4.311   8.269   8.499
27741WAT      O83464   5.197   8.555   0.857
27741WAT     H183465   5.170   8.629   0.796
27741WAT     H283466   5.184   8.584   0.952
27742WAT      O83467   2.709   0.404   1.103
27742WAT     H183468   2.710   0.504   1.115
27742WAT     H283469   2.798   0.374   1.067
27743WAT      O83470   5.444   7.187   7.477
27743WAT     H183471   5.418   7.154   7.387
27743WAT     H283472   5.362   7.203   7.532
27744WAT      O83473   3.223   6.011   3.908
27744WAT     H183474   3.180   5.924   3.885
27744WAT     H283475   3.322   6.002   3.903
27745WAT      O83476   8.947   5.808   0.919
27745WAT     H183477   9.013   5.845   0.855
27745WAT     H283478   8.894   5.882   0.960
27746WAT      O83479   8.907   7.617   3.753
27746WAT     H183480   8.847   7.539   3.770
27746WAT     H283481   8.996   7.601   3.796
27747WAT      O83482   6.207   8.522   8.348
27747WAT     H183483   6.301   8.489   8.345
27747WAT     H283484   6.170   8.510   8.440
27748WAT      O83485   9.473   1.308   6.153
27748WAT     H183486   9.407   1.299   6.078
27748WAT     H283487   9.561   1.336   6.117
27749WAT      O83488   2.421   2.286   2.832
27749WAT     H183489   2.513   2.320   2.855
27749WAT     H283490   2.411   2.282   2.733
27750WAT      O83491   2.591   3.353   4.356
27750WAT     H183492   2.675   3.339   4.304
27750WAT     H283493   2.612   3.400   4.442
27751WAT      O83494   2.162   3.155   3.533
27751WAT     H183495   2.127   3.137   3.624
27751WAT     H283496   2.115   3.235   3.494
27752WAT      O83497   4.339   1.981   1.158
27752WAT     H183498   4.265   1.978   1.225
27752WAT     H283499   4.400   2.058   1.178
27753WAT      O83500   1.694   1.129   0.846
27753WAT     H183501   1.793   1.128   0.860
27753WAT     H283502   1.667   1.217   0.809
27754WAT      O83503   9.157   5.571   7.375
27754WAT     H183504   9.065   5.532   7.380
27754WAT     H283505   9.151   5.670   7.386
27755WAT      O83506   6.775   1.825   7.242
27755WAT     H183507   6.758   1.788   7.333
27755WAT     H283508   6.857   1.883   7.244
27756WAT      O83509   0.573   1.776   3.541
27756WAT     H183510   0.654   1.827   3.512
27756WAT     H283511   0.492   1.832   3.529
27757WAT      O83512   1.317   1.160   1.267
27757WAT     H183513   1.408   1.147   1.306
27757WAT     H283514   1.325   1.172   1.168
27758WAT      O83515   0.079   8.113   7.108
27758WAT     H183516   0.178   8.103   7.096
27758WAT     H283517   0.037   8.131   7.019
27759WAT      O83518   6.911   7.157   5.584
27759WAT     H183519   6.856   7.178   5.504
27759WAT     H283520   6.859   7.179   5.667
27760WAT      O83521   5.230   4.087   3.297
27760WAT     H183522   5.139   4.128   3.285
27760WAT     H283523   5.268   4.116   3.384
27761WAT      O83524   5.233   8.560   1.470
27761WAT     H183525   5.276   8.536   1.383
27761WAT     H283526   5.298   8.611   1.526
27762WAT      O83527   3.144   6.780   2.276
27762WAT     H183528   3.197   6.794   2.193
27762WAT     H283529   3.059   6.833   2.271
27763WAT      O83530   5.787   4.491   4.976
27763WAT     H183531   5.692   4.465   4.994
27763WAT     H283532   5.813   4.459   4.885
27764WAT      O83533   9.017   7.041   5.996
27764WAT     H183534   9.066   7.125   6.021
27764WAT     H283535   9.021   7.028   5.897
27765WAT      O83536   7.370   5.197   5.491
27765WAT     H183537   7.346   5.123   5.429
27765WAT     H283538   7.317   5.190   5.575
27766WAT      O83539   5.250   1.072   7.687
27766WAT     H183540   5.236   0.981   7.726
27766WAT     H283541   5.190   1.083   7.608
27767WAT      O83542   8.144   8.822   9.400
27767WAT     H183543   8.215   8.799   9.466
27767WAT     H283544   8.092   8.901   9.434
27768WAT      O83545   7.602   0.958   0.603
27768WAT     H183546   7.542   0.926   0.677
27768WAT     H283547   7.565   1.044   0.566
27769WAT      O83548   0.690   3.452   0.403
27769WAT     H183549   0.765   3.408   0.452
27769WAT     H283550   0.728   3.521   0.340
27770WAT      O83551   2.725   1.763   4.086
27770WAT     H183552   2.657   1.757   4.012
27770WAT     H283553   2.763   1.855   4.090
27771WAT      O83554   1.290   7.713   3.416
27771WAT     H183555   1.322   7.628   3.374
27771WAT     H283556   1.202   7.698   3.460
27772WAT      O83557   3.485   2.320   4.017
27772WAT     H183558   3.489   2.254   4.092
27772WAT     H283559   3.419   2.392   4.039
27773WAT      O83560   7.495   2.447   9.226
27773WAT     H183561   7.429   2.374   9.243
27773WAT     H283562   7.558   2.453   9.303
27774WAT      O83563   5.882   7.361   6.539
27774WAT     H183564   5.927   7.445   6.509
27774WAT     H283565   5.788   7.358   6.504
27775WAT      O83566   6.439   0.451   4.605
27775WAT     H183567   6.489   0.523   4.655
27775WAT     H283568   6.505   0.386   4.567
27776WAT      O83569   4.176   2.354   8.852
27776WAT     H183570   4.114   2.417   8.807
27776WAT     H283571   4.229   2.403   8.922
27777WAT      O83572   5.851   7.447   4.239
27777WAT     H183573   5.871   7.349   4.244
27777WAT     H283574   5.852   7.485   4.331
27778WAT      O83575   1.147   7.315   0.095
27778WAT     H183576   1.139   7.226   0.140
27778WAT     H283577   1.073   7.374   0.126
27779WAT      O83578   4.912   6.365   0.012
27779WAT     H183579   4.871   6.367   0.104
27779WAT     H283580   4.999   6.414   0.013
27780WAT      O83581   2.758   6.346   8.498
27780WAT     H183582   2.688   6.322   8.564
27780WAT     H283583   2.823   6.270   8.488
27781WAT      O83584   1.988   7.902   2.946
27781WAT     H183585   2.032   7.839   3.009
27781WAT     H283586   2.022   7.887   2.853
27782WAT      O83587   8.177   4.563   4.678
27782WAT     H183588   8.120   4.644   4.674
27782WAT     H283589   8.269   4.585   4.647
27783WAT      O83590   7.732   1.818   3.711
27783WAT     H183591   7.649   1.867   3.738
27783WAT     H283592   7.769   1.769   3.790
27784WAT      O83593   1.447   5.096   3.195
27784WAT     H183594   1.482   5.029   3.260
27784WAT     H283595   1.425   5.181   3.243
27785WAT      O83596   4.190   2.457   0.536
27785WAT     H183597   4.101   2.460   0.491
27785WAT     H283598   4.246   2.386   0.493
27786WAT      O83599   5.021   1.628   5.364
27786WAT     H183600   4.934   1.635   5.315
27786WAT     H283601   5.018   1.685   5.446
27787WAT      O83602   2.030   5.130   7.102
27787WAT     H183603   1.980   5.173   7.177
27787WAT     H283604   2.121   5.104   7.134
27788WAT      O83605   6.311   2.287   0.856
27788WAT     H183606   6.236   2.223   0.872
27788WAT     H283607   6.290   2.343   0.775
27789WAT      O83608   3.509   1.589   2.280
27789WAT     H183609   3.588   1.645   2.304
27789WAT     H283610   3.504   1.579   2.180
27790WAT      O83611   9.482   5.947   1.207
27790WAT     H183612   9.442   6.037   1.223
27790WAT     H283613   9.483   5.895   1.293
27791WAT      O83614   0.830   7.651   9.044
27791WAT     H183615   0.801   7.648   8.948
27791WAT     H283616   0.755   7.620   9.102
27792WAT      O83617   1.563   1.702   2.673
27792WAT     H183618   1.556   1.663   2.581
27792WAT     H283619   1.575   1.801   2.667
27793WAT      O83620   7.841   0.779   2.481
27793WAT     H183621   7.939   0.794   2.492
27793WAT     H283622   7.806   0.731   2.562
27794WAT      O83623   4.573   9.701   8.234
27794WAT     H183624   4.539   9.648   8.156
27794WAT     H283625   4.658   9.660   8.267
27795WAT      O83626   7.766   7.547   4.770
27795WAT     H183627   7.669   7.564   4.756
27795WAT     H283628   7.800   7.605   4.844
27796WAT      O83629   7.481   9.789   4.780
27796WAT     H183630   7.502   9.836   4.866
27796WAT     H283631   7.455   9.856   4.711
27797WAT      O83632   6.583   8.687   7.231
27797WAT     H183633   6.568   8.640   7.318
27797WAT     H283634   6.679   8.713   7.222
27798WAT      O83635   4.456   4.010   6.003
27798WAT     H183636   4.526   3.987   5.935
27798WAT     H283637   4.414   3.926   6.036
27799WAT      O83638   2.708   2.746   0.193
27799WAT     H183639   2.738   2.839   0.170
27799WAT     H283640   2.631   2.720   0.134
27800WAT      O83641   9.359   2.778   4.000
27800WAT     H183642   9.355   2.679   3.992
27800WAT     H283643   9.349   2.804   4.096
27801WAT      O83644   9.702   5.011   2.715
27801WAT     H183645   9.749   4.924   2.712
27801WAT     H283646   9.722   5.063   2.632
27802WAT      O83647   3.984   7.368   8.157
27802WAT     H183648   3.960   7.310   8.079
27802WAT     H283649   4.079   7.353   8.182
27803WAT      O83650   7.657   0.793   1.932
27803WAT     H183651   7.616   0.771   2.021
27803WAT     H283652   7.733   0.856   1.945
27804WAT      O83653   2.171   3.761   7.595
27804WAT     H183654   2.114   3.822   7.649
27804WAT     H283655   2.256   3.743   7.644
27805WAT      O83656   5.479   0.907   2.022
27805WAT     H183657   5.513   0.901   1.928
27805WAT     H283658   5.530   0.843   2.080
27806WAT      O83659   5.346   0.130   0.008
27806WAT     H183660   5.362   0.033   0.027
27806WAT     H283661   5.419   0.165  -0.051
27807WAT      O83662   6.886   0.929   5.675
27807WAT     H183663   6.862   0.854   5.613
27807WAT     H283664   6.924   1.005   5.622
27808WAT      O83665   4.395   8.207   2.026
27808WAT     H183666   4.444   8.236   2.108
27808WAT     H283667   4.452   8.144   1.973
27809WAT      O83668   5.401   6.278   6.212
27809WAT     H183669   5.478   6.268   6.149
27809WAT     H283670   5.392   6.194   6.266
27810WAT      O83671   3.766   8.187   1.310
27810WAT     H183672   3.722   8.270   1.344
27810WAT     H283673   3.861   8.206   1.286
27811WAT      O83674   5.998   5.245   8.420
27811WAT     H183675   5.917   5.303   8.429
27811WAT     H283676   6.037   5.228   8.511
27812WAT      O83677   6.121   8.648   5.774
27812WAT     H183678   6.065   8.596   5.840
27812WAT     H283679   6.077   8.735   5.754
27813WAT      O83680   3.404   4.802   3.681
27813WAT     H183681   3.331   4.827   3.745
27813WAT     H283682   3.493   4.828   3.720
27814WAT      O83683   9.507   9.626   1.642
27814WAT     H183684   9.455   9.707   1.614
27814WAT     H283685   9.590   9.620   1.587
27815WAT      O83686   2.969   8.043   7.363
27815WAT     H183687   3.022   8.047   7.448
27815WAT     H283688   3.031   8.047   7.285
27816WAT      O83689   4.235   3.640   4.590
27816WAT     H183690   4.247   3.563   4.528
27816WAT     H283691   4.243   3.608   4.684
27817WAT      O83692   6.427   9.129   4.814
27817WAT     H183693   6.335   9.148   4.846
27817WAT     H283694   6.461   9.045   4.857
27818WAT      O83695   4.133   5.566   2.043
27818WAT     H183696   4.147   5.596   1.949
27818WAT     H283697   4.204   5.500   2.068
27819WAT      O83698   3.208   0.662   9.636
27819WAT     H183699   3.138   0.611   9.687
27819WAT     H283700   3.170   0.693   9.549
27820WAT      O83701   8.639   5.841   2.239
27820WAT     H183702   8.689   5.925   2.217
27820WAT     H283703   8.556   5.864   2.290
27821WAT      O83704   7.617   4.945   2.994
27821WAT     H183705   7.537   4.892   2.967
27821WAT     H283706   7.622   4.949   3.094
27822WAT      O83707   4.496   8.216   3.568
27822WAT     H183708   4.454   8.251   3.651
27822WAT     H283709   4.551   8.135   3.589
27823WAT      O83710   3.747   3.262   9.121
27823WAT     H183711   3.821   3.200   9.149
27823WAT     H283712   3.780   3.320   9.047
27824WAT      O83713   1.767   0.596   8.424
27824WAT     H183714   1.715   0.681   8.429
27824WAT     H283715   1.704   0.520   8.406
27825WAT      O83716   1.546   7.009   9.166
27825WAT     H183717   1.486   6.961   9.229
27825WAT     H283718   1.492   7.051   9.093
27826WAT      O83719   6.850   5.111   4.863
27826WAT     H183720   6.947   5.135   4.873
27826WAT     H283721   6.794   5.192   4.879
27827WAT      O83722   3.728   5.608   7.619
27827WAT     H183723   3.667   5.638   7.545
27827WAT     H283724   3.690   5.636   7.707
27828WAT      O83725   6.841   2.899   5.218
27828WAT     H183726   6.913   2.840   5.181
27828WAT     H283727   6.795   2.945   5.142
27829WAT      O83728   3.261   1.298   6.409
27829WAT     H183729   3.310   1.367   6.356
27829WAT     H283730   3.186   1.342   6.459
27830WAT      O83731   0.780   6.761   5.780
27830WAT     H183732   0.776   6.708   5.695
27830WAT     H283733   0.748   6.854   5.763
27831WAT      O83734   0.582   2.355   1.233
27831WAT     H183735   0.501   2.346   1.175
27831WAT     H283736   0.594   2.450   1.260
27832WAT      O83737   0.466   5.170   2.806
27832WAT     H183738   0.405   5.202   2.733
27832WAT     H283739   0.416   5.170   2.893
27833WAT      O83740   1.226   0.488   1.298
27833WAT     H183741   1.259   0.549   1.369
27833WAT     H283742   1.136   0.519   1.267
27834WAT      O83743   1.882   7.879   5.226
27834WAT     H183744   1.804   7.842   5.277
27834WAT     H283745   1.904   7.819   5.149
27835WAT      O83746   4.234   4.358   3.892
27835WAT     H183747   4.251   4.454   3.870
27835WAT     H283748   4.148   4.329   3.850
27836WAT      O83749   1.085   6.783   2.494
27836WAT     H183750   1.123   6.784   2.587
27836WAT     H283751   1.032   6.867   2.479
27837WAT      O83752   3.375   4.165   8.566
27837WAT     H183753   3.388   4.202   8.474
27837WAT     H283754   3.278   4.145   8.580
27838WAT      O83755   4.103   5.269   8.272
27838WAT     H183756   4.197   5.277   8.238
27838WAT     H283757   4.086   5.342   8.339
27839WAT      O83758   1.834   8.189   1.042
27839WAT     H183759   1.827   8.112   0.977
27839WAT     H283760   1.928   8.198   1.074
27840WAT      O83761   8.530   8.458   8.063
27840WAT     H183762   8.526   8.417   8.154
27840WAT     H283763   8.547   8.556   8.072
27841WAT      O83764   5.401   6.225   0.335
27841WAT     H183765   5.349   6.158   0.283
27841WAT     H283766   5.350   6.312   0.338
27842WAT      O83767   3.746   0.283   0.247
27842WAT     H183768   3.661   0.332   0.266
27842WAT     H283769   3.822   0.332   0.289
27843WAT      O83770   2.403   7.962   1.092
27843WAT     H183771   2.436   7.934   1.002
27843WAT     H283772   2.422   8.060   1.105
27844WAT      O83773   6.192   0.418   1.770
27844WAT     H183774   6.249   0.431   1.688
27844WAT     H283775   6.177   0.321   1.785
27845WAT      O83776   8.770   2.709   5.129
27845WAT     H183777   8.784   2.611   5.116
27845WAT     H283778   8.845   2.759   5.086
27846WAT      O83779   5.293   1.747   4.602
27846WAT     H183780   5.356   1.783   4.533
27846WAT     H283781   5.204   1.732   4.560
27847WAT      O83782   5.082   2.464   7.484
27847WAT     H183783   5.058   2.368   7.497
27847WAT     H283784   5.158   2.472   7.421
27848WAT      O83785   1.352   4.703   6.261
27848WAT     H183786   1.262   4.693   6.220
27848WAT     H283787   1.347   4.681   6.359
27849WAT      O83788   2.737   9.199   9.699
27849WAT     H183789   2.695   9.274   9.647
27849WAT     H283790   2.700   9.198   9.791
27850WAT      O83791   2.713   7.520   5.376
27850WAT     H183792   2.771   7.441   5.356
27850WAT     H283793   2.766   7.604   5.363
27851WAT      O83794   2.087   1.725   8.591
27851WAT     H183795   2.136   1.669   8.524
27851WAT     H283796   2.149   1.750   8.665
27852WAT      O83797   9.687   2.220   5.550
27852WAT     H183798   9.642   2.238   5.638
27852WAT     H283799   9.646   2.277   5.479
27853WAT      O83800   5.589   2.959   1.466
27853WAT     H183801   5.576   3.047   1.513
27853WAT     H283802   5.609   2.888   1.534
27854WAT      O83803   5.459   7.995   8.942
27854WAT     H183804   5.412   7.991   9.030
27854WAT     H283805   5.415   7.933   8.878
27855WAT      O83806   9.800   3.780   3.754
27855WAT     H183807   9.830   3.793   3.660
27855WAT     H283808   9.865   3.722   3.803
27856WAT      O83809   6.745   3.975   9.178
27856WAT     H183810   6.737   4.052   9.116
27856WAT     H283811   6.669   3.976   9.243
27857WAT      O83812   9.502   8.673   8.553
27857WAT     H183813   9.423   8.613   8.563
27857WAT     H283814   9.557   8.671   8.637
27858WAT      O83815   5.410   2.902   3.456
27858WAT     H183816   5.364   2.954   3.384
27858WAT     H283817   5.506   2.890   3.433
27859WAT      O83818   9.160   1.015   2.666
27859WAT     H183819   9.163   0.916   2.648
27859WAT     H283820   9.241   1.042   2.717
27860WAT      O83821   2.123   0.945   0.720
27860WAT     H183822   2.140   0.860   0.671
27860WAT     H283823   2.203   0.969   0.775
27861WAT      O83824   4.396   0.818   1.400
27861WAT     H183825   4.399   0.899   1.342
27861WAT     H283826   4.304   0.807   1.437
27862WAT      O83827   8.303   7.690   2.599
27862WAT     H183828   8.386   7.714   2.647
27862WAT     H283829   8.309   7.722   2.504
27863WAT      O83830   1.438   7.062   2.809
27863WAT     H183831   1.430   7.089   2.905
27863WAT     H283832   1.531   7.033   2.789
27864WAT      O83833   6.618   4.013   8.578
27864WAT     H183834   6.543   3.967   8.529
27864WAT     H283835   6.676   3.944   8.622
27865WAT      O83836   9.327   7.535   6.928
27865WAT     H183837   9.232   7.508   6.941
27865WAT     H283838   9.386   7.453   6.932
27866WAT      O83839   2.431   2.717   0.719
27866WAT     H183840   2.345   2.751   0.680
27866WAT     H283841   2.482   2.793   0.759
27867WAT      O83842   8.542   4.469   9.201
27867WAT     H183843   8.529   4.375   9.230
27867WAT     H283844   8.591   4.520   9.272
27868WAT      O83845   8.741   0.004   1.224
27868WAT     H183846   8.824  -0.028   1.270
27868WAT     H283847   8.741   0.104   1.223
27869WAT      O83848   1.152   4.428   6.811
27869WAT     H183849   1.224   4.422   6.741
27869WAT     H283850   1.182   4.379   6.893
27870WAT      O83851   4.588   9.425   0.584
27870WAT     H183852   4.544   9.336   0.587
27870WAT     H283853   4.540   9.484   0.518
27871WAT      O83854   1.438   3.134   4.041
27871WAT     H183855   1.371   3.208   4.035
27871WAT     H283856   1.491   3.129   3.956
27872WAT      O83857   7.734   0.936   2.744
27872WAT     H183858   7.710   1.013   2.804
27872WAT     H283859   7.813   0.961   2.688
27873WAT      O83860   9.382   0.597   5.232
27873WAT     H183861   9.317   0.559   5.297
27873WAT     H283862   9.379   0.545   5.146
27874WAT      O83863   4.865   8.973   0.603
27874WAT     H183864   4.806   8.990   0.525
27874WAT     H283865   4.957   8.953   0.572
27875WAT      O83866   1.622   3.162   8.663
27875WAT     H183867   1.555   3.159   8.737
27875WAT     H283868   1.624   3.253   8.622
27876WAT      O83869   0.236   1.002   5.893
27876WAT     H183870   0.144   1.043   5.899
27876WAT     H283871   0.264   0.969   5.982
27877WAT      O83872   9.343   7.186   6.209
27877WAT     H183873   9.311   7.091   6.206
27877WAT     H283874   9.265   7.247   6.198
27878WAT      O83875   6.498   1.883   9.296
27878WAT     H183876   6.565   1.825   9.249
27878WAT     H283877   6.407   1.844   9.284
27879WAT      O83878   4.882   7.071   9.713
27879WAT     H183879   4.829   7.073   9.629
27879WAT     H283880   4.916   6.978   9.729
27880WAT      O83881   3.587   4.992   0.113
27880WAT     H183882   3.602   5.088   0.089
27880WAT     H283883   3.488   4.974   0.114
27881WAT      O83884   8.723   9.408   1.370
27881WAT     H183885   8.665   9.360   1.436
27881WAT     H283886   8.679   9.493   1.341
27882WAT      O83887   2.087   9.738   3.818
27882WAT     H183888   2.076   9.808   3.889
27882WAT     H283889   2.048   9.771   3.732
27883WAT      O83890   2.868   9.712   6.309
27883WAT     H183891   2.790   9.662   6.347
27883WAT     H283892   2.848   9.810   6.310
27884WAT      O83893   5.144   5.380   3.345
27884WAT     H183894   5.058   5.329   3.350
27884WAT     H283895   5.209   5.329   3.289
27885WAT      O83896   5.438   7.476   1.764
27885WAT     H183897   5.349   7.478   1.811
27885WAT     H283898   5.463   7.569   1.738
27886WAT      O83899   6.507   2.794   2.678
27886WAT     H183900   6.536   2.732   2.750
27886WAT     H283901   6.437   2.750   2.622
27887WAT      O83902   3.502   6.570   6.603
27887WAT     H183903   3.543   6.611   6.685
27887WAT     H283904   3.445   6.493   6.630
27888WAT      O83905   2.531   3.022   5.033
27888WAT     H183906   2.543   2.923   5.045
27888WAT     H283907   2.434   3.043   5.022
27889WAT      O83908   6.592   1.833   5.919
27889WAT     H183909   6.496   1.826   5.894
27889WAT     H283910   6.606   1.912   5.979
27890WAT      O83911   8.638   8.235   1.240
27890WAT     H183912   8.691   8.314   1.210
27890WAT     H283913   8.586   8.198   1.164
27891WAT      O83914   1.331   0.185   3.707
27891WAT     H183915   1.399   0.134   3.760
27891WAT     H283916   1.291   0.257   3.765
27892WAT      O83917   9.436   2.731   8.418
27892WAT     H183918   9.363   2.789   8.452
27892WAT     H283919   9.439   2.735   8.318
27893WAT      O83920   3.995   0.117   1.208
27893WAT     H183921   3.929   0.085   1.277
27893WAT     H283922   3.952   0.185   1.150
27894WAT      O83923   7.735   9.417   2.163
27894WAT     H183924   7.705   9.409   2.258
27894WAT     H283925   7.655   9.422   2.103
27895WAT      O83926   8.325   6.958   9.381
27895WAT     H183927   8.395   6.967   9.452
27895WAT     H283928   8.288   7.049   9.360
27896WAT      O83929   3.499   2.682   9.640
27896WAT     H183930   3.588   2.696   9.683
27896WAT     H283931   3.507   2.612   9.569
27897WAT      O83932   7.968   2.452   9.408
27897WAT     H183933   8.024   2.439   9.490
27897WAT     H283934   7.875   2.421   9.426
27898WAT      O83935   3.645   0.287   2.504
27898WAT     H183936   3.711   0.217   2.477
27898WAT     H283937   3.695   0.368   2.537
27899WAT      O83938   5.463   5.771   2.231
27899WAT     H183939   5.465   5.870   2.244
27899WAT     H283940   5.520   5.746   2.152
27900WAT      O83941   1.628   8.961   4.120
27900WAT     H183942   1.704   8.906   4.155
27900WAT     H283943   1.580   8.910   4.048
27901WAT      O83944   3.148   0.797   5.845
27901WAT     H183945   3.198   0.734   5.786
27901WAT     H283946   3.197   0.883   5.852
27902WAT      O83947   3.810   1.017   2.714
27902WAT     H183948   3.902   1.048   2.738
27902WAT     H283949   3.810   0.984   2.620
27903WAT      O83950   7.502   4.978   6.160
27903WAT     H183951   7.423   5.040   6.158
27903WAT     H283952   7.513   4.941   6.252
27904WAT      O83953   8.727   4.279   2.727
27904WAT     H183954   8.696   4.318   2.640
27904WAT     H283955   8.825   4.259   2.721
27905WAT      O83956   5.673   4.050   2.604
27905WAT     H183957   5.762   4.013   2.578
27905WAT     H283958   5.671   4.067   2.702
27906WAT      O83959   5.350   5.095   0.819
27906WAT     H183960   5.280   5.041   0.865
27906WAT     H283961   5.339   5.087   0.720
27907WAT      O83962   5.468   0.171   2.511
27907WAT     H183963   5.401   0.197   2.580
27907WAT     H283964   5.493   0.252   2.457
27908WAT      O83965   7.820   7.685   7.242
27908WAT     H183966   7.897   7.635   7.203
27908WAT     H283967   7.851   7.773   7.277
27909WAT      O83968   9.725   2.516   2.984
27909WAT     H183969   9.809   2.532   2.931
27909WAT     H283970   9.650   2.493   2.923
27910WAT      O83971   0.106   7.797   3.023
27910WAT     H183972   0.172   7.854   3.070
27910WAT     H283973   0.081   7.840   2.936
27911WAT      O83974   6.035   1.572   9.196
27911WAT     H183975   5.951   1.572   9.142
27911WAT     H283976   6.014   1.596   9.291
27912WAT      O83977   4.779   3.446   0.954
27912WAT     H183978   4.798   3.498   0.871
27912WAT     H283979   4.782   3.348   0.934
27913WAT      O83980   1.700   8.347   1.201
27913WAT     H183981   1.735   8.270   1.147
27913WAT     H283982   1.650   8.311   1.280
27914WAT      O83983   5.501   1.519   1.314
27914WAT     H183984   5.480   1.590   1.247
27914WAT     H283985   5.422   1.458   1.324
27915WAT      O83986   3.172   3.404   6.019
27915WAT     H183987   3.242   3.471   6.043
27915WAT     H283988   3.198   3.359   5.933
27916WAT      O83989   3.434   2.658   6.981
27916WAT     H183990   3.394   2.576   6.939
27916WAT     H283991   3.531   2.641   7.001
27917WAT      O83992   7.015   3.755   6.478
27917WAT     H183993   7.086   3.821   6.454
27917WAT     H283994   6.931   3.804   6.502
27918WAT      O83995   6.691   1.016   2.943
27918WAT     H183996   6.680   1.073   3.025
27918WAT     H283997   6.786   1.020   2.913
27919WAT      O83998   8.621   5.718   3.753
27919WAT     H183999   8.703   5.760   3.713
27919WAT     H284000   8.643   5.678   3.841
27920WAT      O84001   2.576   0.668   0.422
27920WAT     H184002   2.633   0.622   0.490
27920WAT     H284003   2.587   0.767   0.433
27921WAT      O84004   3.922   3.377   0.795
27921WAT     H184005   3.946   3.474   0.791
27921WAT     H284006   3.974   3.327   0.726
27922WAT      O84007   5.720   4.102   7.989
27922WAT     H184008   5.659   4.042   8.040
27922WAT     H284009   5.733   4.066   7.897
27923WAT      O84010   0.280   6.854   8.444
27923WAT     H184011   0.377   6.831   8.439
27923WAT     H284012   0.261   6.899   8.531
27924WAT      O84013   0.179   7.884   7.628
27924WAT     H184014   0.276   7.871   7.649
27924WAT     H284015   0.152   7.978   7.652
27925WAT      O84016   9.858   0.464   3.339
27925WAT     H184017   9.938   0.439   3.394
27925WAT     H284018   9.828   0.556   3.363
27926WAT      O84019   2.303   9.222   8.720
27926WAT     H184020   2.403   9.217   8.722
27926WAT     H284021   2.270   9.266   8.803
27927WAT      O84022   5.738   3.057   7.533
27927WAT     H184023   5.802   3.008   7.473
27927WAT     H284024   5.722   3.003   7.615
27928WAT      O84025   3.868   3.079   7.702
27928WAT     H184026   3.894   3.171   7.672
27928WAT     H284027   3.901   3.012   7.636
27929WAT      O84028   0.255   7.724   9.862
27929WAT     H184029   0.248   7.654   9.791
27929WAT     H284030   0.165   7.766   9.877
27930WAT      O84031   1.104   4.426   4.809
27930WAT     H184032   1.172   4.469   4.750
27930WAT     H284033   1.149   4.386   4.889
27931WAT      O84034   3.308   4.547   0.757
27931WAT     H184035   3.286   4.529   0.662
27931WAT     H284036   3.382   4.615   0.763
27932WAT      O84037   9.370   4.725   6.007
27932WAT     H184038   9.415   4.647   6.050
27932WAT     H284039   9.275   4.701   5.985
27933WAT      O84040   1.294   4.974   5.468
27933WAT     H184041   1.319   4.879   5.488
27933WAT     H284042   1.216   5.001   5.523
27934WAT      O84043   7.487   9.349   5.463
27934WAT     H184044   7.413   9.415   5.457
27934WAT     H284045   7.545   9.357   5.382
27935WAT      O84046   6.763   8.516   9.233
27935WAT     H184047   6.738   8.540   9.327
27935WAT     H284048   6.855   8.551   9.213
27936WAT      O84049   0.386   4.603   2.280
27936WAT     H184050   0.480   4.606   2.245
27936WAT     H284051   0.361   4.508   2.299
27937WAT      O84052   0.095   1.735   8.353
27937WAT     H184053   0.182   1.777   8.329
27937WAT     H284054   0.023   1.804   8.351
27938WAT      O84055   6.519   8.280   2.659
27938WAT     H184056   6.583   8.203   2.661
27938WAT     H284057   6.462   8.274   2.577
27939WAT      O84058   1.012   6.042   2.759
27939WAT     H184059   1.105   6.076   2.742
27939WAT     H284060   0.953   6.067   2.682
27940WAT      O84061   0.948   4.056   3.137
27940WAT     H184062   1.033   4.097   3.170
27940WAT     H284063   0.886   4.040   3.213
27941WAT      O84064   3.385   9.289   2.165
27941WAT     H184065   3.469   9.314   2.116
27941WAT     H284066   3.390   9.193   2.192
27942WAT      O84067   8.716   4.861   7.404
27942WAT     H184068   8.718   4.871   7.305
27942WAT     H284069   8.805   4.885   7.443
27943WAT      O84070   6.260   5.543   9.120
27943WAT     H184071   6.311   5.554   9.035
27943WAT     H284072   6.209   5.627   9.138
27944WAT      O84073   9.215   5.920   9.682
27944WAT     H184074   9.122   5.897   9.713
27944WAT     H284075   9.227   5.891   9.587
27945WAT      O84076   8.335   2.403   3.462
27945WAT     H184077   8.331   2.430   3.558
27945WAT     H284078   8.243   2.390   3.427
27946WAT      O84079   9.574   6.362   6.579
27946WAT     H184080   9.475   6.375   6.583
27946WAT     H284081   9.612   6.412   6.501
27947WAT      O84082   1.369   1.943   6.044
27947WAT     H184083   1.461   1.981   6.042
27947WAT     H284084   1.337   1.938   6.138
27948WAT      O84085   9.048   1.691   1.062
27948WAT     H184086   9.001   1.687   0.974
27948WAT     H284087   9.034   1.782   1.103
27949WAT      O84088   7.610   0.959   5.835
27949WAT     H184089   7.558   1.021   5.776
27949WAT     H284090   7.549   0.887   5.869
27950WAT      O84091   4.399   7.609   0.730
27950WAT     H184092   4.408   7.521   0.776
27950WAT     H284093   4.364   7.595   0.637
27951WAT      O84094   9.864   5.312   6.629
27951WAT     H184095   9.900   5.356   6.711
27951WAT     H284096   9.869   5.374   6.552
27952WAT      O84097   9.693   7.087   4.600
27952WAT     H184098   9.643   7.084   4.687
27952WAT     H284099   9.678   7.176   4.556
27953WAT      O84100   9.320   4.120   0.934
27953WAT     H184101   9.401   4.173   0.957
27953WAT     H284102   9.242   4.182   0.923
27954WAT      O84103   6.377   6.076   9.466
27954WAT     H184104   6.342   6.141   9.398
27954WAT     H284105   6.425   6.002   9.419
27955WAT      O84106   2.684   5.521   1.623
27955WAT     H184107   2.731   5.596   1.669
27955WAT     H284108   2.623   5.557   1.553
27956WAT      O84109   5.100   0.414   9.698
27956WAT     H184110   5.096   0.503   9.653
27956WAT     H284111   5.087   0.426   9.796
27957WAT      O84112   9.366   6.209   7.100
27957WAT     H184113   9.307   6.155   7.039
27957WAT     H284114   9.338   6.193   7.195
27958WAT      O84115   9.257   3.545   6.340
27958WAT     H184116   9.161   3.531   6.363
27958WAT     H284117   9.298   3.458   6.314
27959WAT      O84118   8.408   8.061   6.838
27959WAT     H184119   8.482   8.038   6.775
27959WAT     H284120   8.341   8.118   6.790
27960WAT      O84121   0.673   3.218   0.084
27960WAT     H184122   0.583   3.263   0.078
27960WAT     H284123   0.713   3.213  -0.008
27961WAT      O84124   9.052   1.287   4.041
27961WAT     H184125   8.995   1.351   3.989
27961WAT     H284126   9.084   1.331   4.125
27962WAT      O84127   2.079   7.192   8.415
27962WAT     H184128   1.981   7.210   8.425
27962WAT     H284129   2.095   7.140   8.331
27963WAT      O84130   4.062   1.264   9.658
27963WAT     H184131   4.088   1.168   9.664
27963WAT     H284132   4.025   1.295   9.745
27964WAT      O84133   9.677   9.025   8.647
27964WAT     H184134   9.647   9.119   8.661
27964WAT     H284135   9.755   9.006   8.706
27965WAT      O84136   0.238   5.357   3.716
27965WAT     H184137   0.334   5.331   3.730
27965WAT     H284138   0.192   5.286   3.663
27966WAT      O84139   7.401   5.015   5.000
27966WAT     H184140   7.469   4.963   5.051
27966WAT     H284141   7.345   4.953   4.946
27967WAT      O84142   6.868   0.253   5.011
27967WAT     H184143   6.798   0.323   5.026
27967WAT     H284144   6.927   0.247   5.091
27968WAT      O84145   3.701   3.606   4.187
27968WAT     H184146   3.736   3.698   4.170
27968WAT     H284147   3.747   3.567   4.267
27969WAT      O84148   6.041   7.741   4.321
27969WAT     H184149   5.976   7.801   4.275
27969WAT     H284150   5.996   7.695   4.398
27970WAT      O84151   0.758   3.364   1.331
27970WAT     H184152   0.720   3.385   1.241
27970WAT     H284153   0.816   3.440   1.361
27971WAT      O84154   2.542   3.026   5.913
27971WAT     H184155   2.520   2.930   5.893
27971WAT     H284156   2.568   3.072   5.828
27972WAT      O84157   2.295   0.042   6.006
27972WAT     H184158   2.332   0.134   5.991
27972WAT     H284159   2.264   0.004   5.919
27973WAT      O84160   9.072   6.713   9.229
27973WAT     H184161   9.166   6.738   9.252
27973WAT     H284162   9.061   6.710   9.130
27974WAT      O84163   5.067   7.223   6.445
27974WAT     H184164   5.119   7.193   6.365
27974WAT     H284165   4.988   7.277   6.415
27975WAT      O84166   2.187   3.648   3.935
27975WAT     H184167   2.124   3.669   4.010
27975WAT     H284168   2.174   3.714   3.861
27976WAT      O84169   7.558   1.143   4.654
27976WAT     H184170   7.576   1.047   4.634
27976WAT     H284171   7.644   1.191   4.673
27977WAT      O84172   1.584   3.030   3.782
27977WAT     H184173   1.503   2.971   3.790
27977WAT     H284174   1.647   2.990   3.715
27978WAT      O84175   5.264   1.247   1.152
27978WAT     H184176   5.192   1.220   1.088
27978WAT     H284177   5.323   1.168   1.170
27979WAT      O84178   0.247   0.951   3.372
27979WAT     H184179   0.159   0.921   3.408
27979WAT     H284180   0.306   0.871   3.358
27980WAT      O84181   4.618   1.903   3.913
27980WAT     H184182   4.619   1.959   3.831
27980WAT     H284183   4.709   1.862   3.927
27981WAT      O84184   9.044   5.718   5.931
27981WAT     H184185   9.030   5.751   5.838
27981WAT     H284186   8.964   5.665   5.960
27982WAT      O84187   6.745   9.278   3.988
27982WAT     H184188   6.799   9.357   4.015
27982WAT     H284189   6.648   9.302   3.986
27983WAT      O84190   1.739   5.522   8.348
27983WAT     H184191   1.683   5.601   8.324
27983WAT     H284192   1.698   5.440   8.309
27984WAT      O84193   7.673   1.172   2.867
27984WAT     H184194   7.692   1.203   2.960
27984WAT     H284195   7.740   1.212   2.804
27985WAT      O84196   0.749   5.624   3.261
27985WAT     H184197   0.676   5.690   3.242
27985WAT     H284198   0.718   5.559   3.330
27986WAT      O84199   4.819   5.645   5.872
27986WAT     H184200   4.859   5.722   5.922
27986WAT     H284201   4.893   5.587   5.837
27987WAT      O84202   2.885   2.756   7.626
27987WAT     H184203   2.911   2.850   7.650
27987WAT     H284204   2.851   2.710   7.708
27988WAT      O84205   0.190   1.569   1.940
27988WAT     H184206   0.094   1.592   1.960
27988WAT     H284207   0.199   1.546   1.843
27989WAT      O84208   1.308   5.027   2.568
27989WAT     H184209   1.360   5.091   2.625
27989WAT     H284210   1.366   4.949   2.544
27990WAT      O84211   6.165   0.852   7.728
27990WAT     H184212   6.174   0.946   7.759
27990WAT     H284213   6.148   0.850   7.629
27991WAT      O84214   4.679   4.889   9.294
27991WAT     H184215   4.741   4.916   9.220
27991WAT     H284216   4.681   4.789   9.304
27992WAT      O84217   5.171   1.494   0.532
27992WAT     H184218   5.253   1.444   0.505
27992WAT     H284219   5.107   1.496   0.454
27993WAT      O84220   0.647   1.339   1.919
27993WAT     H184221   0.594   1.254   1.916
27993WAT     H284222   0.601   1.405   1.978
27994WAT      O84223   8.677   2.585   0.601
27994WAT     H184224   8.608   2.513   0.589
27994WAT     H284225   8.645   2.652   0.668
27995WAT      O84226   1.858   5.245   4.243
27995WAT     H184227   1.814   5.279   4.326
27995WAT     H284228   1.931   5.181   4.267
27996WAT      O84229   5.365   6.547   3.836
27996WAT     H184230   5.308   6.624   3.865
27996WAT     H284231   5.356   6.472   3.902
27997WAT      O84232   5.678   1.498   4.811
27997WAT     H184233   5.657   1.422   4.750
27997WAT     H284234   5.595   1.548   4.833
27998WAT      O84235   0.487   5.530   8.066
27998WAT     H184236   0.512   5.508   8.160
27998WAT     H284237   0.441   5.619   8.064
27999WAT      O84238   2.200   1.080   7.701
27999WAT     H184239   2.118   1.114   7.745
27999WAT     H284240   2.263   1.156   7.685
28000WAT      O84241   2.185   3.637   5.820
28000WAT     H184242   2.274   3.635   5.866
28000WAT     H284243   2.198   3.644   5.721
28001WAT      O84244   8.355   3.994   6.587
28001WAT     H184245   8.326   3.974   6.494
28001WAT     H284246   8.363   4.093   6.599
28002WAT      O84247   8.209   6.467   2.279
28002WAT     H184248   8.155   6.535   2.329
28002WAT     H284249   8.306   6.490   2.286
28003WAT      O84250   9.862   3.559   4.148
28003WAT     H184251   9.885   3.481   4.205
28003WAT     H284252   9.788   3.611   4.190
28004WAT      O84253   8.977   3.134   8.825
28004WAT     H184254   8.931   3.148   8.912
28004WAT     H284255   9.074   3.157   8.834
28005WAT      O84256   8.166   9.841   5.737
28005WAT     H184257   8.227   9.766   5.713
28005WAT     H284258   8.114   9.870   5.657
28006WAT      O84259   0.598   2.725   4.526
28006WAT     H184260   0.688   2.759   4.549
28006WAT     H284261   0.599   2.688   4.433
28007WAT      O84262   2.582   2.752   6.569
28007WAT     H184263   2.518   2.781   6.497
28007WAT     H284264   2.670   2.729   6.527
28008WAT      O84265   4.246   9.510   0.036
28008WAT     H184266   4.183   9.463  -0.026
28008WAT     H284267   4.196   9.542   0.116
28009WAT      O84268   2.936   1.732   9.595
28009WAT     H184269   2.924   1.741   9.694
28009WAT     H284270   2.880   1.657   9.561
28010WAT      O84271   3.585   0.443   5.944
28010WAT     H184272   3.566   0.380   5.869
28010WAT     H284273   3.666   0.497   5.922
28011WAT      O84274   3.753   1.706   4.584
28011WAT     H184275   3.838   1.724   4.633
28011WAT     H284276   3.735   1.608   4.583
28012WAT      O84277   3.686   4.545   0.444
28012WAT     H184278   3.657   4.566   0.350
28012WAT     H284279   3.667   4.623   0.503
28013WAT      O84280   6.355   2.779   0.197
28013WAT     H184281   6.257   2.771   0.179
28013WAT     H284282   6.378   2.874   0.217
28014WAT      O84283   7.834   0.762   2.210
28014WAT     H184284   7.850   0.849   2.163
28014WAT     H284285   7.827   0.778   2.308
28015WAT      O84286   5.301   2.051   7.493
28015WAT     H184287   5.280   2.016   7.402
28015WAT     H284288   5.339   1.977   7.549
28016WAT      O84289   5.898   1.257   5.989
28016WAT     H184290   5.877   1.267   5.891
28016WAT     H284291   5.956   1.333   6.018
28017WAT      O84292   4.376   1.834   7.023
28017WAT     H184293   4.445   1.823   7.094
28017WAT     H284294   4.392   1.768   6.949
28018WAT      O84295   0.523   9.475   6.173
28018WAT     H184296   0.568   9.450   6.259
28018WAT     H284297   0.535   9.572   6.156
28019WAT      O84298   8.918   7.942   2.431
28019WAT     H184299   8.860   7.860   2.431
28019WAT     H284300   8.974   7.944   2.514
28020WAT      O84301   6.860   9.037   4.072
28020WAT     H184302   6.790   8.966   4.071
28020WAT     H284303   6.817   9.125   4.051
28021WAT      O84304   5.004   9.405   7.030
28021WAT     H184305   4.963   9.466   7.098
28021WAT     H284306   4.960   9.315   7.036
28022WAT      O84307   5.068   1.665   9.813
28022WAT     H184308   5.047   1.745   9.869
28022WAT     H284309   5.165   1.668   9.787
28023WAT      O84310   3.091   1.252   7.443
28023WAT     H184311   3.146   1.177   7.482
28023WAT     H284312   3.150   1.331   7.427
28024WAT      O84313   7.718   9.199   2.714
28024WAT     H184314   7.756   9.161   2.629
28024WAT     H284315   7.719   9.299   2.709
28025WAT      O84316   9.182   4.672   5.698
28025WAT     H184317   9.257   4.642   5.639
28025WAT     H284318   9.170   4.771   5.690
28026WAT      O84319   5.960   8.588   1.497
28026WAT     H184320   5.883   8.583   1.560
28026WAT     H284321   6.010   8.674   1.513
28027WAT      O84322   2.842   0.972   5.248
28027WAT     H184323   2.881   0.880   5.246
28027WAT     H284324   2.908   1.036   5.285
28028WAT      O84325   5.828   2.027   3.889
28028WAT     H184326   5.747   2.078   3.917
28028WAT     H284327   5.905   2.090   3.876
28029WAT      O84328   0.034   6.043   9.130
28029WAT     H184329   0.075   6.108   9.194
28029WAT     H284330  -0.066   6.050   9.134
28030WAT      O84331   4.787   0.894   8.953
28030WAT     H184332   4.689   0.903   8.933
28030WAT     H284333   4.805   0.932   9.044
28031WAT      O84334   8.714   7.832   9.619
28031WAT     H184335   8.778   7.757   9.636
28031WAT     H284336   8.649   7.804   9.548
28032WAT      O84337   7.376   7.175   5.740
28032WAT     H184338   7.288   7.194   5.784
28032WAT     H284339   7.378   7.080   5.709
28033WAT      O84340   9.232   3.261   4.589
28033WAT     H184341   9.162   3.300   4.529
28033WAT     H284342   9.311   3.321   4.593
28034WAT      O84343   3.426   9.649   8.393
28034WAT     H184344   3.504   9.694   8.437
28034WAT     H284345   3.401   9.567   8.445
28035WAT      O84346   4.740   4.895   3.401
28035WAT     H184347   4.781   4.932   3.318
28035WAT     H284348   4.787   4.933   3.481
28036WAT      O84349   5.715   0.117   0.165
28036WAT     H184350   5.785   0.128   0.094
28036WAT     H284351   5.689   0.207   0.200
28037WAT      O84352   9.831   3.159   4.178
28037WAT     H184353   9.861   3.211   4.257
28037WAT     H284354   9.758   3.095   4.204
28038WAT      O84355   6.022   8.984   3.787
28038WAT     H184356   5.985   9.073   3.812
28038WAT     H284357   6.034   8.979   3.688
28039WAT      O84358   6.186   4.378   6.564
28039WAT     H184359   6.165   4.456   6.623
28039WAT     H284360   6.214   4.301   6.621
28040WAT      O84361   6.748   8.356   0.446
28040WAT     H184362   6.686   8.318   0.514
28040WAT     H284363   6.840   8.320   0.460
28041WAT      O84364   8.444   1.159   4.367
28041WAT     H184365   8.503   1.079   4.364
28041WAT     H284366   8.352   1.134   4.338
28042WAT      O84367   8.648   0.496   8.485
28042WAT     H184368   8.693   0.554   8.417
28042WAT     H284369   8.555   0.529   8.500
28043WAT      O84370   1.307   3.187   1.293
28043WAT     H184371   1.330   3.108   1.237
28043WAT     H284372   1.262   3.157   1.377
28044WAT      O84373   2.751   2.777   8.500
28044WAT     H184374   2.796   2.790   8.588
28044WAT     H284375   2.818   2.789   8.426
28045WAT      O84376   4.593   4.589   2.013
28045WAT     H184377   4.557   4.607   2.105
28045WAT     H284378   4.520   4.553   1.955
28046WAT      O84379   8.450   7.196   5.894
28046WAT     H184380   8.527   7.230   5.947
28046WAT     H284381   8.481   7.167   5.804
28047WAT      O84382   8.367   7.851   9.846
28047WAT     H184383   8.336   7.768   9.801
28047WAT     H284384   8.460   7.838   9.880
28048WAT      O84385   4.142   2.750   8.057
28048WAT     H184386   4.096   2.662   8.046
28048WAT     H284387   4.138   2.800   7.971
28049WAT      O84388   2.758   8.583   9.546
28049WAT     H184389   2.841   8.633   9.567
28049WAT     H284390   2.760   8.553   9.450
28050WAT      O84391   0.334   5.572   2.866
28050WAT     H184392   0.285   5.653   2.834
28050WAT     H284393   0.279   5.490   2.849
28051WAT      O84394   0.154   3.354   4.777
28051WAT     H184395   0.136   3.264   4.737
28051WAT     H284396   0.117   3.357   4.870
28052WAT      O84397   4.329   3.482   3.516
28052WAT     H184398   4.301   3.520   3.605
28052WAT     H284399   4.248   3.464   3.461
28053WAT      O84400   9.796   2.898   3.473
28053WAT     H184401   9.846   2.846   3.543
28053WAT     H284402   9.811   2.996   3.488
28054WAT      O84403   5.027   6.788   2.527
28054WAT     H184404   4.986   6.697   2.532
28054WAT     H284405   5.123   6.783   2.555
28055WAT      O84406   0.801   7.168   6.385
28055WAT     H184407   0.881   7.217   6.418
28055WAT     H284408   0.768   7.211   6.301
28056WAT      O84409   9.633   4.446   4.221
28056WAT     H184410   9.599   4.522   4.166
28056WAT     H284411   9.681   4.381   4.163
28057WAT      O84412   9.638   6.445   3.212
28057WAT     H184413   9.613   6.356   3.249
28057WAT     H284414   9.606   6.451   3.117
28058WAT      O84415   5.905   4.036   7.108
28058WAT     H184416   5.995   4.039   7.154
28058WAT     H284417   5.887   3.943   7.076
28059WAT      O84418   7.939   5.504   1.523
28059WAT     H184419   7.936   5.409   1.492
28059WAT     H284420   7.863   5.555   1.483
28060WAT      O84421   9.616   4.208   0.523
28060WAT     H184422   9.578   4.119   0.552
28060WAT     H284423   9.541   4.272   0.507
28061WAT      O84424   3.042   9.742   2.297
28061WAT     H184425   2.971   9.764   2.230
28061WAT     H284426   3.123   9.798   2.279
28062WAT      O84427   1.342   6.704   1.776
28062WAT     H184428   1.385   6.616   1.758
28062WAT     H284429   1.377   6.742   1.862
28063WAT      O84430   6.520   3.154   1.777
28063WAT     H184431   6.437   3.128   1.826
28063WAT     H284432   6.600   3.131   1.832
28064WAT      O84433   2.733   2.849   1.450
28064WAT     H184434   2.766   2.796   1.528
28064WAT     H284435   2.713   2.787   1.374
28065WAT      O84436   1.687   3.246   8.089
28065WAT     H184437   1.701   3.334   8.135
28065WAT     H284438   1.774   3.212   8.055
28066WAT      O84439   1.845   6.260   1.050
28066WAT     H184440   1.760   6.285   1.096
28066WAT     H284441   1.852   6.313   0.965
28067WAT      O84442   6.598   3.871   0.385
28067WAT     H184443   6.499   3.868   0.375
28067WAT     H284444   6.635   3.778   0.383
28068WAT      O84445   3.285   7.009   1.866
28068WAT     H184446   3.328   6.988   1.778
28068WAT     H284447   3.343   7.072   1.917
28069WAT      O84448   9.281   4.536   1.980
28069WAT     H184449   9.237   4.496   1.900
28069WAT     H284450   9.335   4.466   2.027
28070WAT      O84451   7.337   8.389   0.937
28070WAT     H184452   7.285   8.384   0.852
28070WAT     H284453   7.416   8.449   0.924
28071WAT      O84454   8.979   6.649   2.918
28071WAT     H184455   8.918   6.620   2.991
28071WAT     H284456   8.996   6.747   2.925
28072WAT      O84457   6.492   1.477   7.143
28072WAT     H184458   6.582   1.472   7.101
28072WAT     H284459   6.461   1.572   7.144
28073WAT      O84460   2.902   4.289   2.656
28073WAT     H184461   2.973   4.345   2.612
28073WAT     H284462   2.855   4.234   2.587
28074WAT      O84463   5.782   0.323   4.337
28074WAT     H184464   5.795   0.290   4.244
28074WAT     H284465   5.862   0.301   4.392
28075WAT      O84466   7.267   4.731   3.263
28075WAT     H184467   7.298   4.768   3.175
28075WAT     H284468   7.344   4.690   3.311
28076WAT      O84469   2.348   3.886   4.594
28076WAT     H184470   2.278   3.827   4.554
28076WAT     H284471   2.329   3.899   4.691
28077WAT      O84472   5.506   2.694   6.979
28077WAT     H184473   5.423   2.649   7.012
28077WAT     H284474   5.545   2.641   6.904
28078WAT      O84475   7.175   9.488   4.123
28078WAT     H184476   7.242   9.546   4.077
28078WAT     H284477   7.118   9.543   4.184
28079WAT      O84478   1.789   7.412   6.814
28079WAT     H184479   1.727   7.487   6.836
28079WAT     H284480   1.816   7.418   6.718
28080WAT      O84481   7.898   1.245   2.732
28080WAT     H184482   7.923   1.172   2.669
28080WAT     H284483   7.832   1.306   2.689
28081WAT      O84484   6.675   0.602   6.826
28081WAT     H184485   6.639   0.693   6.801
28081WAT     H284486   6.757   0.613   6.882
28082WAT      O84487   9.406   4.032   5.322
28082WAT     H184488   9.461   4.084   5.387
28082WAT     H284489   9.310   4.037   5.348
28083WAT      O84490   2.945   9.128   7.321
28083WAT     H184491   2.861   9.075   7.333
28083WAT     H284492   3.009   9.078   7.263
28084WAT      O84493   0.317   3.478   4.240
28084WAT     H184494   0.236   3.449   4.291
28084WAT     H284495   0.323   3.578   4.240
28085WAT      O84496   1.965   7.373   1.769
28085WAT     H184497   2.059   7.342   1.784
28085WAT     H284498   1.942   7.445   1.834
28086WAT      O84499   3.717   4.988   5.777
28086WAT     H184500   3.807   4.973   5.817
28086WAT     H284501   3.720   4.972   5.679
28087WAT      O84502   5.284   4.275   6.437
28087WAT     H184503   5.246   4.366   6.451
28087WAT     H284504   5.271   4.221   6.520
28088WAT      O84505   8.424   7.497   3.044
28088WAT     H184506   8.478   7.450   2.974
28088WAT     H284507   8.382   7.429   3.105
28089WAT      O84508   7.958   3.535   3.060
28089WAT     H184509   7.896   3.591   3.006
28089WAT     H284510   7.915   3.447   3.081
28090WAT      O84511   3.385   7.875   2.599
28090WAT     H184512   3.329   7.921   2.531
28090WAT     H284513   3.371   7.776   2.592
28091WAT      O84514   3.049   9.645   0.617
28091WAT     H184515   3.041   9.565   0.557
28091WAT     H284516   3.085   9.616   0.706
28092WAT      O84517   4.370   7.511   1.457
28092WAT     H184518   4.467   7.501   1.476
28092WAT     H284519   4.344   7.449   1.383
28093WAT      O84520   7.940   3.210   7.261
28093WAT     H184521   7.915   3.116   7.237
28093WAT     H284522   7.977   3.212   7.353
28094WAT      O84523   7.690   4.528   9.585
28094WAT     H184524   7.705   4.594   9.512
28094WAT     H284525   7.602   4.544   9.629
28095WAT      O84526   2.505   7.144   2.671
28095WAT     H184527   2.501   7.090   2.587
28095WAT     H284528   2.471   7.236   2.652
28096WAT      O84529   2.367   0.083   4.701
28096WAT     H184530   2.454   0.088   4.752
28096WAT     H284531   2.309   0.013   4.742
28097WAT      O84532   8.365   0.378   7.749
28097WAT     H184533   8.435   0.341   7.688
28097WAT     H284534   8.303   0.437   7.697
28098WAT      O84535   5.506   8.167   1.939
28098WAT     H184536   5.581   8.232   1.939
28098WAT     H284537   5.520   8.099   2.012
28099WAT      O84538   6.429   2.100   2.206
28099WAT     H184539   6.334   2.093   2.177
28099WAT     H284540   6.490   2.081   2.129
28100WAT      O84541   4.971   2.671   7.621
28100WAT     H184542   5.006   2.591   7.571
28100WAT     H284543   4.894   2.644   7.679
28101WAT      O84544   9.274   1.134   1.391
28101WAT     H184545   9.255   1.233   1.389
28101WAT     H284546   9.273   1.099   1.298
28102WAT      O84547   6.086   8.059   1.453
28102WAT     H184548   6.025   8.060   1.532
28102WAT     H284549   6.106   8.153   1.425
28103WAT      O84550   9.663   1.731   0.538
28103WAT     H184551   9.631   1.643   0.504
28103WAT     H284552   9.701   1.721   0.629
28104WAT      O84553   6.332   9.554   6.973
28104WAT     H184554   6.311   9.573   6.877
28104WAT     H284555   6.409   9.490   6.979
28105WAT      O84556   6.877   3.393   0.446
28105WAT     H184557   6.943   3.398   0.521
28105WAT     H284558   6.925   3.388   0.359
28106WAT      O84559   7.222   8.352   8.799
28106WAT     H184560   7.151   8.282   8.808
28106WAT     H284561   7.180   8.441   8.781
28107WAT      O84562   8.771   1.494   9.754
28107WAT     H184563   8.741   1.424   9.819
28107WAT     H284564   8.871   1.493   9.747
28108WAT      O84565   8.118   2.597   6.392
28108WAT     H184566   8.039   2.542   6.421
28108WAT     H284567   8.127   2.593   6.293
28109WAT      O84568   5.055   8.126   8.377
28109WAT     H184569   4.987   8.054   8.361
28109WAT     H284570   5.078   8.170   8.290
28110WAT      O84571   9.039   7.680   2.200
28110WAT     H184572   9.133   7.714   2.200
28110WAT     H284573   8.980   7.747   2.154
28111WAT      O84574   5.220   2.414   3.999
28111WAT     H184575   5.160   2.334   3.990
28111WAT     H284576   5.286   2.399   4.072
28112WAT      O84577   8.663   2.141   4.636
28112WAT     H184578   8.591   2.157   4.568
28112WAT     H284579   8.738   2.090   4.593
28113WAT      O84580   9.505   9.701   3.337
28113WAT     H184581   9.422   9.644   3.339
28113WAT     H284582   9.574   9.661   3.398
28114WAT      O84583   2.058   7.528   9.767
28114WAT     H184584   2.060   7.438   9.725
28114WAT     H284585   1.971   7.573   9.745
28115WAT      O84586   7.637   8.472   5.366
28115WAT     H184587   7.691   8.540   5.416
28115WAT     H284588   7.686   8.385   5.365
28116WAT      O84589   8.047   9.794   6.549
28116WAT     H184590   7.953   9.800   6.517
28116WAT     H284591   8.071   9.698   6.565
28117WAT      O84592   4.348   1.170   6.218
28117WAT     H184593   4.439   1.166   6.259
28117WAT     H284594   4.282   1.200   6.287
28118WAT      O84595   9.664   0.019   6.319
28118WAT     H184596   9.710  -0.054   6.269
28118WAT     H284597   9.695   0.019   6.414
28119WAT      O84598   2.365   6.408   3.642
28119WAT     H184599   2.404   6.406   3.550
28119WAT     H284600   2.438   6.417   3.709
28120WAT      O84601   2.587   5.165   9.494
28120WAT     H184602   2.584   5.158   9.395
28120WAT     H284603   2.530   5.242   9.524
28121WAT      O84604   4.095   8.318   8.656
28121WAT     H184605   4.167   8.370   8.610
28121WAT     H284606   4.114   8.220   8.646
28122WAT      O84607   8.956   5.671   2.999
28122WAT     H184608   8.918   5.616   3.073
28122WAT     H284609   9.052   5.646   2.985
28123WAT      O84610   9.285   7.328   2.147
28123WAT     H184611   9.295   7.387   2.228
28123WAT     H284612   9.370   7.280   2.131
28124WAT      O84613   1.932   9.709   5.021
28124WAT     H184614   1.903   9.613   5.018
28124WAT     H284615   1.992   9.723   5.100
28125WAT      O84616   2.218   0.602   4.231
28125WAT     H184617   2.216   0.660   4.149
28125WAT     H284618   2.256   0.654   4.308
28126WAT      O84619   9.144   3.890   9.007
28126WAT     H184620   9.237   3.920   9.025
28126WAT     H284621   9.087   3.969   8.982
28127WAT      O84622   7.641   4.586   6.423
28127WAT     H184623   7.659   4.547   6.333
28127WAT     H284624   7.575   4.529   6.472
28128WAT      O84625   9.396   4.050   2.446
28128WAT     H184626   9.450   3.989   2.387
28128WAT     H284627   9.434   4.142   2.441
28129WAT      O84628   6.653   6.643   0.278
28129WAT     H184629   6.559   6.624   0.250
28129WAT     H284630   6.710   6.657   0.197
28130WAT      O84631   1.035   3.839   7.967
28130WAT     H184632   1.104   3.886   8.021
28130WAT     H284633   1.053   3.853   7.870
28131WAT      O84634   2.739   7.805   9.465
28131WAT     H184635   2.684   7.889   9.458
28131WAT     H284636   2.833   7.825   9.439
28132WAT      O84637   8.316   5.970   1.751
28132WAT     H184638   8.294   5.873   1.752
28132WAT     H284639   8.360   5.995   1.838
28133WAT      O84640   8.133   3.674   5.081
28133WAT     H184641   8.180   3.688   5.168
28133WAT     H284642   8.077   3.591   5.086
28134WAT      O84643   4.591   2.395   9.294
28134WAT     H184644   4.515   2.359   9.240
28134WAT     H284645   4.588   2.495   9.294
28135WAT      O84646   0.687   8.619   1.144
28135WAT     H184647   0.723   8.666   1.224
28135WAT     H284648   0.763   8.592   1.084
28136WAT      O84649   4.172   7.484   1.064
28136WAT     H184650   4.168   7.421   1.141
28136WAT     H284651   4.237   7.557   1.084
28137WAT      O84652   5.982   6.302   1.153
28137WAT     H184653   5.949   6.221   1.104
28137WAT     H284654   6.000   6.278   1.248
28138WAT      O84655   7.390   2.789   8.517
28138WAT     H184656   7.436   2.799   8.429
28138WAT     H284657   7.454   2.752   8.584
28139WAT      O84658   8.851   0.363   3.821
28139WAT     H184659   8.813   0.372   3.913
28139WAT     H284660   8.781   0.389   3.754
28140WAT      O84661   6.667   8.569   0.871
28140WAT     H184662   6.618   8.645   0.914
28140WAT     H284663   6.624   8.483   0.898
28141WAT      O84664   9.483   9.523   0.126
28141WAT     H184665   9.503   9.447   0.064
28141WAT     H284666   9.388   9.514   0.159
28142WAT      O84667   6.057   4.575   7.096
28142WAT     H184668   6.051   4.613   7.004
28142WAT     H284669   6.126   4.502   7.098
28143WAT      O84670   9.650   9.650   3.567
28143WAT     H184671   9.675   9.746   3.578
28143WAT     H284672   9.573   9.627   3.627
28144WAT      O84673   0.854   9.752   1.179
28144WAT     H184674   0.908   9.672   1.203
28144WAT     H284675   0.811   9.789   1.261
28145WAT      O84676   7.725   1.444   4.896
28145WAT     H184677   7.727   1.369   4.829
28145WAT     H284678   7.752   1.409   4.986
28146WAT      O84679   0.862   1.766   5.770
28146WAT     H184680   0.884   1.740   5.676
28146WAT     H284681   0.910   1.851   5.794
28147WAT      O84682   7.480   8.076   2.956
28147WAT     H184683   7.380   8.082   2.950
28147WAT     H284684   7.508   7.981   2.941
28148WAT      O84685   1.692   0.583   5.152
28148WAT     H184686   1.734   0.545   5.235
28148WAT     H284687   1.647   0.510   5.101
28149WAT      O84688   9.781   3.912   9.811
28149WAT     H184689   9.746   3.992   9.761
28149WAT     H284690   9.770   3.927   9.909
28150WAT      O84691   9.452   8.384   2.367
28150WAT     H184692   9.521   8.315   2.345
28150WAT     H284693   9.384   8.345   2.429
28151WAT      O84694   2.873   4.783   4.823
28151WAT     H184695   2.835   4.861   4.873
28151WAT     H284696   2.861   4.798   4.725
28152WAT      O84697   2.974   8.294   7.604
28152WAT     H184698   2.980   8.198   7.576
28152WAT     H284699   2.913   8.302   7.683
28153WAT      O84700   2.013   4.032   0.984
28153WAT     H184701   1.935   4.061   1.039
28153WAT     H284702   1.986   3.954   0.927
28154WAT      O84703   6.336   3.451   9.237
28154WAT     H184704   6.337   3.396   9.321
28154WAT     H284705   6.372   3.398   9.161
28155WAT      O84706   9.487   3.831   5.658
28155WAT     H184707   9.443   3.921   5.660
28155WAT     H284708   9.425   3.763   5.695
28156WAT      O84709   6.969   2.813   8.206
28156WAT     H184710   7.008   2.885   8.148
28156WAT     H284711   7.036   2.786   8.274
28157WAT      O84712   2.714   3.020   9.685
28157WAT     H184713   2.769   3.044   9.605
28157WAT     H284714   2.675   2.928   9.672
28158WAT      O84715   0.394   5.331   8.493
28158WAT     H184716   0.359   5.418   8.527
28158WAT     H284717   0.322   5.282   8.445
28159WAT      O84718   1.486   7.479   0.442
28159WAT     H184719   1.424   7.546   0.483
28159WAT     H284720   1.457   7.461   0.347
28160WAT      O84721   8.585   7.967   7.970
28160WAT     H184722   8.553   7.990   8.062
28160WAT     H284723   8.561   8.040   7.907
28161WAT      O84724   9.121   5.930   9.189
28161WAT     H184725   9.109   5.876   9.272
28161WAT     H284726   9.031   5.963   9.158
28162WAT      O84727   7.900   0.834   7.589
28162WAT     H184728   7.899   0.823   7.688
28162WAT     H284729   7.883   0.930   7.567
28163WAT      O84730   9.597   8.400   8.893
28163WAT     H184731   9.550   8.417   8.980
28163WAT     H284732   9.693   8.378   8.912
28164WAT      O84733   0.644   4.281   0.096
28164WAT     H184734   0.706   4.358   0.089
28164WAT     H284735   0.639   4.234   0.008
28165WAT      O84736   2.858   1.084   9.688
28165WAT     H184737   2.882   0.990   9.709
28165WAT     H284738   2.798   1.121   9.759
28166WAT      O84739   7.623   4.496   3.238
28166WAT     H184740   7.696   4.437   3.273
28166WAT     H284741   7.556   4.441   3.189
28167WAT      O84742   0.827   9.026   4.328
28167WAT     H184743   0.922   8.998   4.314
28167WAT     H284744   0.767   8.972   4.269
28168WAT      O84745   9.671   4.137   7.996
28168WAT     H184746   9.755   4.191   7.987
28168WAT     H284747   9.660   4.107   8.090
28169WAT      O84748   4.791   1.297   3.537
28169WAT     H184749   4.885   1.270   3.560
28169WAT     H284750   4.766   1.259   3.448
28170WAT      O84751   0.477   0.901   2.891
28170WAT     H184752   0.467   0.844   2.809
28170WAT     H284753   0.511   0.991   2.864
28171WAT      O84754   0.482   4.958   5.725
28171WAT     H184755   0.557   5.003   5.676
28171WAT     H284756   0.395   4.993   5.692
28172WAT      O84757   7.712   0.375   2.054
28172WAT     H184758   7.777   0.305   2.086
28172WAT     H284759   7.689   0.357   1.959
28173WAT      O84760   4.194   5.707   5.779
28173WAT     H184761   4.281   5.664   5.754
28173WAT     H284762   4.119   5.659   5.734
28174WAT      O84763   0.114   1.343   4.912
28174WAT     H184764   0.106   1.257   4.963
28174WAT     H284765   0.033   1.355   4.855
28175WAT      O84766   4.414   0.769   6.576
28175WAT     H184767   4.322   0.794   6.606
28175WAT     H284768   4.478   0.843   6.601
28176WAT      O84769   6.299   3.878   5.625
28176WAT     H184770   6.344   3.844   5.542
28176WAT     H284771   6.361   3.872   5.702
28177WAT      O84772   2.736   4.539   6.559
28177WAT     H184773   2.723   4.637   6.549
28177WAT     H284774   2.686   4.506   6.640
28178WAT      O84775   9.451   4.965   2.181
28178WAT     H184776   9.431   4.902   2.257
28178WAT     H284777   9.415   4.927   2.096
28179WAT      O84778   1.395   9.039   9.110
28179WAT     H184779   1.332   9.048   9.186
28179WAT     H284780   1.364   9.096   9.034
28180WAT      O84781   1.970   5.910   8.123
28180WAT     H184782   1.958   5.991   8.180
28180WAT     H284783   1.884   5.858   8.121
28181WAT      O84784   3.352   3.539   1.264
28181WAT     H184785   3.284   3.605   1.232
28181WAT     H284786   3.345   3.530   1.363
28182WAT      O84787   7.433   9.444   3.097
28182WAT     H184788   7.445   9.468   3.193
28182WAT     H284789   7.483   9.359   3.077
28183WAT      O84790   3.994   4.008   5.852
28183WAT     H184791   3.918   4.022   5.915
28183WAT     H284792   4.080   4.022   5.901
28184WAT      O84793   8.386   4.086   2.608
28184WAT     H184794   8.454   4.039   2.552
28184WAT     H284795   8.378   4.181   2.579
28185WAT      O84796   0.172   4.309   0.621
28185WAT     H184797   0.198   4.214   0.634
28185WAT     H284798   0.252   4.363   0.596
28186WAT      O84799   8.675   8.891   5.201
28186WAT     H184800   8.748   8.956   5.221
28186WAT     H284801   8.627   8.866   5.285
28187WAT      O84802   0.995   0.718   3.263
28187WAT     H184803   1.017   0.623   3.284
28187WAT     H284804   1.009   0.734   3.165
28188WAT      O84805   1.591   0.344   0.061
28188WAT     H184806   1.691   0.346   0.064
28188WAT     H284807   1.561   0.281  -0.010
28189WAT      O84808   9.782   3.223   1.857
28189WAT     H184809   9.685   3.249   1.854
28189WAT     H284810   9.838   3.305   1.863
28190WAT      O84811   0.191   2.376   2.506
28190WAT     H184812   0.261   2.447   2.498
28190WAT     H284813   0.119   2.408   2.567
28191WAT      O84814   2.428   5.351   9.620
28191WAT     H184815   2.336   5.354   9.659
28191WAT     H284816   2.493   5.390   9.685
28192WAT      O84817   1.506   8.529   5.253
28192WAT     H184818   1.556   8.565   5.174
28192WAT     H284819   1.409   8.518   5.229
28193WAT      O84820   6.652   6.689   6.471
28193WAT     H184821   6.734   6.706   6.526
28193WAT     H284822   6.675   6.629   6.394
28194WAT      O84823   2.383   8.251   9.113
28194WAT     H184824   2.312   8.242   9.043
28194WAT     H284825   2.459   8.306   9.077
28195WAT      O84826   2.893   8.320   8.610
28195WAT     H184827   2.921   8.302   8.515
28195WAT     H284828   2.935   8.252   8.670
28196WAT      O84829   0.275   5.564   8.582
28196WAT     H184830   0.330   5.647   8.581
28196WAT     H284831   0.178   5.587   8.579
28197WAT      O84832   6.215   7.014   8.332
28197WAT     H184833   6.275   6.939   8.306
28197WAT     H284834   6.207   7.017   8.432
28198WAT      O84835   0.605   8.937   3.196
28198WAT     H184836   0.689   8.992   3.191
28198WAT     H284837   0.622   8.856   3.252
28199WAT      O84838   8.536   3.102   1.106
28199WAT     H184839   8.619   3.153   1.086
28199WAT     H284840   8.460   3.166   1.119
28200WAT      O84841   0.106   6.225   2.939
28200WAT     H184842   0.128   6.316   2.974
28200WAT     H284843   0.170   6.158   2.977
28201WAT      O84844   9.205   0.048   7.770
28201WAT     H184845   9.187  -0.014   7.846
28201WAT     H284846   9.243  -0.003   7.694
28202WAT      O84847   3.279   7.765   6.073
28202WAT     H184848   3.198   7.796   6.023
28202WAT     H284849   3.338   7.711   6.012
28203WAT      O84850   3.582   4.000   2.045
28203WAT     H184851   3.623   3.948   2.121
28203WAT     H284852   3.561   3.937   1.970
28204WAT      O84853   2.630   8.892   0.792
28204WAT     H184854   2.592   8.930   0.708
28204WAT     H284855   2.683   8.810   0.771
28205WAT      O84856   6.784   5.044   4.485
28205WAT     H184857   6.722   4.966   4.481
28205WAT     H284858   6.827   5.057   4.395
28206WAT      O84859   2.021   8.079   6.489
28206WAT     H184860   1.973   8.118   6.567
28206WAT     H284861   2.076   8.001   6.519
28207WAT      O84862   6.597   7.780   3.380
28207WAT     H184863   6.555   7.706   3.327
28207WAT     H284864   6.670   7.742   3.437
28208WAT      O84865   2.813   8.656   8.966
28208WAT     H184866   2.808   8.703   9.054
28208WAT     H284867   2.726   8.611   8.947
28209WAT      O84868   2.886   7.979   7.993
28209WAT     H184869   2.963   7.938   8.042
28209WAT     H284870   2.889   8.078   8.002
28210WAT      O84871   0.041   0.367   4.730
28210WAT     H184872   0.140   0.361   4.737
28210WAT     H284873   0.007   0.438   4.792
28211WAT      O84874   8.555   5.171   5.927
28211WAT     H184875   8.585   5.141   5.836
28211WAT     H284876   8.626   5.150   5.994
28212WAT      O84877   2.416   2.885   8.659
28212WAT     H184878   2.364   2.944   8.720
28212WAT     H284879   2.482   2.939   8.607
28213WAT      O84880   3.645   8.096   4.387
28213WAT     H184881   3.633   8.026   4.316
28213WAT     H284882   3.640   8.186   4.345
28214WAT      O84883   2.032   5.345   0.062
28214WAT     H184884   2.078   5.310   0.144
28214WAT     H284885   1.959   5.408   0.089
28215WAT      O84886   3.318   5.775   1.212
28215WAT     H184887   3.412   5.771   1.243
28215WAT     H284888   3.300   5.700   1.148
28216WAT      O84889   7.727   8.182   3.869
28216WAT     H184890   7.645   8.143   3.826
28216WAT     H284891   7.729   8.156   3.965
28217WAT      O84892   8.672   1.513   7.957
28217WAT     H184893   8.676   1.596   8.012
28217WAT     H284894   8.592   1.459   7.983
28218WAT      O84895   9.341   6.009   0.907
28218WAT     H184896   9.407   5.988   0.979
28218WAT     H284897   9.303   6.100   0.922
28219WAT      O84898   6.729   9.459   7.272
28219WAT     H184899   6.691   9.372   7.240
28219WAT     H284900   6.818   9.443   7.314
28220WAT      O84901   8.045   9.139   0.216
28220WAT     H184902   7.999   9.051   0.226
28220WAT     H284903   8.131   9.138   0.267
28221WAT      O84904   0.356   9.018   9.155
28221WAT     H184905   0.264   8.988   9.130
28221WAT     H284906   0.415   8.938   9.165
28222WAT      O84907   3.465   6.120   9.610
28222WAT     H184908   3.496   6.191   9.673
28222WAT     H284909   3.366   6.116   9.611
28223WAT      O84910   5.188   9.677   7.491
28223WAT     H184911   5.149   9.645   7.404
28223WAT     H284912   5.127   9.651   7.566
28224WAT      O84913   6.629   7.224   8.514
28224WAT     H184914   6.567   7.147   8.530
28224WAT     H284915   6.714   7.190   8.475
28225WAT      O84916   6.747   7.578   9.079
28225WAT     H184917   6.811   7.503   9.064
28225WAT     H284918   6.790   7.648   9.136
28226WAT      O84919   6.814   8.542   4.104
28226WAT     H184920   6.799   8.541   4.203
28226WAT     H284921   6.831   8.450   4.071
28227WAT      O84922   5.959   9.205   5.839
28227WAT     H184923   5.885   9.262   5.876
28227WAT     H284924   6.047   9.243   5.868
28228WAT      O84925   3.749   8.515   9.148
28228WAT     H184926   3.696   8.450   9.094
28228WAT     H284927   3.833   8.471   9.179
28229WAT      O84928   4.708   4.238   9.884
28229WAT     H184929   4.748   4.295   9.955
28229WAT     H284930   4.753   4.149   9.884
28230WAT      O84931   2.154   0.709   0.563
28230WAT     H184932   2.154   0.762   0.478
28230WAT     H284933   2.112   0.620   0.547
28231WAT      O84934   7.423   9.182   1.298
28231WAT     H184935   7.334   9.155   1.261
28231WAT     H284936   7.439   9.279   1.277
28232WAT      O84937   5.049   5.843   4.682
28232WAT     H184938   5.084   5.855   4.775
28232WAT     H284939   5.022   5.748   4.669
28233WAT      O84940   3.979   5.469   0.294
28233WAT     H184941   4.070   5.508   0.306
28233WAT     H284942   3.948   5.429   0.380
28234WAT      O84943   1.635   5.491   9.516
28234WAT     H184944   1.555   5.432   9.521
28234WAT     H284945   1.683   5.490   9.603
28235WAT      O84946   8.187   4.241   0.132
28235WAT     H184947   8.169   4.173   0.061
28235WAT     H284948   8.153   4.207   0.220
28236WAT      O84949   4.489   8.690   7.372
28236WAT     H184950   4.526   8.599   7.358
28236WAT     H284951   4.428   8.713   7.296
28237WAT      O84952   8.516   8.178   1.017
28237WAT     H184953   8.480   8.250   0.957
28237WAT     H284954   8.489   8.089   0.982
28238WAT      O84955   8.860   2.463   8.533
28238WAT     H184956   8.799   2.383   8.532
28238WAT     H284957   8.948   2.437   8.572
28239WAT      O84958   7.539   7.990   2.189
28239WAT     H184959   7.593   7.918   2.233
28239WAT     H284960   7.462   7.949   2.140
28240WAT      O84961   7.967   8.032   7.546
28240WAT     H184962   7.970   7.951   7.604
28240WAT     H284963   7.992   8.008   7.453
28241WAT      O84964   1.638   6.472   3.891
28241WAT     H184965   1.654   6.520   3.805
28241WAT     H284966   1.617   6.376   3.871
28242WAT      O84967   9.448   0.874   3.144
28242WAT     H184968   9.483   0.820   3.220
28242WAT     H284969   9.353   0.901   3.163
28243WAT      O84970   0.794   4.196   0.668
28243WAT     H184971   0.882   4.149   0.656
28243WAT     H284972   0.767   4.238   0.581
28244WAT      O84973   8.306   6.224   5.396
28244WAT     H184974   8.389   6.238   5.341
28244WAT     H284975   8.245   6.302   5.384
28245WAT      O84976   4.851   0.131   7.440
28245WAT     H184977   4.929   0.185   7.407
28245WAT     H284978   4.864   0.111   7.537
28246WAT      O84979   6.242   0.786   9.272
28246WAT     H184980   6.302   0.777   9.351
28246WAT     H284981   6.211   0.881   9.264
28247WAT      O84982   5.891   9.714   4.757
28247WAT     H184983   5.861   9.797   4.803
28247WAT     H284984   5.838   9.636   4.791
28248WAT      O84985   8.928   6.297   2.104
28248WAT     H184986   8.864   6.366   2.139
28248WAT     H284987   9.016   6.341   2.086
28249WAT      O84988   0.560   7.349   8.554
28249WAT     H184989   0.641   7.291   8.553
28249WAT     H284990   0.548   7.391   8.464
28250WAT      O84991   1.422   4.033   1.643
28250WAT     H184992   1.518   4.008   1.635
28250WAT     H284993   1.400   4.052   1.739
28251WAT      O84994   6.427   9.344   0.958
28251WAT     H184995   6.398   9.265   1.013
28251WAT     H284996   6.481   9.406   1.015
28252WAT      O84997   3.588   0.040   8.102
28252WAT     H184998   3.513   0.051   8.037
28252WAT     H284999   3.621   0.130   8.130
28253WAT      O85000   7.910   4.450   3.613
28253WAT     H185001   7.869   4.530   3.657
28253WAT     H285002   7.880   4.446   3.518
28254WAT      O85003   2.805   6.552   8.293
28254WAT     H185004   2.774   6.497   8.371
28254WAT     H285005   2.776   6.510   8.208
28255WAT      O85006   3.116   0.744   6.838
28255WAT     H185007   3.134   0.706   6.928
28255WAT     H285008   3.182   0.706   6.772
28256WAT      O85009   6.964   4.521   3.778
28256WAT     H185010   6.962   4.616   3.807
28256WAT     H285011   6.965   4.462   3.858
28257WAT      O85012   3.511   3.797   3.813
28257WAT     H185013   3.590   3.836   3.766
28257WAT     H285014   3.450   3.755   3.746
28258WAT      O85015   3.472   9.049   2.267
28258WAT     H185016   3.506   9.075   2.358
28258WAT     H285017   3.548   9.052   2.201
28259WAT      O85018   0.768   1.646   1.586
28259WAT     H185019   0.842   1.586   1.616
28259WAT     H285020   0.707   1.595   1.525
28260WAT      O85021   0.156   4.712   2.212
28260WAT     H185022   0.176   4.782   2.143
28260WAT     H285023   0.242   4.672   2.244
28261WAT      O85024   3.502   3.830   6.135
28261WAT     H185025   3.494   3.908   6.075
28261WAT     H285026   3.597   3.798   6.137
28262WAT      O85027   3.942   1.945   0.405
28262WAT     H185028   3.855   1.972   0.365
28262WAT     H285029   3.940   1.847   0.425
28263WAT      O85030   6.252   7.328   3.616
28263WAT     H185031   6.295   7.250   3.663
28263WAT     H285032   6.299   7.346   3.530
28264WAT      O85033   7.029   4.923   4.573
28264WAT     H185034   7.013   4.832   4.535
28264WAT     H285035   6.944   4.975   4.574
28265WAT      O85036   9.082   5.190   3.352
28265WAT     H185037   9.093   5.290   3.353
28265WAT     H285038   8.985   5.167   3.365
28266WAT      O85039   4.265   0.626   5.921
28266WAT     H185040   4.346   0.686   5.923
28266WAT     H285041   4.183   0.682   5.908
28267WAT      O85042   8.416   0.329   6.794
28267WAT     H185043   8.508   0.298   6.768
28267WAT     H285044   8.348   0.283   6.738
28268WAT      O85045   2.822   2.570   4.960
28268WAT     H185046   2.779   2.489   4.998
28268WAT     H285047   2.820   2.566   4.860
28269WAT      O85048   3.676   1.172   6.071
28269WAT     H185049   3.612   1.126   6.131
28269WAT     H285050   3.634   1.187   5.981
28270WAT      O85051   8.864   3.184   5.690
28270WAT     H185052   8.866   3.284   5.687
28270WAT     H285053   8.950   3.151   5.730
28271WAT      O85054   1.760   0.344   0.946
28271WAT     H185055   1.716   0.255   0.956
28271WAT     H285056   1.829   0.355   1.018
28272WAT      O85057   2.309   4.349   6.561
28272WAT     H185058   2.222   4.302   6.548
28272WAT     H285059   2.360   4.350   6.475
28273WAT      O85060   8.722   9.066   2.644
28273WAT     H185061   8.698   9.143   2.703
28273WAT     H285062   8.776   9.000   2.696
28274WAT      O85063   7.761   2.699   3.666
28274WAT     H185064   7.779   2.704   3.764
28274WAT     H285065   7.818   2.628   3.625
28275WAT      O85066   5.364   3.542   3.012
28275WAT     H185067   5.266   3.562   3.000
28275WAT     H285068   5.375   3.452   3.054
28276WAT      O85069   9.782   2.253   9.542
28276WAT     H185070   9.842   2.203   9.480
28276WAT     H285071   9.752   2.338   9.498
28277WAT      O85072   2.766   7.735   4.647
28277WAT     H185073   2.819   7.701   4.570
28277WAT     H285074   2.756   7.835   4.639
28278WAT      O85075   3.500   8.787   6.021
28278WAT     H185076   3.506   8.776   5.922
28278WAT     H285077   3.437   8.861   6.043
28279WAT      O85078   9.844   8.562   0.582
28279WAT     H185079   9.893   8.524   0.661
28279WAT     H285080   9.807   8.487   0.526
28280WAT      O85081   0.154   9.036   0.020
28280WAT     H185082   0.080   9.052  -0.044
28280WAT     H285083   0.152   8.941   0.050
28281WAT      O85084   1.860   5.050   9.321
28281WAT     H185085   1.879   5.122   9.255
28281WAT     H285086   1.875   5.084   9.414
28282WAT      O85087   9.665   0.633   7.849
28282WAT     H185088   9.671   0.693   7.769
28282WAT     H285089   9.570   0.606   7.863
28283WAT      O85090   3.014   0.512   0.764
28283WAT     H185091   3.100   0.496   0.813
28283WAT     H285092   2.940   0.462   0.808
28284WAT      O85093   6.921   8.927   0.982
28284WAT     H185094   6.887   8.891   0.896
28284WAT     H285095   6.847   8.976   1.029
28285WAT      O85096   0.299   7.410   1.999
28285WAT     H185097   0.352   7.440   1.920
28285WAT     H285098   0.326   7.463   2.079
28286WAT      O85099   6.647   0.022   1.367
28286WAT     H185100   6.606   0.105   1.330
28286WAT     H285101   6.698   0.043   1.450
28287WAT      O85102   4.327   2.677   1.041
28287WAT     H185103   4.383   2.674   0.958
28287WAT     H285104   4.347   2.760   1.093
28288WAT      O85105   6.795   1.083   4.110
28288WAT     H185106   6.843   1.127   4.186
28288WAT     H285107   6.827   1.121   4.024
28289WAT      O85108   3.267   7.391   3.839
28289WAT     H185109   3.293   7.368   3.745
28289WAT     H285110   3.251   7.489   3.845
28290WAT      O85111   6.522   5.734   1.806
28290WAT     H185112   6.500   5.760   1.712
28290WAT     H285113   6.464   5.657   1.834
28291WAT      O85114   9.867   7.835   2.788
28291WAT     H185115   9.786   7.776   2.788
28291WAT     H285116   9.841   7.926   2.756
28292WAT      O85117   3.001   3.373   3.919
28292WAT     H185118   2.960   3.318   3.846
28292WAT     H285119   3.098   3.389   3.897
28293WAT      O85120   8.602   1.152   3.822
28293WAT     H185121   8.649   1.067   3.847
28293WAT     H285122   8.653   1.230   3.857
28294WAT      O85123   2.372   3.941   6.703
28294WAT     H185124   2.470   3.938   6.682
28294WAT     H285125   2.320   3.921   6.619
28295WAT      O85126   0.101   9.680   8.665
28295WAT     H185127   0.095   9.778   8.680
28295WAT     H285128   0.048   9.656   8.583
28296WAT      O85129   4.039   2.326   9.596
28296WAT     H185130   4.034   2.360   9.502
28296WAT     H285131   3.953   2.344   9.643
28297WAT      O85132   8.123   5.773   6.594
28297WAT     H185133   8.169   5.757   6.681
28297WAT     H285134   8.177   5.837   6.539
28298WAT      O85135   0.005   7.371   9.266
28298WAT     H185136   0.016   7.399   9.171
28298WAT     H285137   0.092   7.336   9.301
28299WAT      O85138   4.738   2.422   6.639
28299WAT     H185139   4.720   2.515   6.671
28299WAT     H285140   4.819   2.386   6.685
28300WAT      O85141   9.022   8.579   9.560
28300WAT     H185142   8.964   8.649   9.518
28300WAT     H285143   9.103   8.622   9.599
28301WAT      O85144   8.346   9.400   0.323
28301WAT     H185145   8.426   9.447   0.360
28301WAT     H285146   8.324   9.438   0.233
28302WAT      O85147   9.653   7.257   8.154
28302WAT     H185148   9.715   7.315   8.100
28302WAT     H285149   9.646   7.167   8.112
28303WAT      O85150   7.076   3.755   7.140
28303WAT     H185151   6.979   3.758   7.119
28303WAT     H285152   7.125   3.817   7.079
28304WAT      O85153   4.705   7.586   2.200
28304WAT     H185154   4.646   7.587   2.281
28304WAT     H285155   4.664   7.528   2.130
28305WAT      O85156   7.762   4.083   2.723
28305WAT     H185157   7.836   4.084   2.790
28305WAT     H285158   7.750   3.990   2.688
28306WAT      O85159   8.701   1.311   7.311
28306WAT     H185160   8.618   1.359   7.281
28306WAT     H285161   8.715   1.230   7.254
28307WAT      O85162   1.893   7.685   9.084
28307WAT     H185163   1.971   7.714   9.139
28307WAT     H285164   1.840   7.616   9.134
28308WAT      O85165   3.858   5.997   9.085
28308WAT     H185166   3.943   5.993   9.031
28308WAT     H285167   3.818   5.905   9.089
28309WAT      O85168   6.439   4.180   7.831
28309WAT     H185169   6.518   4.138   7.788
28309WAT     H285170   6.467   4.262   7.881
28310WAT      O85171   1.892   1.348   5.459
28310WAT     H185172   1.882   1.287   5.381
28310WAT     H285173   1.968   1.317   5.516
28311WAT      O85174   1.649   3.174   4.991
28311WAT     H185175   1.629   3.076   4.987
28311WAT     H285176   1.564   3.226   4.986
28312WAT      O85177   5.750   5.534   7.661
28312WAT     H185178   5.747   5.625   7.703
28312WAT     H285179   5.673   5.480   7.695
28313WAT      O85180   0.219   9.303   4.533
28313WAT     H185181   0.210   9.305   4.633
28313WAT     H285182   0.164   9.377   4.494
28314WAT      O85183   6.855   7.630   9.712
28314WAT     H185184   6.818   7.693   9.781
28314WAT     H285185   6.932   7.580   9.750
28315WAT      O85186   2.066   9.347   0.904
28315WAT     H185187   2.056   9.422   0.840
28315WAT     H285188   2.072   9.260   0.855
28316WAT      O85189   0.097   6.578   1.135
28316WAT     H185190   0.186   6.583   1.090
28316WAT     H285191   0.105   6.527   1.220
28317WAT      O85192   3.630   2.228   5.587
28317WAT     H185193   3.553   2.184   5.632
28317WAT     H285194   3.714   2.181   5.611
28318WAT      O85195   6.836   9.525   9.197
28318WAT     H185196   6.930   9.549   9.222
28318WAT     H285197   6.794   9.475   9.272
28319WAT      O85198   0.983   6.159   5.362
28319WAT     H185199   0.913   6.111   5.415
28319WAT     H285200   0.948   6.175   5.269
28320WAT      O85201   1.099   4.411   6.177
28320WAT     H185202   1.097   4.497   6.227
28320WAT     H285203   1.033   4.415   6.101
28321WAT      O85204   8.510   6.005   8.970
28321WAT     H185205   8.519   6.096   8.928
28321WAT     H285206   8.588   5.949   8.945
28322WAT      O85207   8.349   9.574   6.936
28322WAT     H185208   8.430   9.632   6.941
28322WAT     H285209   8.362   9.505   6.865
28323WAT      O85210   7.523   5.757   3.200
28323WAT     H185211   7.446   5.795   3.149
28323WAT     H285212   7.609   5.791   3.161
28324WAT      O85213   6.157   4.746   9.048
28324WAT     H185214   6.078   4.805   9.032
28324WAT     H285215   6.150   4.664   8.990
28325WAT      O85216   3.435   2.283   9.793
28325WAT     H185217   3.445   2.354   9.864
28325WAT     H285218   3.379   2.318   9.718
28326WAT      O85219   6.769   6.689   2.194
28326WAT     H185220   6.792   6.771   2.141
28326WAT     H285221   6.684   6.650   2.159
28327WAT      O85222   4.430   7.071   0.826
28327WAT     H185223   4.482   7.061   0.741
28327WAT     H285224   4.382   6.986   0.847
28328WAT      O85225   6.991   4.115   2.827
28328WAT     H185226   7.003   4.198   2.882
28328WAT     H285227   7.059   4.114   2.754
28329WAT      O85228   3.629   5.478   8.056
28329WAT     H185229   3.535   5.486   8.091
28329WAT     H285230   3.666   5.389   8.081
28330WAT      O85231   9.177   0.728   2.642
28330WAT     H185232   9.119   0.727   2.723
28330WAT     H285233   9.239   0.650   2.643
28331WAT      O85234   8.204   8.173   0.648
28331WAT     H185235   8.203   8.204   0.743
28331WAT     H285236   8.114   8.189   0.607
28332WAT      O85237   0.081   6.768   3.280
28332WAT     H185238   0.023   6.691   3.303
28332WAT     H285239   0.033   6.853   3.301
28333WAT      O85240   3.041   6.737   8.674
28333WAT     H185241   3.012   6.642   8.675
28333WAT     H285242   2.966   6.796   8.704
28334WAT      O85243   4.871   3.050   8.650
28334WAT     H185244   4.815   3.090   8.577
28334WAT     H285245   4.929   2.978   8.611
28335WAT      O85246   2.507   8.392   7.932
28335WAT     H185247   2.515   8.452   7.853
28335WAT     H285248   2.472   8.443   8.010
28336WAT      O85249   3.495   2.401   4.502
28336WAT     H185250   3.404   2.391   4.462
28336WAT     H285251   3.487   2.413   4.600
28337WAT      O85252   9.326   8.545   0.990
28337WAT     H185253   9.412   8.497   1.002
28337WAT     H285254   9.280   8.554   1.078
28338WAT      O85255   4.779   3.689   0.219
28338WAT     H185256   4.875   3.711   0.201
28338WAT     H285257   4.753   3.608   0.166
28339WAT      O85258   1.540   6.187   2.300
28339WAT     H185259   1.584   6.277   2.300
28339WAT     H285260   1.609   6.116   2.288
28340WAT      O85261   3.678   7.416   1.522
28340WAT     H185262   3.689   7.386   1.428
28340WAT     H285263   3.730   7.356   1.583
28341WAT      O85264   6.897   8.495   6.207
28341WAT     H185265   6.974   8.555   6.226
28341WAT     H285266   6.894   8.474   6.109
28342WAT      O85267   8.584   6.967   1.257
28342WAT     H185268   8.637   6.883   1.271
28342WAT     H285269   8.621   7.017   1.178
28343WAT      O85270   7.616   0.471   9.693
28343WAT     H185271   7.629   0.570   9.682
28343WAT     H285272   7.587   0.431   9.606
28344WAT      O85273   6.224   5.929   5.748
28344WAT     H185274   6.303   5.989   5.755
28344WAT     H285275   6.154   5.959   5.814
28345WAT      O85276   0.027   4.469   9.315
28345WAT     H185277  -0.021   4.458   9.402
28345WAT     H285278   0.075   4.557   9.314
28346WAT      O85279   0.607   9.196   9.245
28346WAT     H185280   0.525   9.195   9.188
28346WAT     H285281   0.671   9.264   9.210
28347WAT      O85282   7.086   3.828   7.397
28347WAT     H185283   7.081   3.791   7.304
28347WAT     H285284   7.155   3.778   7.450
28348WAT      O85285   5.480   9.463   2.942
28348WAT     H185286   5.555   9.431   2.884
28348WAT     H285287   5.516   9.522   3.014
28349WAT      O85288   9.405   4.997   3.100
28349WAT     H185289   9.457   4.919   3.135
28349WAT     H285290   9.404   4.994   3.000
28350WAT      O85291   5.807   5.681   0.772
28350WAT     H185292   5.764   5.685   0.862
28350WAT     H285293   5.747   5.724   0.705
28351WAT      O85294   5.713   1.571   7.050
28351WAT     H185295   5.699   1.484   7.002
28351WAT     H285296   5.652   1.575   7.129
28352WAT      O85297   2.266   4.996   7.187
28352WAT     H185298   2.281   4.939   7.106
28352WAT     H285299   2.266   4.939   7.269
28353WAT      O85300   7.408   9.060   9.144
28353WAT     H185301   7.424   8.976   9.093
28353WAT     H285302   7.488   9.081   9.200
28354WAT      O85303   4.949   8.648   0.509
28354WAT     H185304   4.871   8.590   0.534
28354WAT     H285305   4.987   8.688   0.592
28355WAT      O85306   0.349   3.647   8.605
28355WAT     H185307   0.342   3.729   8.661
28355WAT     H285308   0.277   3.583   8.631
28356WAT      O85309   7.363   8.355   4.344
28356WAT     H185310   7.309   8.300   4.281
28356WAT     H285311   7.327   8.345   4.437
28357WAT      O85312   3.264   9.336   8.754
28357WAT     H185313   3.347   9.309   8.802
28357WAT     H285314   3.200   9.259   8.752
28358WAT      O85315   4.010   4.633   0.698
28358WAT     H185316   4.098   4.678   0.678
28358WAT     H285317   3.936   4.682   0.651
28359WAT      O85318   2.571   5.260   5.478
28359WAT     H185319   2.485   5.309   5.492
28359WAT     H285320   2.627   5.309   5.412
28360WAT      O85321   8.356   0.390   4.406
28360WAT     H185322   8.272   0.351   4.446
28360WAT     H285323   8.431   0.380   4.471
28361WAT      O85324   5.424   0.715   9.703
28361WAT     H185325   5.347   0.663   9.665
28361WAT     H285326   5.461   0.776   9.633
28362WAT      O85327   8.845   7.804   0.946
28362WAT     H185328   8.777   7.755   1.000
28362WAT     H285329   8.886   7.877   1.001
28363WAT      O85330   4.503   9.211   8.438
28363WAT     H185331   4.537   9.244   8.350
28363WAT     H285332   4.465   9.287   8.491
28364WAT      O85333   2.660   9.576   2.925
28364WAT     H185334   2.641   9.478   2.921
28364WAT     H285335   2.594   9.625   2.868
28365WAT      O85336   2.843   9.686   6.963
28365WAT     H185337   2.839   9.597   6.916
28365WAT     H285338   2.771   9.745   6.928
28366WAT      O85339   9.482   2.658   5.637
28366WAT     H185340   9.575   2.686   5.612
28366WAT     H285341   9.475   2.651   5.737
28367WAT      O85342   0.405   6.236   6.045
28367WAT     H185343   0.375   6.274   5.958
28367WAT     H285344   0.374   6.295   6.120
28368WAT      O85345   8.273   6.097   4.726
28368WAT     H185346   8.364   6.065   4.754
28368WAT     H285347   8.257   6.188   4.762
28369WAT      O85348   6.402   7.028   4.650
28369WAT     H185349   6.481   7.081   4.619
28369WAT     H285350   6.371   6.969   4.575
28370WAT      O85351   7.779   6.133   9.447
28370WAT     H185352   7.692   6.181   9.460
28370WAT     H285353   7.827   6.130   9.535
28371WAT      O85354   1.874   2.670   5.856
28371WAT     H185355   1.792   2.636   5.903
28371WAT     H285356   1.923   2.593   5.815
28372WAT      O85357   8.790   5.985   1.081
28372WAT     H185358   8.770   5.950   1.173
28372WAT     H285359   8.703   6.005   1.034
28373WAT      O85360   5.662   4.185   0.577
28373WAT     H185361   5.733   4.254   0.592
28373WAT     H285362   5.575   4.231   0.559
28374WAT      O85363   4.341   7.080   4.601
28374WAT     H185364   4.248   7.112   4.621
28374WAT     H285365   4.376   7.128   4.521
28375WAT      O85366   7.469   7.609   8.899
28375WAT     H185367   7.407   7.624   8.976
28375WAT     H285368   7.509   7.517   8.905
28376WAT      O85369   8.041   0.482   0.656
28376WAT     H185370   7.977   0.559   0.664
28376WAT     H285371   7.990   0.397   0.650
28377WAT      O85372   6.799   0.450   1.549
28377WAT     H185373   6.884   0.474   1.596
28377WAT     H285374   6.784   0.513   1.473
28378WAT      O85375   5.769   8.528   7.268
28378WAT     H185376   5.810   8.501   7.181
28378WAT     H285377   5.758   8.447   7.326
28379WAT      O85378   9.165   3.603   6.619
28379WAT     H185379   9.211   3.681   6.663
28379WAT     H285380   9.230   3.528   6.607
28380WAT      O85381   6.132   2.063   5.015
28380WAT     H185382   6.138   1.976   5.062
28380WAT     H285383   6.084   2.051   4.928
28381WAT      O85384   9.500   0.113   3.448
28381WAT     H185385   9.520   0.025   3.405
28381WAT     H285386   9.572   0.136   3.513
28382WAT      O85387   0.782   3.934   6.508
28382WAT     H185388   0.698   3.988   6.512
28382WAT     H285389   0.765   3.849   6.459
28383WAT      O85390   9.247   1.848   4.294
28383WAT     H185391   9.319   1.823   4.229
28383WAT     H285392   9.158   1.822   4.257
28384WAT      O85393   3.472   8.860   6.937
28384WAT     H185394   3.516   8.770   6.936
28384WAT     H285395   3.540   8.930   6.958
28385WAT      O85396   3.763   6.060   2.902
28385WAT     H185397   3.830   6.082   2.831
28385WAT     H285398   3.684   6.120   2.893
28386WAT      O85399   2.316   8.598   9.881
28386WAT     H185400   2.400   8.544   9.888
28386WAT     H285401   2.258   8.561   9.808
28387WAT      O85402   0.729   4.454   5.109
28387WAT     H185403   0.647   4.489   5.155
28387WAT     H285404   0.746   4.360   5.138
28388WAT      O85405   6.217   2.517   6.483
28388WAT     H185406   6.154   2.593   6.469
28388WAT     H285407   6.174   2.431   6.455
28389WAT      O85408   7.879   6.791   2.538
28389WAT     H185409   7.902   6.888   2.546
28389WAT     H285410   7.892   6.746   2.627
28390WAT      O85411   0.399   8.766   6.375
28390WAT     H185412   0.331   8.799   6.310
28390WAT     H285413   0.450   8.690   6.335
28391WAT      O85414   3.994   2.843   7.571
28391WAT     H185415   4.081   2.837   7.523
28391WAT     H285416   3.921   2.862   7.505
28392WAT      O85417   2.977   3.456   5.168
28392WAT     H185418   2.980   3.484   5.263
28392WAT     H285419   3.065   3.417   5.141
28393WAT      O85420   1.730   5.820   0.436
28393WAT     H185421   1.743   5.751   0.507
28393WAT     H285422   1.672   5.894   0.471
28394WAT      O85423   2.570   3.368   9.153
28394WAT     H185424   2.596   3.464   9.149
28394WAT     H285425   2.618   3.324   9.230
28395WAT      O85426   1.262   3.106   3.702
28395WAT     H185427   1.173   3.096   3.745
28395WAT     H285428   1.327   3.043   3.744
28396WAT      O85429   5.817   3.496   8.600
28396WAT     H185430   5.911   3.527   8.589
28396WAT     H285431   5.758   3.540   8.533
28397WAT      O85432   5.064   3.719   3.309
28397WAT     H185433   5.079   3.800   3.252
28397WAT     H285434   5.056   3.747   3.405
28398WAT      O85435   2.411   7.930   8.627
28398WAT     H185436   2.373   7.996   8.562
28398WAT     H285437   2.449   7.978   8.706
28399WAT      O85438   2.905   3.790   7.386
28399WAT     H185439   2.910   3.803   7.287
28399WAT     H285440   2.935   3.874   7.432
28400WAT      O85441   2.897   2.268   6.215
28400WAT     H185442   2.837   2.249   6.293
28400WAT     H285443   2.976   2.207   6.218
28401WAT      O85444   4.584   2.328   0.623
28401WAT     H185445   4.497   2.308   0.578
28401WAT     H285446   4.588   2.425   0.646
28402WAT      O85447   3.357   4.643   7.163
28402WAT     H185448   3.437   4.583   7.169
28402WAT     H285449   3.346   4.675   7.069
28403WAT      O85450   7.473   4.322   3.918
28403WAT     H185451   7.422   4.384   3.858
28403WAT     H285452   7.515   4.374   3.992
28404WAT      O85453   8.021   2.188   5.178
28404WAT     H185454   8.061   2.122   5.242
28404WAT     H285455   8.091   2.253   5.148
28405WAT      O85456   5.685   2.186   9.879
28405WAT     H185457   5.638   2.147   9.799
28405WAT     H285458   5.647   2.277   9.897
28406WAT      O85459   8.835   8.192   6.980
28406WAT     H185460   8.930   8.180   6.949
28406WAT     H285461   8.834   8.202   7.080
28407WAT      O85462   4.908   9.458   7.536
28407WAT     H185463   4.867   9.367   7.547
28407WAT     H285464   4.972   9.475   7.611
28408WAT      O85465   2.324   7.491   8.956
28408WAT     H185466   2.230   7.482   8.925
28408WAT     H285467   2.357   7.584   8.939
28409WAT      O85468   0.774   7.267   5.930
28409WAT     H185469   0.865   7.257   5.970
28409WAT     H285470   0.783   7.299   5.836
28410WAT      O85471   8.047   3.876   9.578
28410WAT     H185472   8.026   3.883   9.480
28410WAT     H285473   7.986   3.936   9.630
28411WAT      O85474   9.475   3.839   8.232
28411WAT     H185475   9.439   3.890   8.154
28411WAT     H285476   9.401   3.784   8.272
28412WAT      O85477   3.550   4.776   9.265
28412WAT     H185478   3.584   4.799   9.174
28412WAT     H285479   3.493   4.695   9.260
28413WAT      O85480   1.859   2.892   5.688
28413WAT     H185481   1.876   2.816   5.750
28413WAT     H285482   1.924   2.966   5.707
28414WAT      O85483   5.939   7.843   6.484
28414WAT     H185484   5.988   7.919   6.527
28414WAT     H285485   5.853   7.828   6.533
28415WAT      O85486   8.169   6.215   8.136
28415WAT     H185487   8.084   6.259   8.166
28415WAT     H285488   8.238   6.223   8.208
28416WAT      O85489   9.383   5.846   0.151
28416WAT     H185490   9.298   5.853   0.100
28416WAT     H285491   9.409   5.749   0.160
28417WAT      O85492   8.532   0.816   0.849
28417WAT     H185493   8.603   0.798   0.781
28417WAT     H285494   8.546   0.757   0.929
28418WAT      O85495   6.643   7.167   4.056
28418WAT     H185496   6.572   7.224   4.015
28418WAT     H285497   6.600   7.094   4.110
28419WAT      O85498   6.344   1.603   8.978
28419WAT     H185499   6.410   1.543   9.023
28419WAT     H285500   6.298   1.660   9.046
28420WAT      O85501   5.591   0.030   3.082
28420WAT     H185502   5.610   0.040   3.179
28420WAT     H285503   5.645   0.097   3.031
28421WAT      O85504   1.016   5.691   3.150
28421WAT     H185505   0.924   5.680   3.188
28421WAT     H285506   1.010   5.731   3.059
28422WAT      O85507   5.076   3.936   6.825
28422WAT     H185508   5.147   3.988   6.873
28422WAT     H285509   4.994   3.933   6.882
28423WAT      O85510   8.493   1.373   5.349
28423WAT     H185511   8.580   1.355   5.304
28423WAT     H285512   8.508   1.385   5.448
28424WAT      O85513   5.416   7.687   7.340
28424WAT     H185514   5.438   7.643   7.426
28424WAT     H285515   5.480   7.763   7.324
28425WAT      O85516   2.881   6.428   2.915
28425WAT     H185517   2.794   6.416   2.964
28425WAT     H285518   2.910   6.523   2.922
28426WAT      O85519   6.602   3.479   2.708
28426WAT     H185520   6.583   3.479   2.609
28426WAT     H285521   6.530   3.530   2.755
28427WAT      O85522   0.200   8.897   1.588
28427WAT     H185523   0.203   8.903   1.687
28427WAT     H285524   0.112   8.930   1.555
28428WAT      O85525   3.298   6.781   5.619
28428WAT     H185526   3.330   6.874   5.641
28428WAT     H285527   3.202   6.786   5.588
28429WAT      O85528   5.145   0.330   3.785
28429WAT     H185529   5.111   0.409   3.836
28429WAT     H285530   5.088   0.316   3.704
28430WAT      O85531   2.600   1.064   5.417
28430WAT     H185532   2.618   1.054   5.515
28430WAT     H285533   2.681   1.036   5.365
28431WAT      O85534   5.145   3.670   2.144
28431WAT     H185535   5.104   3.754   2.180
28431WAT     H285536   5.244   3.680   2.139
28432WAT      O85537   2.616   6.300   2.476
28432WAT     H185538   2.704   6.317   2.520
28432WAT     H285539   2.588   6.206   2.494
28433WAT      O85540   3.411   6.665   5.149
28433WAT     H185541   3.426   6.764   5.152
28433WAT     H285542   3.395   6.632   5.242
28434WAT      O85543   3.501   7.065   7.563
28434WAT     H185544   3.499   7.015   7.477
28434WAT     H285545   3.474   7.005   7.638
28435WAT      O85546   2.518   1.991   5.618
28435WAT     H185547   2.575   1.909   5.623
28435WAT     H285548   2.562   2.066   5.667
28436WAT      O85549   6.486   2.057   2.444
28436WAT     H185550   6.458   2.070   2.348
28436WAT     H285551   6.560   2.120   2.466
28437WAT      O85552   1.031   1.217   4.751
28437WAT     H185553   1.072   1.194   4.662
28437WAT     H285554   1.038   1.138   4.812
28438WAT      O85555   9.761   0.286   5.712
28438WAT     H185556   9.801   0.198   5.686
28438WAT     H285557   9.662   0.278   5.717
28439WAT      O85558   2.149   0.835   1.689
28439WAT     H185559   2.073   0.785   1.647
28439WAT     H285560   2.154   0.927   1.649
28440WAT      O85561   6.416   3.926   9.861
28440WAT     H185562   6.319   3.901   9.852
28440WAT     H285563   6.473   3.849   9.834
28441WAT      O85564   7.107   4.079   1.698
28441WAT     H185565   7.073   4.005   1.755
28441WAT     H285566   7.207   4.083   1.705
28442WAT      O85567   8.672   1.691   9.273
28442WAT     H185568   8.693   1.788   9.256
28442WAT     H285569   8.708   1.664   9.362
28443WAT      O85570   3.721   5.521   4.758
28443WAT     H185571   3.797   5.507   4.695
28443WAT     H285572   3.718   5.445   4.824
28444WAT      O85573   6.083   0.821   2.744
28444WAT     H185574   6.030   0.791   2.823
28444WAT     H285575   6.026   0.880   2.686
28445WAT      O85576   9.871   6.720   2.604
28445WAT     H185577   9.891   6.624   2.584
28445WAT     H285578   9.860   6.732   2.703
28446WAT      O85579   4.662   2.780   3.103
28446WAT     H185580   4.718   2.808   3.180
28446WAT     H285581   4.579   2.835   3.100
28447WAT      O85582   4.916   9.488   8.924
28447WAT     H185583   4.938   9.545   9.003
28447WAT     H285584   4.817   9.491   8.908
28448WAT      O85585   7.064   9.200   5.110
28448WAT     H185586   6.973   9.239   5.120
28448WAT     H285587   7.119   9.221   5.192
28449WAT      O85588   4.080   7.544   3.618
28449WAT     H185589   4.081   7.445   3.636
28449WAT     H285590   4.130   7.591   3.691
28450WAT      O85591   3.022   3.544   5.858
28450WAT     H185592   3.068   3.479   5.918
28450WAT     H285593   3.029   3.636   5.896
28451WAT      O85594   0.038   5.289   1.750
28451WAT     H185595   0.042   5.227   1.672
28451WAT     H285596   0.033   5.383   1.717
28452WAT      O85597   8.143   9.070   9.026
28452WAT     H185598   8.173   8.980   9.059
28452WAT     H285599   8.213   9.138   9.047
28453WAT      O85600   3.397   3.640   3.027
28453WAT     H185601   3.397   3.739   3.039
28453WAT     H285602   3.402   3.595   3.116
28454WAT      O85603   4.814   9.692   0.102
28454WAT     H185604   4.899   9.659   0.062
28454WAT     H285605   4.793   9.784   0.067
28455WAT      O85606   4.066   9.710   2.758
28455WAT     H185607   4.014   9.772   2.700
28455WAT     H285608   4.129   9.656   2.702
28456WAT      O85609   7.327   2.788   1.108
28456WAT     H185610   7.357   2.883   1.096
28456WAT     H285611   7.373   2.730   1.041
28457WAT      O85612   8.955   0.161   8.377
28457WAT     H185613   8.869   0.196   8.415
28457WAT     H285614   8.936   0.109   8.294
28458WAT      O85615   2.539   6.048   8.331
28458WAT     H185616   2.530   6.068   8.428
28458WAT     H285617   2.582   5.958   8.319
28459WAT      O85618   0.535   5.483   3.014
28459WAT     H185619   0.618   5.509   2.965
28459WAT     H285620   0.456   5.524   2.968
28460WAT      O85621   3.040   6.057   1.951
28460WAT     H185622   3.088   6.143   1.931
28460WAT     H285623   3.102   5.980   1.937
28461WAT      O85624   7.304   5.115   9.789
28461WAT     H185625   7.347   5.054   9.856
28461WAT     H285626   7.252   5.185   9.838
28462WAT      O85627   8.668   6.239   0.433
28462WAT     H185628   8.623   6.291   0.505
28462WAT     H285629   8.623   6.257   0.345
28463WAT      O85630   2.102   1.689   0.402
28463WAT     H185631   2.175   1.755   0.386
28463WAT     H285632   2.108   1.616   0.334
28464WAT      O85633   1.075   6.762   1.818
28464WAT     H185634   1.172   6.740   1.807
28464WAT     H285635   1.042   6.724   1.905
28465WAT      O85636   1.154   1.583   8.914
28465WAT     H185637   1.193   1.565   8.824
28465WAT     H285638   1.196   1.665   8.953
28466WAT      O85639   7.563   3.542   2.919
28466WAT     H185640   7.529   3.634   2.942
28466WAT     H285641   7.544   3.480   2.995
28467WAT      O85642   4.856   1.790   4.034
28467WAT     H185643   4.786   1.728   4.069
28467WAT     H285644   4.938   1.739   4.012
28468WAT      O85645   0.540   9.461   6.509
28468WAT     H185646   0.455   9.409   6.512
28468WAT     H285647   0.549   9.517   6.591
28469WAT      O85648   1.950   4.510   1.051
28469WAT     H185649   1.958   4.478   1.145
28469WAT     H285650   1.861   4.485   1.014
28470WAT      O85651   5.943   3.092   4.728
28470WAT     H185652   5.993   3.007   4.711
28470WAT     H285653   5.916   3.095   4.824
28471WAT      O85654   1.570   1.582   8.358
28471WAT     H185655   1.667   1.559   8.365
28471WAT     H285656   1.550   1.614   8.265
28472WAT      O85657   0.802   0.025   9.058
28472WAT     H185658   0.711  -0.009   9.032
28472WAT     H285659   0.831  -0.019   9.143
28473WAT      O85660   0.720   8.725   8.843
28473WAT     H185661   0.730   8.636   8.888
28473WAT     H285662   0.769   8.795   8.895
28474WAT      O85663   3.507   4.612   6.279
28474WAT     H185664   3.575   4.685   6.278
28474WAT     H285665   3.416   4.651   6.271
28475WAT      O85666   2.854   5.388   9.774
28475WAT     H185667   2.874   5.304   9.725
28475WAT     H285668   2.904   5.464   9.733
28476WAT      O85669   7.257   1.818   6.215
28476WAT     H185670   7.292   1.724   6.220
28476WAT     H285671   7.165   1.817   6.175
28477WAT      O85672   0.228   4.347   8.968
28477WAT     H185673   0.251   4.264   8.917
28477WAT     H285674   0.226   4.326   9.066
28478WAT      O85675   6.672   8.902   2.960
28478WAT     H185676   6.687   8.984   2.904
28478WAT     H285677   6.576   8.875   2.955
28479WAT      O85678   7.183   0.657   6.224
28479WAT     H185679   7.260   0.607   6.184
28479WAT     H285680   7.104   0.596   6.232
28480WAT      O85681   9.299   7.778   1.228
28480WAT     H185682   9.205   7.746   1.231
28480WAT     H285683   9.308   7.854   1.164
28481WAT      O85684   9.594   3.896   1.290
28481WAT     H185685   9.532   3.896   1.211
28481WAT     H285686   9.658   3.973   1.282
28482WAT      O85687   6.719   1.386   6.079
28482WAT     H185688   6.734   1.340   6.166
28482WAT     H285689   6.752   1.480   6.086
28483WAT      O85690   7.328   7.282   4.639
28483WAT     H185691   7.248   7.239   4.596
28483WAT     H285692   7.346   7.237   4.727
28484WAT      O85693   5.215   7.970   6.249
28484WAT     H185694   5.161   7.963   6.166
28484WAT     H285695   5.228   8.067   6.273
28485WAT      O85696   1.235   2.200   1.265
28485WAT     H185697   1.140   2.179   1.286
28485WAT     H285698   1.249   2.299   1.269
28486WAT      O85699   4.170   6.275   4.123
28486WAT     H185700   4.205   6.213   4.194
28486WAT     H285701   4.074   6.253   4.105
28487WAT      O85702   0.689   9.565   0.485
28487WAT     H185703   0.591   9.562   0.466
28487WAT     H285704   0.719   9.661   0.490
28488WAT      O85705   6.206   5.322   2.909
28488WAT     H185706   6.140   5.247   2.913
28488WAT     H285707   6.177   5.395   2.970
28489WAT      O85708   6.452   1.641   6.523
28489WAT     H185709   6.456   1.645   6.622
28489WAT     H285710   6.412   1.725   6.487
28490WAT      O85711   5.044   9.491   5.367
28490WAT     H185712   4.985   9.545   5.307
28490WAT     H285713   5.136   9.529   5.366
28491WAT      O85714   9.665   6.287   6.250
28491WAT     H185715   9.752   6.287   6.200
28491WAT     H285716   9.652   6.377   6.293
28492WAT      O85717   7.165   2.264   9.604
28492WAT     H185718   7.119   2.189   9.556
28492WAT     H285719   7.154   2.253   9.702
28493WAT      O85720   1.826   1.699   7.184
28493WAT     H185721   1.798   1.775   7.125
28493WAT     H285722   1.856   1.734   7.272
28494WAT      O85723   8.509   2.279   0.842
28494WAT     H185724   8.571   2.224   0.898
28494WAT     H285725   8.522   2.256   0.746
28495WAT      O85726   0.429   9.442   1.685
28495WAT     H185727   0.363   9.394   1.743
28495WAT     H285728   0.516   9.393   1.686
28496WAT      O85729   4.283   5.931   5.582
28496WAT     H185730   4.237   6.015   5.555
28496WAT     H285731   4.222   5.877   5.640
28497WAT      O85732   0.161   9.491   3.228
28497WAT     H185733   0.087   9.434   3.265
28497WAT     H285734   0.207   9.539   3.303
28498WAT      O85735   4.719   8.357   8.624
28498WAT     H185736   4.641   8.297   8.609
28498WAT     H285737   4.695   8.427   8.691
28499WAT      O85738   3.361   5.224   9.162
28499WAT     H185739   3.459   5.220   9.142
28499WAT     H285740   3.316   5.143   9.123
28500WAT      O85741   9.874   7.705   7.666
28500WAT     H185742   9.939   7.778   7.649
28500WAT     H285743   9.817   7.691   7.585
28501WAT      O85744   9.232   3.106   7.798
28501WAT     H185745   9.324   3.065   7.797
28501WAT     H285746   9.235   3.195   7.843
28502WAT      O85747   6.993   8.262   3.939
28502WAT     H185748   7.042   8.305   4.015
28502WAT     H285749   6.894   8.268   3.956
28503WAT      O85750   7.881   6.612   7.212
28503WAT     H185751   7.874   6.629   7.311
28503WAT     H285752   7.827   6.531   7.189
28504WAT      O85753   2.372   9.625   0.875
28504WAT     H185754   2.277   9.632   0.844
28504WAT     H285755   2.383   9.542   0.930
28505WAT      O85756   0.539   9.725   3.151
28505WAT     H185757   0.495   9.791   3.213
28505WAT     H285758   0.471   9.659   3.119
28506WAT      O85759   1.326   2.402   1.950
28506WAT     H185760   1.279   2.463   1.886
28506WAT     H285761   1.316   2.307   1.920
28507WAT      O85762   7.472   9.039   8.164
28507WAT     H185763   7.411   9.118   8.165
28507WAT     H285764   7.547   9.055   8.100
28508WAT      O85765   3.100   8.575   9.427
28508WAT     H185766   3.060   8.489   9.395
28508WAT     H285767   3.057   8.601   9.513
28509WAT      O85768   0.160   1.137   7.123
28509WAT     H185769   0.155   1.172   7.216
28509WAT     H285770   0.200   1.207   7.063
28510WAT      O85771   8.432   2.954   4.155
28510WAT     H185772   8.416   2.870   4.206
28510WAT     H285773   8.349   2.981   4.106
28511WAT      O85774   3.850   4.608   8.780
28511WAT     H185775   3.815   4.515   8.796
28511WAT     H285776   3.878   4.649   8.867
28512WAT      O85777   6.331   5.519   2.167
28512WAT     H185778   6.360   5.452   2.235
28512WAT     H285779   6.368   5.609   2.192
28513WAT      O85780   6.972   2.013   7.179
28513WAT     H185781   6.923   2.022   7.093
28513WAT     H285782   6.964   2.098   7.231
28514WAT      O85783   9.041   5.614   8.593
28514WAT     H185784   9.072   5.685   8.530
28514WAT     H285785   8.942   5.615   8.600
28515WAT      O85786   8.974   8.590   4.648
28515WAT     H185787   9.021   8.506   4.672
28515WAT     H285788   8.991   8.612   4.552
28516WAT      O85789   2.406   3.855   4.205
28516WAT     H185790   2.449   3.929   4.259
28516WAT     H285791   2.308   3.852   4.225
28517WAT      O85792   3.956   2.362   5.794
28517WAT     H185793   4.006   2.441   5.758
28517WAT     H285794   3.864   2.390   5.820
28518WAT      O85795   3.095   0.124   1.855
28518WAT     H185796   3.052   0.061   1.790
28518WAT     H285797   3.040   0.208   1.859
28519WAT      O85798   0.504   5.302   3.831
28519WAT     H185799   0.491   5.240   3.908
28519WAT     H285800   0.593   5.348   3.839
28520WAT      O85801   8.616   0.064   5.181
28520WAT     H185802   8.687   0.027   5.121
28520WAT     H285803   8.597   0.159   5.156
28521WAT      O85804   6.490   6.903   1.216
28521WAT     H185805   6.569   6.891   1.277
28521WAT     H285806   6.421   6.958   1.263
28522WAT      O85807   4.502   3.919   8.272
28522WAT     H185808   4.513   3.820   8.283
28522WAT     H285809   4.591   3.964   8.282
28523WAT      O85810   9.744   7.185   0.421
28523WAT     H185811   9.779   7.228   0.504
28523WAT     H285812   9.644   7.184   0.424
28524WAT      O85813   1.308   2.347   1.583
28524WAT     H185814   1.240   2.274   1.588
28524WAT     H285815   1.275   2.427   1.633
28525WAT      O85816   5.553   2.700   7.283
28525WAT     H185817   5.607   2.738   7.207
28525WAT     H285818   5.615   2.662   7.351
28526WAT      O85819   7.495   7.373   5.873
28526WAT     H185820   7.590   7.352   5.898
28526WAT     H285821   7.456   7.295   5.824
28527WAT      O85822   3.202   1.769   8.421
28527WAT     H185823   3.103   1.775   8.432
28527WAT     H285824   3.237   1.691   8.472
28528WAT      O85825   4.116   2.133   7.597
28528WAT     H185826   4.206   2.090   7.588
28528WAT     H285827   4.051   2.086   7.536
28529WAT      O85828   0.553   2.822   7.264
28529WAT     H185829   0.589   2.902   7.314
28529WAT     H285830   0.582   2.828   7.169
28530WAT      O85831   3.675   6.363   3.677
28530WAT     H185832   3.622   6.447   3.682
28530WAT     H285833   3.772   6.385   3.670
28531WAT      O85834   2.166   6.853   6.135
28531WAT     H185835   2.200   6.759   6.140
28531WAT     H285836   2.100   6.861   6.060
28532WAT      O85837   7.746   7.261   5.895
28532WAT     H185838   7.816   7.264   5.825
28532WAT     H285839   7.786   7.287   5.983
28533WAT      O85840   6.779   5.797   0.789
28533WAT     H185841   6.779   5.751   0.700
28533WAT     H285842   6.694   5.778   0.837
28534WAT      O85843   2.592   7.503   7.958
28534WAT     H185844   2.645   7.419   7.945
28534WAT     H285845   2.643   7.581   7.921
28535WAT      O85846   1.014   0.295   0.870
28535WAT     H185847   0.953   0.238   0.925
28535WAT     H285848   1.108   0.282   0.900
28536WAT      O85849   7.842   1.114   6.623
28536WAT     H185850   7.870   1.171   6.546
28536WAT     H285851   7.771   1.050   6.592
28537WAT      O85852   1.358   7.206   5.084
28537WAT     H185853   1.432   7.184   5.147
28537WAT     H285854   1.322   7.121   5.045
28538WAT      O85855   9.044   8.904   3.148
28538WAT     H185856   9.071   8.996   3.175
28538WAT     H285857   9.051   8.895   3.049
28539WAT      O85858   1.066   7.257   6.324
28539WAT     H185859   1.123   7.175   6.328
28539WAT     H285860   1.109   7.330   6.377
28540WAT      O85861   0.993   2.537   1.568
28540WAT     H185862   0.987   2.633   1.543
28540WAT     H285863   0.974   2.480   1.489
28541WAT      O85864   6.353   6.732   1.763
28541WAT     H185865   6.429   6.683   1.720
28541WAT     H285866   6.336   6.693   1.854
28542WAT      O85867   7.260   1.922   1.284
28542WAT     H185868   7.331   1.922   1.355
28542WAT     H285869   7.180   1.872   1.318
28543WAT      O85870   5.977   4.748   2.800
28543WAT     H185871   5.896   4.710   2.844
28543WAT     H285872   5.949   4.812   2.728
28544WAT      O85873   6.043   9.241   2.643
28544WAT     H185874   5.995   9.232   2.556
28544WAT     H285875   6.141   9.251   2.627
28545WAT      O85876   3.052   0.908   9.182
28545WAT     H185877   3.073   0.892   9.278
28545WAT     H285878   3.138   0.914   9.131
28546WAT      O85879   5.422   1.642   8.700
28546WAT     H185880   5.394   1.547   8.708
28546WAT     H285881   5.448   1.677   8.790
28547WAT      O85882   0.147   2.305   0.534
28547WAT     H185883   0.177   2.235   0.599
28547WAT     H285884   0.195   2.390   0.552
28548WAT      O85885   8.190   1.152   0.913
28548WAT     H185886   8.238   1.069   0.883
28548WAT     H285887   8.252   1.230   0.907
28549WAT      O85888   3.016   5.697   0.452
28549WAT     H185889   3.004   5.638   0.372
28549WAT     H285890   3.007   5.643   0.535
28550WAT      O85891   9.729   0.976   2.853
28550WAT     H185892   9.734   1.013   2.760
28550WAT     H285893   9.692   1.047   2.914
28551WAT      O85894   4.714   0.506   6.203
28551WAT     H185895   4.767   0.562   6.139
28551WAT     H285896   4.620   0.497   6.169
28552WAT      O85897   8.917   0.839   6.116
28552WAT     H185898   8.885   0.933   6.114
28552WAT     H285899   8.838   0.777   6.124
28553WAT      O85900   1.277   1.551   9.298
28553WAT     H185901   1.297   1.468   9.349
28553WAT     H285902   1.361   1.603   9.284
28554WAT      O85903   3.303   8.588   2.156
28554WAT     H185904   3.303   8.491   2.129
28554WAT     H285905   3.330   8.644   2.078
28555WAT      O85906   1.412   1.116   3.607
28555WAT     H185907   1.493   1.124   3.665
28555WAT     H285908   1.388   1.019   3.596
28556WAT      O85909   7.079   8.296   1.899
28556WAT     H185910   7.115   8.208   1.929
28556WAT     H285911   7.032   8.340   1.976
28557WAT      O85912   3.743   9.648   9.351
28557WAT     H185913   3.808   9.637   9.427
28557WAT     H285914   3.747   9.567   9.292
28558WAT      O85915   3.106   6.071   6.958
28558WAT     H185916   3.099   5.974   6.936
28558WAT     H285917   3.192   6.088   7.008
28559WAT      O85918   0.073   5.944   8.847
28559WAT     H185919   0.079   5.987   8.937
28559WAT     H285920  -0.005   5.880   8.846
28560WAT      O85921   6.076   7.579   4.986
28560WAT     H185922   6.140   7.647   4.950
28560WAT     H285923   6.004   7.624   5.037
28561WAT      O85924   8.433   4.250   0.345
28561WAT     H185925   8.341   4.226   0.373
28561WAT     H285926   8.431   4.335   0.291
28562WAT      O85927   4.943   0.948   6.397
28562WAT     H185928   4.857   0.965   6.446
28562WAT     H285929   4.924   0.933   6.300
28563WAT      O85930   7.541   2.715   9.267
28563WAT     H185931   7.447   2.747   9.256
28563WAT     H285932   7.541   2.615   9.275
28564WAT      O85933   1.151   8.949   8.054
28564WAT     H185934   1.138   8.913   8.146
28564WAT     H285935   1.114   9.041   8.049
28565WAT      O85936   9.443   4.667   9.277
28565WAT     H185937   9.412   4.572   9.287
28565WAT     H285938   9.464   4.705   9.368
28566WAT      O85939   1.019   5.081   5.630
28566WAT     H185940   1.027   4.995   5.680
28566WAT     H285941   0.948   5.073   5.560
28567WAT      O85942   7.936   5.247   1.399
28567WAT     H185943   7.885   5.186   1.338
28567WAT     H285944   7.973   5.195   1.476
28568WAT      O85945   1.961   6.830   2.742
28568WAT     H185946   1.948   6.775   2.659
28568WAT     H285947   1.872   6.847   2.784
28569WAT      O85948   4.406   1.064   5.275
28569WAT     H185949   4.492   1.043   5.228
28569WAT     H285950   4.414   1.040   5.372
28570WAT      O85951   1.884   0.576   8.689
28570WAT     H185952   1.923   0.668   8.700
28570WAT     H285953   1.840   0.569   8.599
28571WAT      O85954   4.752   3.828   9.648
28571WAT     H185955   4.836   3.880   9.631
28571WAT     H285956   4.685   3.886   9.693
28572WAT      O85957   1.222   0.511   0.071
28572WAT     H185958   1.127   0.535   0.088
28572WAT     H285959   1.269   0.588   0.028
28573WAT      O85960   1.385   7.984   7.422
28573WAT     H185961   1.374   7.995   7.521
28573WAT     H285962   1.450   7.911   7.404
28574WAT      O85963   3.806   7.183   6.666
28574WAT     H185964   3.745   7.104   6.659
28574WAT     H285965   3.776   7.254   6.602
28575WAT      O85966   9.504   2.432   7.609
28575WAT     H185967   9.584   2.472   7.655
28575WAT     H285968   9.521   2.427   7.510
28576WAT      O85969   9.549   3.820   3.860
28576WAT     H185970   9.630   3.793   3.808
28576WAT     H285971   9.466   3.791   3.811
28577WAT      O85972   1.053   8.197   9.407
28577WAT     H185973   1.147   8.203   9.374
28577WAT     H285974   0.990   8.220   9.333
28578WAT      O85975   8.795   9.828   6.707
28578WAT     H185976   8.789   9.829   6.608
28578WAT     H285977   8.793   9.733   6.740
28579WAT      O85978   2.810   1.167   7.598
28579WAT     H185979   2.801   1.172   7.698
28579WAT     H285980   2.904   1.190   7.572
28580WAT      O85981   9.635   6.625   2.258
28580WAT     H185982   9.645   6.703   2.320
28580WAT     H285983   9.654   6.541   2.308
28581WAT      O85984   6.761   5.676   4.333
28581WAT     H185985   6.749   5.774   4.318
28581WAT     H285986   6.723   5.626   4.255
28582WAT      O85987   9.535   0.099   0.211
28582WAT     H185988   9.514   0.047   0.294
28582WAT     H285989   9.617   0.061   0.168
28583WAT      O85990   2.575   2.458   2.576
28583WAT     H185991   2.590   2.419   2.667
28583WAT     H285992   2.651   2.521   2.555
28584WAT      O85993   3.435   7.680   1.306
28584WAT     H185994   3.443   7.671   1.405
28584WAT     H285995   3.351   7.729   1.284
28585WAT      O85996   6.590   4.014   2.776
28585WAT     H185997   6.527   4.043   2.703
28585WAT     H285998   6.679   3.992   2.737
28586WAT      O85999   8.426   2.885   3.340
28586WAT     H186000   8.330   2.863   3.357
28586WAT     H286001   8.437   2.912   3.244
28587WAT      O86002   0.316   1.276   8.625
28587WAT     H186003   0.304   1.182   8.656
28587WAT     H286004   0.232   1.306   8.578
28588WAT      O86005   8.994   3.169   9.769
28588WAT     H186006   8.997   3.167   9.669
28588WAT     H286007   8.906   3.134   9.801
28589WAT      O86008   7.309   0.387   2.045
28589WAT     H186009   7.290   0.450   1.969
28589WAT     H286010   7.232   0.324   2.056
28590WAT      O86011   0.875   1.802   8.674
28590WAT     H186012   0.884   1.766   8.767
28590WAT     H286013   0.880   1.902   8.676
28591WAT      O86014   0.085   7.012   5.161
28591WAT     H186015   0.042   6.951   5.096
28591WAT     H286016   0.115   7.095   5.114
28592WAT      O86017   8.817   4.422   6.816
28592WAT     H186018   8.908   4.445   6.849
28592WAT     H286019   8.813   4.324   6.794
28593WAT      O86020   8.528   8.872   1.202
28593WAT     H186021   8.554   8.905   1.111
28593WAT     H286022   8.585   8.916   1.272
28594WAT      O86023   0.076   2.360   3.677
28594WAT     H186024  -0.010   2.403   3.649
28594WAT     H286025   0.142   2.368   3.602
28595WAT      O86026   0.047   1.299   8.336
28595WAT     H186027   0.085   1.206   8.330
28595WAT     H286028   0.111   1.364   8.295
28596WAT      O86029   4.971   3.695   5.234
28596WAT     H186030   4.945   3.759   5.305
28596WAT     H286031   5.001   3.745   5.153
28597WAT      O86032   9.127   5.867   5.446
28597WAT     H186033   9.186   5.946   5.428
28597WAT     H286034   9.083   5.839   5.361
28598WAT      O86035   8.220   1.212   1.204
28598WAT     H186036   8.149   1.282   1.199
28598WAT     H286037   8.226   1.164   1.116
28599WAT      O86038   3.773   1.739   8.620
28599WAT     H186039   3.873   1.738   8.630
28599WAT     H286040   3.730   1.721   8.708
28600WAT      O86041   0.184   5.570   7.672
28600WAT     H186042   0.094   5.573   7.715
28600WAT     H286043   0.245   5.512   7.726
28601WAT      O86044   3.905   7.087   1.873
28601WAT     H186045   3.961   7.053   1.949
28601WAT     H286046   3.961   7.090   1.790
28602WAT      O86047   9.826   1.175   3.836
28602WAT     H186048   9.783   1.109   3.774
28602WAT     H286049   9.756   1.218   3.893
28603WAT      O86050   1.804   4.962   2.584
28603WAT     H186051   1.745   4.886   2.612
28603WAT     H286052   1.892   4.926   2.554
28604WAT      O86053   6.800   7.638   1.541
28604WAT     H186054   6.755   7.606   1.624
28604WAT     H286055   6.890   7.674   1.563
28605WAT      O86056   0.050   3.604   3.881
28605WAT     H186057   0.148   3.587   3.892
28605WAT     H286058   0.004   3.594   3.969
28606WAT      O86059   5.169   1.457   1.325
28606WAT     H186060   5.196   1.376   1.274
28606WAT     H286061   5.075   1.483   1.300
28607WAT      O86062   3.191   1.071   5.776
28607WAT     H186063   3.151   1.097   5.864
28607WAT     H286064   3.263   1.137   5.752
28608WAT      O86065   7.882   1.813   6.365
28608WAT     H186066   7.921   1.905   6.353
28608WAT     H286067   7.809   1.799   6.298
28609WAT      O86068   1.654   2.348   9.765
28609WAT     H186069   1.637   2.334   9.668
28609WAT     H286070   1.567   2.359   9.813
28610WAT      O86071   0.358   4.883   5.449
28610WAT     H186072   0.410   4.951   5.398
28610WAT     H286073   0.401   4.794   5.441
28611WAT      O86074   5.454   3.863   6.801
28611WAT     H186075   5.385   3.802   6.762
28611WAT     H286076   5.475   3.936   6.736
28612WAT      O86077   5.164   9.670   0.433
28612WAT     H186078   5.106   9.589   0.435
28612WAT     H286079   5.106   9.752   0.437
28613WAT      O86080   3.133   9.091   5.255
28613WAT     H186081   3.210   9.081   5.319
28613WAT     H286082   3.047   9.093   5.306
28614WAT      O86083   3.951   8.487   0.354
28614WAT     H186084   4.034   8.542   0.360
28614WAT     H286085   3.924   8.457   0.446
28615WAT      O86086   3.373   8.462   6.961
28615WAT     H186087   3.451   8.513   6.998
28615WAT     H286088   3.332   8.407   7.034
28616WAT      O86089   7.237   0.617   8.893
28616WAT     H186090   7.237   0.579   8.986
28616WAT     H286091   7.328   0.608   8.853
28617WAT      O86092   8.368   9.249   1.993
28617WAT     H186093   8.319   9.197   2.063
28617WAT     H286094   8.306   9.317   1.953
28618WAT      O86095   8.483   6.360   5.899
28618WAT     H186096   8.530   6.272   5.902
28618WAT     H286097   8.418   6.367   5.974
28619WAT      O86098   7.702   0.636   0.158
28619WAT     H186099   7.644   0.557   0.136
28619WAT     H286100   7.783   0.635   0.100
28620WAT      O86101   9.379   3.360   7.367
28620WAT     H186102   9.361   3.307   7.284
28620WAT     H286103   9.335   3.449   7.359
28621WAT      O86104   6.993   7.802   5.552
28621WAT     H186105   7.079   7.838   5.515
28621WAT     H286106   6.947   7.747   5.482
28622WAT      O86107   1.911   3.830   2.473
28622WAT     H186108   1.874   3.781   2.394
28622WAT     H286109   1.865   3.919   2.482
28623WAT      O86110   2.468   8.843   4.639
28623WAT     H186111   2.481   8.925   4.695
28623WAT     H286112   2.418   8.775   4.692
28624WAT      O86113   9.587   7.846   1.621
28624WAT     H186114   9.663   7.790   1.588
28624WAT     H286115   9.502   7.812   1.582
28625WAT      O86116   3.504   7.236   3.221
28625WAT     H186117   3.579   7.282   3.268
28625WAT     H286118   3.418   7.258   3.267
28626WAT      O86119   0.794   4.773   0.389
28626WAT     H186120   0.733   4.846   0.359
28626WAT     H286121   0.885   4.787   0.349
28627WAT      O86122   8.122   7.329   3.762
28627WAT     H186123   8.024   7.311   3.771
28627WAT     H286124   8.171   7.279   3.834
28628WAT      O86125   1.426   5.169   6.058
28628WAT     H186126   1.372   5.231   6.115
28628WAT     H286127   1.473   5.103   6.116
28629WAT      O86128   9.526   2.733   8.828
28629WAT     H186129   9.455   2.673   8.790
28629WAT     H286130   9.540   2.711   8.924
28630WAT      O86131   1.314   8.412   9.417
28630WAT     H186132   1.244   8.484   9.426
28630WAT     H286133   1.312   8.376   9.324
28631WAT      O86134   6.606   4.403   8.771
28631WAT     H186135   6.627   4.388   8.675
28631WAT     H286136   6.628   4.320   8.823
28632WAT      O86137   3.117   1.503   4.401
28632WAT     H186138   3.040   1.520   4.340
28632WAT     H286139   3.165   1.590   4.419
28633WAT      O86140   1.030   6.905   6.951
28633WAT     H186141   1.117   6.882   6.907
28633WAT     H286142   1.008   7.001   6.931
28634WAT      O86143   5.927   2.285   0.577
28634WAT     H186144   5.833   2.317   0.584
28634WAT     H286145   5.941   2.241   0.489
28635WAT      O86146   6.454   6.876   8.279
28635WAT     H186147   6.514   6.877   8.199
28635WAT     H286148   6.497   6.927   8.354
28636WAT      O86149   2.248   0.801   3.515
28636WAT     H186150   2.336   0.753   3.515
28636WAT     H286151   2.177   0.740   3.481
28637WAT      O86152   3.388   5.350   5.381
28637WAT     H186153   3.420   5.399   5.462
28637WAT     H286154   3.331   5.272   5.409
28638WAT      O86155   7.601   2.615   1.323
28638WAT     H186156   7.652   2.677   1.264
28638WAT     H286157   7.664   2.565   1.382
28639WAT      O86158   5.770   0.095   0.698
28639WAT     H186159   5.741   0.021   0.759
28639WAT     H286160   5.810   0.057   0.615
28640WAT      O86161   4.203   6.590   2.803
28640WAT     H186162   4.186   6.590   2.901
28640WAT     H286163   4.284   6.535   2.784
28641WAT      O86164   9.485   5.106   6.482
28641WAT     H186165   9.424   5.101   6.403
28641WAT     H286166   9.454   5.042   6.552
28642WAT      O86167   3.724   8.243   5.458
28642WAT     H186168   3.706   8.155   5.501
28642WAT     H286169   3.726   8.233   5.359
28643WAT      O86170   7.754   4.868   9.088
28643WAT     H186171   7.798   4.779   9.074
28643WAT     H286172   7.655   4.856   9.089
28644WAT      O86173   5.073   4.854   9.521
28644WAT     H186174   5.063   4.893   9.612
28644WAT     H286175   5.098   4.926   9.456
28645WAT      O86176   8.039   9.338   2.447
28645WAT     H186177   8.026   9.264   2.381
28645WAT     H286178   8.121   9.320   2.501
28646WAT      O86179   7.839   4.749   9.867
28646WAT     H186180   7.855   4.655   9.898
28646WAT     H286181   7.924   4.801   9.874
28647WAT      O86182   4.671   7.256   7.149
28647WAT     H186183   4.595   7.284   7.208
28647WAT     H286184   4.655   7.162   7.118
28648WAT      O86185   1.280   7.574   4.782
28648WAT     H186186   1.203   7.617   4.735
28648WAT     H286187   1.291   7.615   4.873
28649WAT      O86188   7.098   5.163   2.823
28649WAT     H186189   7.150   5.079   2.808
28649WAT     H286190   7.055   5.192   2.738
28650WAT      O86191   6.387   4.750   2.317
28650WAT     H186192   6.379   4.811   2.395
28650WAT     H286193   6.313   4.768   2.253
28651WAT      O86194   1.305   9.245   3.313
28651WAT     H186195   1.235   9.222   3.246
28651WAT     H286196   1.302   9.343   3.332
28652WAT      O86197   4.668   6.907   9.001
28652WAT     H186198   4.618   6.975   9.055
28652WAT     H286199   4.620   6.890   8.915
28653WAT      O86200   7.710   2.775   6.574
28653WAT     H186201   7.772   2.849   6.550
28653WAT     H286202   7.684   2.783   6.670
28654WAT      O86203   2.000   5.679   4.728
28654WAT     H186204   1.995   5.766   4.779
28654WAT     H286205   2.070   5.621   4.770
28655WAT      O86206   4.241   0.637   1.699
28655WAT     H186207   4.302   0.563   1.727
28655WAT     H286208   4.164   0.642   1.764
28656WAT      O86209   1.754   2.246   1.203
28656WAT     H186210   1.827   2.228   1.270
28656WAT     H286211   1.665   2.226   1.244
28657WAT      O86212   6.042   7.439   1.770
28657WAT     H186213   6.038   7.488   1.857
28657WAT     H286214   5.964   7.377   1.763
28658WAT      O86215   0.717   6.441   7.496
28658WAT     H186216   0.758   6.385   7.424
28658WAT     H286217   0.696   6.532   7.459
28659WAT      O86218   2.467   0.812   6.498
28659WAT     H186219   2.483   0.887   6.433
28659WAT     H286220   2.381   0.767   6.476
28660WAT      O86221   4.449   6.691   3.434
28660WAT     H186222   4.471   6.593   3.429
28660WAT     H286223   4.470   6.725   3.526
28661WAT      O86224   6.770   5.602   3.153
28661WAT     H186225   6.860   5.621   3.191
28661WAT     H286226   6.739   5.680   3.098
28662WAT      O86227   3.653   2.501   9.084
28662WAT     H186228   3.749   2.526   9.097
28662WAT     H286229   3.607   2.494   9.172
28663WAT      O86230   1.155   1.524   7.668
28663WAT     H186231   1.166   1.613   7.623
28663WAT     H286232   1.062   1.491   7.654
28664WAT      O86233   2.215   2.412   2.964
28664WAT     H186234   2.287   2.373   2.906
28664WAT     H286235   2.233   2.388   3.060
28665WAT      O86236   1.378   2.434   5.656
28665WAT     H186237   1.475   2.453   5.636
28665WAT     H286238   1.331   2.520   5.674
28666WAT      O86239   9.124   8.439   2.897
28666WAT     H186240   9.219   8.429   2.924
28666WAT     H286241   9.065   8.434   2.977
28667WAT      O86242   3.611   6.914   0.548
28667WAT     H186243   3.657   6.991   0.503
28667WAT     H286244   3.649   6.828   0.513
28668WAT      O86245   0.717   7.220   4.244
28668WAT     H186246   0.688   7.129   4.274
28668WAT     H286247   0.642   7.264   4.195
28669WAT      O86248   0.566   0.745   3.086
28669WAT     H186249   0.630   0.807   3.131
28669WAT     H286250   0.529   0.788   3.003
28670WAT      O86251   0.173   2.119   8.067
28670WAT     H186252   0.189   2.175   7.986
28670WAT     H286253   0.080   2.081   8.064
28671WAT      O86254   2.979   9.542   1.292
28671WAT     H186255   2.941   9.466   1.344
28671WAT     H286256   2.955   9.532   1.195
28672WAT      O86257   5.702   8.082   8.461
28672WAT     H186258   5.691   8.125   8.372
28672WAT     H286259   5.623   8.024   8.480
28673WAT      O86260   2.111   2.385   0.997
28673WAT     H186261   2.128   2.459   0.932
28673WAT     H286262   2.138   2.298   0.956
28674WAT      O86263   0.545   4.903   2.595
28674WAT     H186264   0.579   4.997   2.597
28674WAT     H286265   0.480   4.893   2.519
28675WAT      O86266   1.616   8.701   0.253
28675WAT     H186267   1.540   8.755   0.216
28675WAT     H286268   1.698   8.718   0.199
28676WAT      O86269   6.045   7.570   2.410
28676WAT     H186270   6.090   7.605   2.328
28676WAT     H286271   6.103   7.590   2.490
28677WAT      O86272   8.463   5.289   4.631
28677WAT     H186273   8.444   5.254   4.540
28677WAT     H286274   8.443   5.219   4.699
28678WAT      O86275   0.397   1.597   7.076
28678WAT     H186276   0.437   1.670   7.021
28678WAT     H286277   0.343   1.637   7.150
28679WAT      O86278   1.268   6.983   3.536
28679WAT     H186279   1.353   6.940   3.508
28679WAT     H286280   1.215   7.010   3.456
28680WAT      O86281   6.544   9.564   0.092
28680WAT     H186282   6.504   9.656   0.091
28680WAT     H286283   6.623   9.561   0.031
28681WAT      O86284   8.347   8.916   7.152
28681WAT     H186285   8.347   8.833   7.207
28681WAT     H286286   8.397   8.988   7.200
28682WAT      O86287   6.761   9.612   8.942
28682WAT     H186288   6.812   9.611   9.028
28682WAT     H286289   6.792   9.538   8.883
28683WAT      O86290   1.162   2.525   0.387
28683WAT     H186291   1.153   2.426   0.381
28683WAT     H286292   1.097   2.569   0.325
28684WAT      O86293   1.735   7.769   7.186
28684WAT     H186294   1.719   7.715   7.104
28684WAT     H286295   1.833   7.775   7.203
28685WAT      O86296   6.648   1.285   7.316
28685WAT     H186297   6.609   1.359   7.260
28685WAT     H286298   6.745   1.277   7.297
28686WAT      O86299   5.146   6.001   4.487
28686WAT     H186300   5.066   6.037   4.439
28686WAT     H286301   5.117   5.937   4.558
28687WAT      O86302  -0.001   8.215   1.675
28687WAT     H186303   0.029   8.125   1.642
28687WAT     H286304   0.022   8.224   1.772
28688WAT      O86305   9.184   0.243   0.931
28688WAT     H186306   9.101   0.192   0.954
28688WAT     H286307   9.224   0.282   1.014
28689WAT      O86308   4.343   7.653   2.766
28689WAT     H186309   4.293   7.706   2.835
28689WAT     H286310   4.306   7.674   2.676
28690WAT      O86311   4.350   1.802   2.764
28690WAT     H186312   4.385   1.741   2.835
28690WAT     H286313   4.278   1.755   2.713
28691WAT      O86314   1.349   5.464   7.458
28691WAT     H186315   1.324   5.561   7.459
28691WAT     H286316   1.294   5.416   7.390
28692WAT      O86317   9.244   1.724   0.184
28692WAT     H186318   9.192   1.807   0.166
28692WAT     H286319   9.260   1.714   0.282
28693WAT      O86320   1.165   7.158   4.054
28693WAT     H186321   1.159   7.108   3.968
28693WAT     H286322   1.209   7.246   4.040
28694WAT      O86323   5.187   4.313   0.902
28694WAT     H186324   5.102   4.346   0.944
28694WAT     H286325   5.191   4.213   0.909
28695WAT      O86326   0.657   0.585   6.964
28695WAT     H186327   0.754   0.576   6.984
28695WAT     H286328   0.614   0.494   6.966
28696WAT      O86329   3.745   8.105   0.944
28696WAT     H186330   3.672   8.120   0.877
28696WAT     H286331   3.767   8.008   0.947
28697WAT      O86332   1.027   7.674   4.681
28697WAT     H186333   1.002   7.761   4.640
28697WAT     H286334   0.947   7.613   4.682
28698WAT      O86335   6.477   7.524   3.562
28698WAT     H186336   6.436   7.542   3.473
28698WAT     H286337   6.412   7.549   3.634
28699WAT      O86338   1.505   6.024   1.264
28699WAT     H186339   1.604   6.027   1.252
28699WAT     H286340   1.461   6.013   1.175
28700WAT      O86341   2.447   4.121   2.443
28700WAT     H186342   2.481   4.039   2.397
28700WAT     H286343   2.444   4.104   2.542
28701WAT      O86344   7.710   3.031   8.038
28701WAT     H186345   7.616   3.061   8.053
28701WAT     H286346   7.760   3.101   7.986
28702WAT      O86347   0.866   0.005   3.979
28702WAT     H186348   0.842  -0.006   4.075
28702WAT     H286349   0.797  -0.040   3.922
28703WAT      O86350   3.328   9.247   6.047
28703WAT     H186351   3.252   9.309   6.024
28703WAT     H286352   3.401   9.258   5.980
28704WAT      O86353   9.304   6.417   7.798
28704WAT     H186354   9.391   6.455   7.830
28704WAT     H286355   9.289   6.329   7.843
28705WAT      O86356   6.798   3.732   9.025
28705WAT     H186357   6.799   3.816   9.080
28705WAT     H286358   6.804   3.755   8.928
28706WAT      O86359   1.047   3.027   3.865
28706WAT     H186360   0.947   3.020   3.857
28706WAT     H286361   1.075   3.004   3.958
28707WAT      O86362   3.883   1.257   3.060
28707WAT     H186363   3.958   1.287   3.002
28707WAT     H286364   3.875   1.318   3.139
28708WAT      O86365   4.654   0.110   7.834
28708WAT     H186366   4.725   0.115   7.764
28708WAT     H286367   4.565   0.125   7.792
28709WAT      O86368   9.480   5.633   2.835
28709WAT     H186369   9.517   5.662   2.746
28709WAT     H286370   9.382   5.651   2.837
28710WAT      O86371   4.374   1.659   1.129
28710WAT     H186372   4.350   1.720   1.053
28710WAT     H286373   4.473   1.651   1.134
28711WAT      O86374   4.919   0.299   8.662
28711WAT     H186375   4.991   0.358   8.626
28711WAT     H286376   4.874   0.344   8.739
28712WAT      O86377   4.217   1.450   3.962
28712WAT     H186378   4.302   1.503   3.960
28712WAT     H286379   4.150   1.492   3.901
28713WAT      O86380   7.747   4.177   5.108
28713WAT     H186381   7.761   4.104   5.042
28713WAT     H286382   7.696   4.142   5.186
28714WAT      O86383   6.800   1.963   4.401
28714WAT     H186384   6.786   2.055   4.438
28714WAT     H286385   6.714   1.912   4.406
28715WAT      O86386   3.782   3.828   9.067
28715WAT     H186387   3.857   3.864   9.011
28715WAT     H286388   3.713   3.899   9.080
28716WAT      O86389   2.973   3.318   0.617
28716WAT     H186390   2.921   3.396   0.583
28716WAT     H286391   3.018   3.343   0.703
28717WAT      O86392   7.299   8.031   7.526
28717WAT     H186393   7.289   8.010   7.428
28717WAT     H286394   7.217   8.079   7.558
28718WAT      O86395   5.712   8.704   6.357
28718WAT     H186396   5.643   8.636   6.385
28718WAT     H286397   5.667   8.781   6.312
28719WAT      O86398   2.564   9.682   3.479
28719WAT     H186399   2.645   9.712   3.529
28719WAT     H286400   2.560   9.728   3.391
28720WAT      O86401   6.789   0.121   2.252
28720WAT     H186402   6.733   0.133   2.334
28720WAT     H286403   6.789   0.206   2.199
28721WAT      O86404   4.186   8.142   4.388
28721WAT     H186405   4.191   8.149   4.288
28721WAT     H286406   4.236   8.061   4.418
28722WAT      O86407   8.750   6.157   4.738
28722WAT     H186408   8.799   6.243   4.720
28722WAT     H286409   8.663   6.157   4.688
28723WAT      O86410   5.881   8.307   1.863
28723WAT     H186411   5.852   8.251   1.785
28723WAT     H286412   5.801   8.349   1.905
28724WAT      O86413   2.347   8.385   0.533
28724WAT     H186414   2.281   8.371   0.607
28724WAT     H286415   2.393   8.298   0.513
28725WAT      O86416   8.540   8.722   8.057
28725WAT     H186417   8.591   8.808   8.057
28725WAT     H286418   8.460   8.730   7.998
28726WAT      O86419   2.443   4.875   3.779
28726WAT     H186420   2.461   4.787   3.823
28726WAT     H286421   2.449   4.864   3.680
28727WAT      O86422   8.358   5.276   9.584
28727WAT     H186423   8.455   5.258   9.599
28727WAT     H286424   8.341   5.289   9.487
28728WAT      O86425   5.542   3.202   7.147
28728WAT     H186426   5.532   3.184   7.245
28728WAT     H286427   5.596   3.129   7.105
28729WAT      O86428   8.135   1.384   2.096
28729WAT     H186429   8.064   1.445   2.130
28729WAT     H286430   8.121   1.292   2.135
28730WAT      O86431   0.220   4.510   3.117
28730WAT     H186432   0.125   4.533   3.137
28730WAT     H286433   0.224   4.420   3.073
28731WAT      O86434   0.802   9.112   7.835
28731WAT     H186435   0.897   9.109   7.802
28731WAT     H286436   0.792   9.184   7.903
28732WAT      O86437   2.913   0.327   8.283
28732WAT     H186438   2.920   0.228   8.296
28732WAT     H286439   2.995   0.371   8.319
28733WAT      O86440   7.562   1.505   9.223
28733WAT     H186441   7.556   1.573   9.151
28733WAT     H286442   7.580   1.550   9.310
28734WAT      O86443   5.346   0.835   9.261
28734WAT     H186444   5.357   0.736   9.248
28734WAT     H286445   5.423   0.883   9.220
28735WAT      O86446   8.887   9.476   2.390
28735WAT     H186447   8.795   9.508   2.413
28735WAT     H286448   8.931   9.438   2.471
28736WAT      O86449   9.589   7.852   4.423
28736WAT     H186450   9.564   7.934   4.370
28736WAT     H286451   9.510   7.791   4.428
28737WAT      O86452   7.715   4.072   5.559
28737WAT     H186453   7.796   4.119   5.523
28737WAT     H286454   7.743   4.011   5.634
28738WAT      O86455   7.725   9.052   2.190
28738WAT     H186456   7.640   9.020   2.231
28738WAT     H286457   7.712   9.064   2.091
28739WAT      O86458   9.490   1.242   2.014
28739WAT     H186459   9.520   1.153   2.048
28739WAT     H286460   9.499   1.243   1.914
28740WAT      O86461   3.530   9.013   0.155
28740WAT     H186462   3.492   8.938   0.101
28740WAT     H286463   3.459   9.081   0.172
28741WAT      O86464   0.397   6.065   4.155
28741WAT     H186465   0.462   6.141   4.153
28741WAT     H286466   0.305   6.100   4.142
28742WAT      O86467   3.745   8.422   1.077
28742WAT     H186468   3.801   8.342   1.056
28742WAT     H286469   3.652   8.407   1.043
28743WAT      O86470   4.547   6.367   3.122
28743WAT     H186471   4.553   6.364   3.222
28743WAT     H286472   4.542   6.463   3.093
28744WAT      O86473   3.798   3.963   6.038
28744WAT     H186474   3.799   3.868   6.070
28744WAT     H286475   3.709   3.984   5.998
28745WAT      O86476   3.671   4.590   1.635
28745WAT     H186477   3.709   4.519   1.695
28745WAT     H286478   3.666   4.555   1.541
28746WAT      O86479   8.897   2.999   8.581
28746WAT     H186480   8.932   3.041   8.664
28746WAT     H286481   8.969   2.995   8.512
28747WAT      O86482   7.897   6.314   5.130
28747WAT     H186483   7.878   6.401   5.085
28747WAT     H286484   7.986   6.279   5.100
28748WAT      O86485   4.661   8.899   8.331
28748WAT     H186486   4.655   8.965   8.405
28748WAT     H286487   4.652   8.806   8.367
28749WAT      O86488   5.606   7.280   6.175
28749WAT     H186489   5.568   7.188   6.181
28749WAT     H286490   5.706   7.274   6.164
28750WAT      O86491   2.436   4.009   2.963
28750WAT     H186492   2.399   3.920   2.988
28750WAT     H286493   2.374   4.081   2.996
28751WAT      O86494   1.288   5.091   9.752
28751WAT     H186495   1.239   5.014   9.793
28751WAT     H286496   1.225   5.167   9.737
28752WAT      O86497   3.928   3.734   6.383
28752WAT     H186498   3.883   3.778   6.462
28752WAT     H286499   4.026   3.754   6.386
28753WAT      O86500   3.683   8.031   2.707
28753WAT     H186501   3.710   8.108   2.650
28753WAT     H286502   3.757   7.963   2.708
28754WAT      O86503   1.051   0.312   6.275
28754WAT     H186504   1.045   0.333   6.177
28754WAT     H286505   1.062   0.213   6.287
28755WAT      O86506   9.063   8.440   1.665
28755WAT     H186507   9.037   8.534   1.641
28755WAT     H286508   9.043   8.379   1.588
28756WAT      O86509   2.003   3.128   4.596
28756WAT     H186510   1.944   3.151   4.673
28756WAT     H286511   2.035   3.033   4.605
28757WAT      O86512   9.026   4.445   9.171
28757WAT     H186513   9.033   4.363   9.114
28757WAT     H286514   9.033   4.527   9.114
28758WAT      O86515   3.034   0.512   3.062
28758WAT     H186516   3.079   0.423   3.068
28758WAT     H286517   3.064   0.570   3.137
28759WAT      O86518   4.409   2.899   3.106
28759WAT     H186519   4.347   2.827   3.138
28759WAT     H286520   4.390   2.917   3.009
28760WAT      O86521   4.644   0.226   3.951
28760WAT     H186522   4.720   0.162   3.958
28760WAT     H286523   4.559   0.180   3.974
28761WAT      O86524   6.278   5.416   9.351
28761WAT     H186525   6.365   5.369   9.338
28761WAT     H286526   6.255   5.468   9.268
28762WAT      O86527   8.068   3.537   7.923
28762WAT     H186528   8.041   3.624   7.965
28762WAT     H286529   8.048   3.462   7.986
28763WAT      O86530   8.060   3.073   9.287
28763WAT     H186531   7.965   3.098   9.306
28763WAT     H286532   8.082   2.988   9.335
28764WAT      O86533   2.025   9.070   3.494
28764WAT     H186534   2.037   9.165   3.465
28764WAT     H286535   1.929   9.045   3.485
28765WAT      O86536   4.457   1.897   3.316
28765WAT     H186537   4.492   1.924   3.226
28765WAT     H286538   4.491   1.805   3.339
28766WAT      O86539   5.731   8.952   5.735
28766WAT     H186540   5.729   9.041   5.688
28766WAT     H286541   5.765   8.882   5.672
28767WAT      O86542   3.363   5.937   6.886
28767WAT     H186543   3.423   5.950   6.965
28767WAT     H286544   3.362   6.019   6.830
28768WAT      O86545   7.321   2.675   4.299
28768WAT     H186546   7.393   2.610   4.324
28768WAT     H286547   7.278   2.710   4.383
28769WAT      O86548   5.966   5.663   9.080
28769WAT     H186549   5.879   5.702   9.051
28769WAT     H286550   5.958   5.633   9.176
28770WAT      O86551   6.422   7.963   8.503
28770WAT     H186552   6.507   7.958   8.556
28770WAT     H286553   6.347   7.922   8.557
28771WAT      O86554   0.095   0.887   0.568
28771WAT     H186555   0.139   0.975   0.549
28771WAT     H286556   0.004   0.885   0.525
28772WAT      O86557   0.799   4.615   2.805
28772WAT     H186558   0.847   4.553   2.742
28772WAT     H286559   0.840   4.706   2.800
28773WAT      O86560   9.804   6.717   0.984
28773WAT     H186561   9.714   6.682   0.958
28773WAT     H286562   9.854   6.647   1.034
28774WAT      O86563   7.461   0.909   9.541
28774WAT     H186564   7.417   0.866   9.462
28774WAT     H286565   7.392   0.937   9.607
28775WAT      O86566   8.474   2.090   6.722
28775WAT     H186567   8.510   2.016   6.665
28775WAT     H286568   8.513   2.082   6.814
28776WAT      O86569   2.420   4.685   3.979
28776WAT     H186570   2.375   4.757   4.033
28776WAT     H286571   2.501   4.653   4.028
28777WAT      O86572   9.862   0.167   2.038
28777WAT     H186573   9.891   0.222   1.960
28777WAT     H286574   9.814   0.225   2.104
28778WAT      O86575   6.592   6.541   2.047
28778WAT     H186576   6.589   6.555   1.948
28778WAT     H286577   6.573   6.445   2.068
28779WAT      O86578   6.086   9.470   7.096
28779WAT     H186579   6.177   9.507   7.073
28779WAT     H286580   6.085   9.442   7.192
28780WAT      O86581   2.720   1.365   1.632
28780WAT     H186582   2.740   1.287   1.692
28780WAT     H286583   2.623   1.388   1.639
28781WAT      O86584   8.946   4.795   4.364
28781WAT     H186585   8.956   4.725   4.293
28781WAT     H286586   8.939   4.750   4.453
28782WAT      O86587   8.333   8.974   3.192
28782WAT     H186588   8.387   8.899   3.154
28782WAT     H286589   8.369   9.061   3.157
28783WAT      O86590   8.777   0.215   4.434
28783WAT     H186591   8.787   0.116   4.445
28783WAT     H286592   8.796   0.240   4.339
28784WAT      O86593   3.445   7.082   4.796
28784WAT     H186594   3.410   7.122   4.711
28784WAT     H286595   3.475   7.155   4.857
28785WAT      O86596   9.731   5.521   7.546
28785WAT     H186597   9.803   5.454   7.526
28785WAT     H286598   9.728   5.538   7.644
28786WAT      O86599   8.232   8.664   4.982
28786WAT     H186600   8.221   8.573   5.023
28786WAT     H286601   8.278   8.654   4.894
28787WAT      O86602   2.481   5.147   7.780
28787WAT     H186603   2.467   5.235   7.825
28787WAT     H286604   2.414   5.136   7.706
28788WAT      O86605   0.283   2.717   7.115
28788WAT     H186606   0.324   2.650   7.177
28788WAT     H286607   0.208   2.764   7.162
28789WAT      O86608   2.146   5.404   5.099
28789WAT     H186609   2.079   5.330   5.101
28789WAT     H286610   2.136   5.455   5.013
28790WAT      O86611   6.894   5.352   3.467
28790WAT     H186612   6.877   5.450   3.474
28790WAT     H286613   6.835   5.303   3.531
28791WAT      O86614   9.360   6.286   4.219
28791WAT     H186615   9.448   6.248   4.189
28791WAT     H286616   9.286   6.233   4.178
28792WAT      O86617   1.324   9.224   3.657
28792WAT     H186618   1.265   9.276   3.719
28792WAT     H286619   1.390   9.285   3.614
28793WAT      O86620   0.375   1.264   3.831
28793WAT     H186621   0.451   1.300   3.886
28793WAT     H286622   0.406   1.249   3.737
28794WAT      O86623   2.665   0.077   1.761
28794WAT     H186624   2.710   0.004   1.812
28794WAT     H286625   2.732   0.126   1.706
28795WAT      O86626   4.805   2.853   9.376
28795WAT     H186627   4.784   2.768   9.326
28795WAT     H286628   4.754   2.929   9.336
28796WAT      O86629   3.391   3.512   7.883
28796WAT     H186630   3.370   3.565   7.801
28796WAT     H286631   3.443   3.568   7.947
28797WAT      O86632   6.136   2.895   7.262
28797WAT     H186633   6.115   2.988   7.230
28797WAT     H286634   6.146   2.834   7.184
28798WAT      O86635   1.992   6.206   2.451
28798WAT     H186636   1.893   6.193   2.461
28798WAT     H286637   2.025   6.149   2.375
28799WAT      O86638   5.072   3.336   8.042
28799WAT     H186639   5.000   3.358   8.108
28799WAT     H286640   5.119   3.253   8.071
28800WAT      O86641   3.733   5.053   2.437
28800WAT     H186642   3.701   4.975   2.384
28800WAT     H286643   3.833   5.057   2.432
28801WAT      O86644   4.115   6.531   4.205
28801WAT     H186645   4.174   6.610   4.221
28801WAT     H286646   4.146   6.482   4.123
28802WAT      O86647   9.146   8.085   4.436
28802WAT     H186648   9.194   8.162   4.395
28802WAT     H286649   9.212   8.020   4.472
28803WAT      O86650   9.771   4.928   4.379
28803WAT     H186651   9.788   4.831   4.397
28803WAT     H286652   9.709   4.937   4.301
28804WAT      O86653   3.808   4.717   7.121
28804WAT     H186654   3.739   4.779   7.082
28804WAT     H286655   3.898   4.760   7.118
28805WAT      O86656   0.180   5.907   5.008
28805WAT     H186657   0.154   5.983   5.067
28805WAT     H286658   0.113   5.898   4.934
28806WAT      O86659   8.870   7.935   8.112
28806WAT     H186660   8.788   7.978   8.074
28806WAT     H286661   8.947   7.951   8.051
28807WAT      O86662   9.879   7.361   4.968
28807WAT     H186663   9.783   7.343   4.991
28807WAT     H286664   9.883   7.438   4.904
28808WAT      O86665   0.304   8.613   0.095
28808WAT     H186666   0.219   8.570   0.126
28808WAT     H286667   0.282   8.682   0.026
28809WAT      O86668   0.985   0.772   0.032
28809WAT     H186669   0.909   0.722  -0.010
28809WAT     H286670   1.020   0.719   0.110
28810WAT      O86671   5.025   9.584   7.751
28810WAT     H186672   5.031   9.513   7.822
28810WAT     H286673   5.007   9.672   7.794
28811WAT      O86674   0.599   7.553   1.728
28811WAT     H186675   0.658   7.530   1.651
28811WAT     H286676   0.644   7.622   1.785
28812WAT      O86677   5.766   7.261   4.573
28812WAT     H186678   5.732   7.323   4.502
28812WAT     H286679   5.848   7.300   4.615
28813WAT      O86680   1.952   6.528   5.001
28813WAT     H186681   1.859   6.542   5.035
28813WAT     H286682   2.011   6.497   5.077
28814WAT      O86683   2.744   8.943   3.904
28814WAT     H186684   2.687   8.971   3.827
28814WAT     H286685   2.738   9.013   3.976
28815WAT      O86686   2.353   7.352   0.637
28815WAT     H186687   2.433   7.292   0.645
28815WAT     H286688   2.324   7.381   0.728
28816WAT      O86689   2.552   4.389   2.922
28816WAT     H186690   2.549   4.488   2.913
28816WAT     H286691   2.491   4.347   2.855
28817WAT      O86692   8.532   2.997   5.501
28817WAT     H186693   8.440   2.976   5.535
28817WAT     H286694   8.538   2.971   5.405
28818WAT      O86695   6.283   1.797   0.557
28818WAT     H186696   6.255   1.795   0.653
28818WAT     H286697   6.380   1.823   0.552
28819WAT      O86698   1.593   1.369   9.317
28819WAT     H186699   1.527   1.304   9.281
28819WAT     H286700   1.569   1.461   9.287
28820WAT      O86701   2.426   5.919   8.807
28820WAT     H186702   2.395   5.854   8.738
28820WAT     H286703   2.350   5.975   8.837
28821WAT      O86704   8.466   4.642   0.326
28821WAT     H186705   8.433   4.570   0.266
28821WAT     H286706   8.482   4.725   0.272
28822WAT      O86707   2.671   1.753   8.505
28822WAT     H186708   2.612   1.792   8.576
28822WAT     H286709   2.686   1.821   8.433
28823WAT      O86710   9.075   5.815   1.770
28823WAT     H186711   9.093   5.914   1.772
28823WAT     H286712   9.104   5.774   1.856
28824WAT      O86713   5.468   4.011   3.313
28824WAT     H186714   5.475   3.930   3.371
28824WAT     H286715   5.372   4.034   3.299
28825WAT      O86716   5.728   1.414   1.247
28825WAT     H186717   5.636   1.448   1.268
28825WAT     H286718   5.789   1.433   1.325
28826WAT      O86719   1.789   7.085   0.913
28826WAT     H186720   1.808   7.140   0.994
28826WAT     H286721   1.725   7.134   0.854
28827WAT      O86722   3.642   2.484   3.501
28827WAT     H186723   3.625   2.501   3.598
28827WAT     H286724   3.647   2.386   3.484
28828WAT      O86725   3.317   3.251   7.885
28828WAT     H186726   3.339   3.220   7.978
28828WAT     H286727   3.345   3.346   7.874
28829WAT      O86728   8.165   2.277   6.148
28829WAT     H186729   8.257   2.239   6.156
28829WAT     H286730   8.120   2.240   6.067
28830WAT      O86731   0.794   0.758   1.794
28830WAT     H186732   0.825   0.852   1.805
28830WAT     H286733   0.850   0.698   1.852
28831WAT      O86734   3.052   3.556   2.713
28831WAT     H186735   3.014   3.647   2.697
28831WAT     H286736   2.977   3.490   2.720
28832WAT      O86737   4.703   3.601   4.821
28832WAT     H186738   4.785   3.577   4.874
28832WAT     H286739   4.645   3.519   4.811
28833WAT      O86740   9.609   7.282   1.648
28833WAT     H186741   9.647   7.190   1.642
28833WAT     H286742   9.682   7.347   1.666
28834WAT      O86743   5.873   6.213   5.065
28834WAT     H186744   5.965   6.186   5.037
28834WAT     H286745   5.848   6.164   5.148
28835WAT      O86746   6.438   3.808   9.146
28835WAT     H186747   6.495   3.726   9.140
28835WAT     H286748   6.451   3.851   9.235
28836WAT      O86749   7.093   9.457   6.805
28836WAT     H186750   7.023   9.445   6.735
28836WAT     H286751   7.092   9.551   6.837
28837WAT      O86752   8.041   8.965   5.801
28837WAT     H186753   7.950   9.006   5.789
28837WAT     H286754   8.087   9.008   5.879
28838WAT      O86755   9.702   2.636   7.232
28838WAT     H186756   9.743   2.657   7.321
28838WAT     H286757   9.743   2.696   7.162
28839WAT      O86758   0.562   7.104   2.672
28839WAT     H186759   0.519   7.182   2.718
28839WAT     H286760   0.493   7.034   2.652
28840WAT      O86761   8.254   6.641   1.675
28840WAT     H186762   8.261   6.544   1.700
28840WAT     H286763   8.228   6.694   1.755
28841WAT      O86764   8.020   9.603   7.331
28841WAT     H186765   7.955   9.527   7.324
28841WAT     H286766   8.102   9.582   7.279
28842WAT      O86767   9.143   2.769   7.938
28842WAT     H186768   9.195   2.764   7.853
28842WAT     H286769   9.179   2.844   7.995
28843WAT      O86770   1.058   3.335   8.860
28843WAT     H186771   1.092   3.333   8.954
28843WAT     H286772   0.972   3.284   8.854
28844WAT      O86773   1.448   5.113   8.282
28844WAT     H186774   1.427   5.078   8.374
28844WAT     H286775   1.414   5.050   8.213
28845WAT      O86776   9.704   1.288   8.192
28845WAT     H186777   9.791   1.287   8.242
28845WAT     H286778   9.629   1.272   8.256
28846WAT      O86779   2.869   7.451   4.279
28846WAT     H186780   2.919   7.503   4.210
28846WAT     H286781   2.873   7.353   4.257
28847WAT      O86782   0.858   2.755   9.741
28847WAT     H186783   0.759   2.745   9.736
28847WAT     H286784   0.886   2.770   9.836
28848WAT      O86785   5.960   2.236   2.578
28848WAT     H186786   5.968   2.324   2.531
28848WAT     H286787   5.944   2.163   2.511
28849WAT      O86788   2.210   4.177   1.094
28849WAT     H186789   2.270   4.215   1.023
28849WAT     H286790   2.138   4.122   1.051
28850WAT      O86791   1.982   9.644   3.127
28850WAT     H186792   1.945   9.692   3.048
28850WAT     H286793   2.081   9.633   3.116
28851WAT      O86794   7.347   7.082   3.928
28851WAT     H186795   7.316   6.989   3.946
28851WAT     H286796   7.401   7.115   4.005
28852WAT      O86797   1.638   0.682   4.826
28852WAT     H186798   1.550   0.649   4.791
28852WAT     H286799   1.624   0.735   4.910
28853WAT      O86800   0.557   6.627   8.158
28853WAT     H186801   0.521   6.688   8.088
28853WAT     H286802   0.626   6.567   8.118
28854WAT      O86803   9.019   0.073   0.257
28854WAT     H186804   8.953   0.090   0.184
28854WAT     H286805   9.086   0.147   0.258
28855WAT      O86806   0.248   4.538   8.050
28855WAT     H186807   0.190   4.491   8.117
28855WAT     H286808   0.248   4.487   7.964
28856WAT      O86809   7.843   0.931   9.298
28856WAT     H186810   7.769   0.949   9.234
28856WAT     H286811   7.852   0.832   9.312
28857WAT      O86812   6.787   9.140   5.490
28857WAT     H186813   6.768   9.079   5.414
28857WAT     H286814   6.787   9.235   5.458
28858WAT      O86815   4.168   5.725   4.695
28858WAT     H186816   4.198   5.819   4.710
28858WAT     H286817   4.218   5.664   4.756
28859WAT      O86818   8.957   1.385   6.330
28859WAT     H186819   8.909   1.323   6.392
28859WAT     H286820   9.020   1.442   6.383
28860WAT      O86821   8.912   1.393   7.465
28860WAT     H186822   8.887   1.481   7.505
28860WAT     H286823   8.843   1.367   7.397
28861WAT      O86824   5.287   7.542   8.712
28861WAT     H186825   5.228   7.498   8.644
28861WAT     H286826   5.252   7.524   8.804
28862WAT      O86827   8.427   3.481   5.901
28862WAT     H186828   8.410   3.425   5.820
28862WAT     H286829   8.485   3.559   5.877
28863WAT      O86830   2.025   6.729   2.972
28863WAT     H186831   2.011   6.790   2.895
28863WAT     H286832   1.992   6.638   2.949
28864WAT      O86833   5.190   4.413   1.217
28864WAT     H186834   5.140   4.456   1.141
28864WAT     H286835   5.132   4.414   1.298
28865WAT      O86836   0.977   4.436   5.922
28865WAT     H186837   0.997   4.412   5.827
28865WAT     H286838   0.937   4.357   5.969
28866WAT      O86839   4.834   9.266   0.566
28866WAT     H186840   4.815   9.169   0.583
28866WAT     H286841   4.747   9.316   0.560
28867WAT      O86842   0.009   9.155   2.151
28867WAT     H186843  -0.024   9.111   2.068
28867WAT     H286844  -0.055   9.140   2.225
28868WAT      O86845   2.413   1.621   5.546
28868WAT     H186846   2.320   1.616   5.582
28868WAT     H286847   2.467   1.685   5.601
28869WAT      O86848   0.127   2.118   6.346
28869WAT     H186849   0.130   2.141   6.248
28869WAT     H286850   0.033   2.097   6.373
28870WAT      O86851   1.814   3.162   6.002
28870WAT     H186852   1.805   3.202   5.911
28870WAT     H286853   1.909   3.140   6.020
28871WAT      O86854   4.212   3.828   9.688
28871WAT     H186855   4.175   3.761   9.752
28871WAT     H286856   4.234   3.912   9.737
28872WAT      O86857   5.725   8.312   7.436
28872WAT     H186858   5.672   8.266   7.508
28872WAT     H286859   5.732   8.252   7.357
28873WAT      O86860   9.876   1.735   8.987
28873WAT     H186861   9.840   1.710   8.897
28873WAT     H286862   9.973   1.712   8.991
28874WAT      O86863   2.132   3.388   4.243
28874WAT     H186864   2.050   3.353   4.289
28874WAT     H286865   2.188   3.438   4.309
28875WAT      O86866   6.594   6.976   0.649
28875WAT     H186867   6.497   6.985   0.625
28875WAT     H286868   6.646   6.945   0.569
28876WAT      O86869   8.036   6.068   1.691
28876WAT     H186870   8.021   6.167   1.688
28876WAT     H286871   8.132   6.049   1.706
28877WAT      O86872   9.547   2.136   1.752
28877WAT     H186873   9.593   2.094   1.674
28877WAT     H286874   9.453   2.159   1.727
28878WAT      O86875   0.323   1.418   4.702
28878WAT     H186876   0.321   1.370   4.615
28878WAT     H286877   0.237   1.402   4.751
28879WAT      O86878   6.526   4.452   4.429
28879WAT     H186879   6.454   4.501   4.478
28879WAT     H286880   6.531   4.358   4.461
28880WAT      O86881   1.141   2.930   6.758
28880WAT     H186882   1.193   3.014   6.742
28880WAT     H286883   1.067   2.924   6.691
28881WAT      O86884   7.657   3.755   6.910
28881WAT     H186885   7.576   3.711   6.872
28881WAT     H286886   7.721   3.685   6.942
28882WAT      O86887   1.871   2.188   1.889
28882WAT     H186888   1.962   2.223   1.867
28882WAT     H286889   1.873   2.088   1.891
28883WAT      O86890   8.950   9.639   0.218
28883WAT     H186891   8.929   9.630   0.316
28883WAT     H286892   8.962   9.736   0.195
28884WAT      O86893   8.730   6.084   2.162
28884WAT     H186894   8.690   6.135   2.238
28884WAT     H286895   8.821   6.118   2.143
28885WAT      O86896   4.456   4.077   9.420
28885WAT     H186897   4.376   4.021   9.443
28885WAT     H286898   4.501   4.107   9.505
28886WAT      O86899   3.362   5.137   8.147
28886WAT     H186900   3.425   5.080   8.200
28886WAT     H286901   3.329   5.087   8.067
28887WAT      O86902   5.119   8.926   8.929
28887WAT     H186903   5.199   8.889   8.977
28887WAT     H286904   5.080   9.001   8.982
28888WAT      O86905   4.268   1.741   3.071
28888WAT     H186906   4.356   1.721   3.112
28888WAT     H286907   4.211   1.658   3.071
28889WAT      O86908   4.736   5.075   2.965
28889WAT     H186909   4.730   5.147   2.896
28889WAT     H286910   4.736   4.986   2.921
28890WAT      O86911   7.885   4.879   1.124
28890WAT     H186912   7.915   4.948   1.057
28890WAT     H286913   7.841   4.803   1.076
28891WAT      O86914   1.432   3.852   5.036
28891WAT     H186915   1.512   3.819   5.087
28891WAT     H286916   1.444   3.834   4.939
28892WAT      O86917   6.034   3.889   4.848
28892WAT     H186918   6.131   3.870   4.835
28892WAT     H286919   6.007   3.864   4.941
28893WAT      O86920   0.692   0.917   2.040
28893WAT     H186921   0.720   0.855   2.113
28893WAT     H286922   0.772   0.949   1.990
28894WAT      O86923   7.442   5.152   4.629
28894WAT     H186924   7.509   5.174   4.700
28894WAT     H286925   7.371   5.223   4.627
28895WAT      O86926   2.999   2.137   9.784
28895WAT     H186927   3.039   2.108   9.871
28895WAT     H286928   3.032   2.076   9.711
28896WAT      O86929   4.316   5.798   1.378
28896WAT     H186930   4.298   5.700   1.382
28896WAT     H286931   4.393   5.815   1.316
28897WAT      O86932   8.375   5.406   5.048
28897WAT     H186933   8.355   5.503   5.061
28897WAT     H286934   8.473   5.394   5.029
28898WAT      O86935   2.904   7.957   5.445
28898WAT     H186936   2.849   8.036   5.418
28898WAT     H286937   2.889   7.882   5.380
28899WAT      O86938   5.726   2.670   1.999
28899WAT     H186939   5.792   2.727   1.950
28899WAT     H286940   5.634   2.709   1.986
28900WAT      O86941   4.918   7.795   0.995
28900WAT     H186942   4.994   7.731   1.007
28900WAT     H286943   4.940   7.860   0.922
28901WAT      O86944   4.000   0.646   5.064
28901WAT     H186945   4.057   0.623   4.984
28901WAT     H286946   4.013   0.742   5.086
28902WAT      O86947   5.387   8.668   8.311
28902WAT     H186948   5.372   8.569   8.316
28902WAT     H286949   5.388   8.706   8.404
28903WAT      O86950   2.861   0.417   5.956
28903WAT     H186951   2.906   0.340   5.910
28903WAT     H286952   2.887   0.417   6.053
28904WAT      O86953   5.187   2.753   4.259
28904WAT     H186954   5.242   2.787   4.183
28904WAT     H286955   5.107   2.812   4.270
28905WAT      O86956   7.213   1.044   0.920
28905WAT     H186957   7.158   1.119   0.955
28905WAT     H286958   7.286   1.022   0.986
28906WAT      O86959   2.819   9.605   4.198
28906WAT     H186960   2.763   9.688   4.189
28906WAT     H286961   2.916   9.630   4.197
28907WAT      O86962   1.832   4.037   4.674
28907WAT     H186963   1.802   4.070   4.584
28907WAT     H286964   1.758   4.050   4.740
28908WAT      O86965   8.020   1.464   0.974
28908WAT     H186966   7.986   1.385   0.923
28908WAT     H286967   8.023   1.543   0.913
28909WAT      O86968   8.968   0.751   9.351
28909WAT     H186969   8.912   0.812   9.407
28909WAT     H286970   8.911   0.708   9.281
28910WAT      O86971   4.148   7.379   6.006
28910WAT     H186972   4.064   7.434   6.006
28910WAT     H286973   4.227   7.439   6.011
28911WAT      O86974   3.680   1.102   9.735
28911WAT     H186975   3.744   1.082   9.809
28911WAT     H286976   3.598   1.045   9.745
28912WAT      O86977   9.808   8.633   1.618
28912WAT     H186978   9.740   8.706   1.610
28912WAT     H286979   9.873   8.639   1.542
28913WAT      O86980   5.970   7.833   2.061
28913WAT     H186981   5.984   7.919   2.111
28913WAT     H286982   5.997   7.846   1.966
28914WAT      O86983   5.641   1.156   6.520
28914WAT     H186984   5.609   1.067   6.487
28914WAT     H286985   5.741   1.160   6.512
28915WAT      O86986   5.795   9.549   2.419
28915WAT     H186987   5.841   9.637   2.403
28915WAT     H286988   5.705   9.565   2.459
28916WAT      O86989   8.657   2.780   4.247
28916WAT     H186990   8.746   2.743   4.275
28916WAT     H286991   8.622   2.838   4.321
28917WAT      O86992   8.355   1.781   6.835
28917WAT     H186993   8.281   1.820   6.889
28917WAT     H286994   8.348   1.682   6.834
28918WAT      O86995   3.099   4.422   9.465
28918WAT     H186996   3.193   4.390   9.479
28918WAT     H286997   3.099   4.520   9.445
28919WAT      O86998   3.078   2.673   0.637
28919WAT     H186999   3.107   2.645   0.545
28919WAT     H287000   3.000   2.616   0.665
28920WAT      O87001   5.286   1.089   8.390
28920WAT     H187002   5.187   1.086   8.390
28920WAT     H287003   5.318   1.153   8.320
28921WAT      O87004   3.125   3.568   0.012
28921WAT     H187005   3.070   3.563  -0.072
28921WAT     H287006   3.188   3.645   0.006
28922WAT      O87007   9.090   0.616   4.870
28922WAT     H187008   9.030   0.695   4.885
28922WAT     H287009   9.058   0.563   4.792
28923WAT      O87010   7.462   0.394   1.608
28923WAT     H187011   7.482   0.458   1.682
28923WAT     H287012   7.364   0.398   1.587
28924WAT      O87013   7.390   1.349   1.096
28924WAT     H187014   7.408   1.447   1.107
28924WAT     H287015   7.460   1.308   1.037
28925WAT      O87016   1.743   9.349   6.294
28925WAT     H187017   1.742   9.314   6.201
28925WAT     H287018   1.816   9.417   6.303
28926WAT      O87019   6.953   2.571   5.513
28926WAT     H187020   7.050   2.595   5.521
28926WAT     H287021   6.944   2.476   5.482
28927WAT      O87022   2.147   3.955   7.120
28927WAT     H187023   2.049   3.935   7.127
28927WAT     H287024   2.183   3.976   7.211
28928WAT      O87025   3.125   4.070   6.012
28928WAT     H187026   3.063   4.131   5.962
28928WAT     H287027   3.132   4.101   6.107
28929WAT      O87028   7.202   0.640   4.903
28929WAT     H187029   7.123   0.596   4.861
28929WAT     H287030   7.286   0.597   4.869
28930WAT      O87031   8.726   7.589   9.421
28930WAT     H187032   8.704   7.521   9.351
28930WAT     H287033   8.646   7.603   9.480
28931WAT      O87034   5.277   8.938   6.864
28931WAT     H187035   5.204   9.007   6.862
28931WAT     H287036   5.362   8.981   6.894
28932WAT      O87037   3.383   8.214   0.149
28932WAT     H187038   3.318   8.287   0.169
28932WAT     H287039   3.335   8.139   0.102
28933WAT      O87040   0.478   9.804   2.159
28933WAT     H187041   0.470   9.704   2.153
28933WAT     H287042   0.465   9.833   2.254
28934WAT      O87043   6.330   1.252   7.166
28934WAT     H187044   6.371   1.339   7.140
28934WAT     H287045   6.387   1.177   7.133
28935WAT      O87046   4.425   0.846   0.069
28935WAT     H187047   4.483   0.922   0.095
28935WAT     H287048   4.329   0.871   0.081
28936WAT      O87049   4.088   0.980   0.372
28936WAT     H187050   4.014   0.938   0.425
28936WAT     H287051   4.100   1.075   0.401
28937WAT      O87052   6.270   3.410   7.827
28937WAT     H187053   6.272   3.485   7.893
28937WAT     H287054   6.300   3.326   7.870
28938WAT      O87055   8.077   0.153   6.126
28938WAT     H187056   8.143   0.159   6.051
28938WAT     H287057   8.108   0.085   6.193
28939WAT      O87058   7.417   7.150   2.382
28939WAT     H187059   7.357   7.118   2.456
28939WAT     H287060   7.362   7.187   2.308
28940WAT      O87061   5.479   9.483   3.383
28940WAT     H187062   5.439   9.527   3.464
28940WAT     H287063   5.420   9.408   3.354
28941WAT      O87064   2.763   1.985   4.410
28941WAT     H187065   2.842   1.963   4.352
28941WAT     H287066   2.692   1.917   4.397
28942WAT      O87067   7.441   8.987   1.974
28942WAT     H187068   7.464   8.901   2.018
28942WAT     H287069   7.447   8.976   1.874
28943WAT      O87070   2.804   5.754   1.708
28943WAT     H187071   2.735   5.825   1.698
28943WAT     H287072   2.840   5.757   1.802
28944WAT      O87073   5.347   2.947   5.219
28944WAT     H187074   5.417   2.891   5.174
28944WAT     H287075   5.277   2.887   5.259
28945WAT      O87076   6.741   7.285   4.787
28945WAT     H187077   6.811   7.296   4.716
28945WAT     H287078   6.768   7.214   4.851
28946WAT      O87079   0.271   2.289   3.475
28946WAT     H187080   0.282   2.322   3.381
28946WAT     H287081   0.352   2.236   3.502
28947WAT      O87082   0.363   9.828   5.825
28947WAT     H187083   0.461   9.829   5.843
28947WAT     H287084   0.317   9.772   5.894
28948WAT      O87085   1.363   7.333   6.231
28948WAT     H187086   1.363   7.433   6.237
28948WAT     H287087   1.328   7.305   6.142
28949WAT      O87088   5.207   0.650   9.016
28949WAT     H187089   5.109   0.653   9.001
28949WAT     H287090   5.246   0.741   9.004
28950WAT      O87091   7.857   2.876   0.406
28950WAT     H187092   7.945   2.852   0.365
28950WAT     H287093   7.864   2.966   0.450
28951WAT      O87094   7.012   6.337   2.664
28951WAT     H187095   7.036   6.407   2.731
28951WAT     H287096   7.057   6.251   2.689
28952WAT      O87097   5.345   2.672   5.494
28952WAT     H187098   5.341   2.598   5.561
28952WAT     H287099   5.438   2.678   5.457
28953WAT      O87100   8.896   2.849   9.529
28953WAT     H187101   8.909   2.947   9.519
28953WAT     H287102   8.805   2.823   9.497
28954WAT      O87103   5.984   3.778   9.160
28954WAT     H187104   5.998   3.685   9.126
28954WAT     H287105   6.068   3.809   9.205
28955WAT      O87106   7.087   1.904   7.409
28955WAT     H187107   7.040   1.936   7.327
28955WAT     H287108   7.133   1.818   7.390
28956WAT      O87109   4.257   7.318   4.850
28956WAT     H187110   4.215   7.231   4.825
28956WAT     H287111   4.269   7.374   4.768
28957WAT      O87112   9.320   7.827   1.534
28957WAT     H187113   9.291   7.814   1.440
28957WAT     H287114   9.284   7.914   1.569
28958WAT      O87115   6.563   2.651   3.482
28958WAT     H187116   6.489   2.598   3.440
28958WAT     H287117   6.524   2.723   3.540
28959WAT      O87118   8.365   4.992   5.924
28959WAT     H187119   8.437   5.059   5.937
28959WAT     H287120   8.276   5.037   5.927
28960WAT      O87121   6.656   2.192   1.128
28960WAT     H187122   6.754   2.186   1.147
28960WAT     H287123   6.610   2.112   1.165
28961WAT      O87124   4.323   8.967   1.741
28961WAT     H187125   4.316   8.903   1.817
28961WAT     H287126   4.411   8.954   1.694
28962WAT      O87127   8.558   5.657   1.491
28962WAT     H187128   8.511   5.727   1.437
28962WAT     H287129   8.492   5.587   1.519
28963WAT      O87130   3.433   1.192   2.424
28963WAT     H187131   3.469   1.188   2.330
28963WAT     H287132   3.466   1.275   2.468
28964WAT      O87133   1.385   1.068   2.101
28964WAT     H187134   1.411   1.016   2.183
28964WAT     H287135   1.467   1.101   2.055
28965WAT      O87136   4.138   3.992   5.448
28965WAT     H187137   4.131   3.972   5.350
28965WAT     H287138   4.098   4.082   5.467
28966WAT      O87139   5.253   7.767   5.904
28966WAT     H187140   5.224   7.782   5.809
28966WAT     H287141   5.212   7.837   5.963
28967WAT      O87142   5.534   6.807   3.119
28967WAT     H187143   5.526   6.900   3.083
28967WAT     H287144   5.488   6.743   3.056
28968WAT      O87145   8.317   7.306   9.616
28968WAT     H187146   8.391   7.266   9.669
28968WAT     H287147   8.287   7.391   9.658
28969WAT      O87148   7.954   5.031   0.907
28969WAT     H187149   7.985   4.978   0.828
28969WAT     H287150   7.900   5.109   0.876
28970WAT      O87151   1.070   5.803   0.932
28970WAT     H187152   1.126   5.806   0.849
28970WAT     H287153   1.129   5.800   1.012
28971WAT      O87154   1.384   5.227   6.985
28971WAT     H187155   1.443   5.289   6.933
28971WAT     H287156   1.441   5.157   7.029
28972WAT      O87157   7.508   3.973   6.896
28972WAT     H187158   7.594   3.924   6.884
28972WAT     H287159   7.525   4.055   6.951
28973WAT      O87160   3.787   2.217   0.278
28973WAT     H187161   3.824   2.257   0.194
28973WAT     H287162   3.708   2.160   0.255
28974WAT      O87163   8.269   4.713   0.083
28974WAT     H187164   8.304   4.662   0.004
28974WAT     H287165   8.209   4.653   0.136
28975WAT      O87166   5.935   1.622   2.756
28975WAT     H187167   5.983   1.559   2.817
28975WAT     H287168   5.991   1.704   2.744
28976WAT      O87169   3.109   9.542   8.830
28976WAT     H187170   3.177   9.604   8.868
28976WAT     H287171   3.155   9.465   8.786
28977WAT      O87172   5.723   0.743   1.068
28977WAT     H187173   5.810   0.722   1.023
28977WAT     H287174   5.700   0.839   1.053
28978WAT      O87175   9.527   2.471   2.412
28978WAT     H187176   9.584   2.391   2.432
28978WAT     H287177   9.584   2.552   2.409
28979WAT      O87178   3.274   6.366   2.244
28979WAT     H187179   3.329   6.399   2.167
28979WAT     H287180   3.274   6.435   2.317
28980WAT      O87181   0.902   8.641   2.118
28980WAT     H187182   0.915   8.683   2.028
28980WAT     H287183   0.804   8.634   2.137
28981WAT      O87184   7.563   4.616   8.269
28981WAT     H187185   7.524   4.550   8.204
28981WAT     H287186   7.659   4.593   8.286
28982WAT      O87187   6.567   7.867   2.169
28982WAT     H187188   6.634   7.904   2.233
28982WAT     H287189   6.608   7.862   2.078
28983WAT      O87190   2.654   3.623   9.143
28983WAT     H187191   2.706   3.666   9.070
28983WAT     H287192   2.614   3.694   9.202
28984WAT      O87193   0.051   1.809   8.032
28984WAT     H187194   0.011   1.885   7.980
28984WAT     H287195   0.028   1.820   8.129
28985WAT      O87196   8.698   9.129   6.091
28985WAT     H187197   8.740   9.043   6.119
28985WAT     H287198   8.644   9.114   6.007
28986WAT      O87199   8.349   3.827   2.008
28986WAT     H187200   8.300   3.745   2.038
28986WAT     H287201   8.409   3.859   2.081
28987WAT      O87202   6.571   0.137   5.840
28987WAT     H187203   6.593   0.059   5.781
28987WAT     H287204   6.644   0.205   5.833
28988WAT      O87205   6.782   2.514   7.274
28988WAT     H187206   6.794   2.578   7.350
28988WAT     H287207   6.865   2.515   7.217
28989WAT      O87208   4.224   2.378   5.488
28989WAT     H187209   4.142   2.325   5.471
28989WAT     H287210   4.273   2.394   5.402
28990WAT      O87211   0.651   6.245   8.720
28990WAT     H187212   0.727   6.281   8.774
28990WAT     H287213   0.595   6.185   8.777
28991WAT      O87214   7.276   8.310   5.184
28991WAT     H187215   7.200   8.274   5.239
28991WAT     H287216   7.325   8.379   5.236
28992WAT      O87217   8.680   2.386   8.906
28992WAT     H187218   8.630   2.309   8.944
28992WAT     H287219   8.617   2.445   8.856
28993WAT      O87220   0.161   2.337   0.192
28993WAT     H187221   0.123   2.374   0.107
28993WAT     H287222   0.248   2.293   0.173
28994WAT      O87223   7.627   9.485   3.592
28994WAT     H187224   7.572   9.519   3.516
28994WAT     H287225   7.612   9.542   3.673
28995WAT      O87226   3.544   0.034   5.389
28995WAT     H187227   3.592   0.101   5.332
28995WAT     H287228   3.455   0.013   5.347
28996WAT      O87229   6.899   2.140   3.400
28996WAT     H187230   6.846   2.214   3.361
28996WAT     H287231   6.884   2.056   3.347
28997WAT      O87232   7.924   5.920   4.415
28997WAT     H187233   7.862   5.961   4.348
28997WAT     H287234   7.993   5.987   4.442
28998WAT      O87235   3.811   4.054   6.430
28998WAT     H187236   3.821   4.077   6.333
28998WAT     H287237   3.783   4.136   6.481
28999WAT      O87238   0.478   9.384   3.762
28999WAT     H187239   0.556   9.325   3.783
28999WAT     H287240   0.457   9.378   3.664
29000WAT      O87241   9.715   0.834   1.262
29000WAT     H187242   9.693   0.778   1.341
29000WAT     H287243   9.811   0.864   1.268
29001WAT      O87244   4.524   8.006   5.330
29001WAT     H187245   4.542   7.986   5.426
29001WAT     H287246   4.499   7.921   5.283
29002WAT      O87247   7.125   0.370   7.667
29002WAT     H187248   7.169   0.367   7.578
29002WAT     H287249   7.052   0.439   7.666
29003WAT      O87250   9.088   0.864   4.143
29003WAT     H187251   9.120   0.943   4.196
29003WAT     H287252   9.151   0.788   4.154
29004WAT      O87253   1.663   0.410   0.633
29004WAT     H187254   1.627   0.503   0.626
29004WAT     H287255   1.737   0.408   0.700
29005WAT      O87256   8.564   9.568   0.350
29005WAT     H187257   8.598   9.645   0.296
29005WAT     H287258   8.630   9.547   0.423
29006WAT      O87259   9.214   3.566   8.586
29006WAT     H187260   9.311   3.559   8.607
29006WAT     H287261   9.172   3.638   8.641
29007WAT      O87262   7.443   1.509   3.762
29007WAT     H187263   7.391   1.538   3.682
29007WAT     H287264   7.466   1.589   3.817
29008WAT      O87265   6.732   4.423   4.688
29008WAT     H187266   6.775   4.451   4.602
29008WAT     H287267   6.634   4.443   4.683
29009WAT      O87268   1.736   4.352   7.352
29009WAT     H187269   1.792   4.419   7.302
29009WAT     H287270   1.785   4.322   7.434
29010WAT      O87271   6.306   8.538   6.309
29010WAT     H187272   6.313   8.634   6.335
29010WAT     H287273   6.218   8.501   6.339
29011WAT      O87274   1.840   7.671   6.485
29011WAT     H187275   1.916   7.619   6.524
29011WAT     H287276   1.787   7.613   6.424
29012WAT      O87277   2.480   7.258   1.744
29012WAT     H187278   2.502   7.170   1.702
29012WAT     H287279   2.512   7.332   1.684
29013WAT      O87280   4.208   3.380   1.846
29013WAT     H187281   4.230   3.296   1.797
29013WAT     H287282   4.221   3.459   1.786
29014WAT      O87283   2.276   4.284   4.758
29014WAT     H187284   2.342   4.300   4.832
29014WAT     H287285   2.259   4.186   4.750
29015WAT      O87286   3.214   0.861   6.510
29015WAT     H187287   3.264   0.922   6.448
29015WAT     H287288   3.202   0.906   6.599
29016WAT      O87289   5.364   4.715   1.496
29016WAT     H187290   5.293   4.776   1.461
29016WAT     H287291   5.414   4.675   1.420
29017WAT      O87292   9.631   6.363   8.111
29017WAT     H187293   9.729   6.377   8.093
29017WAT     H287294   9.613   6.374   8.209
29018WAT      O87295   6.139   5.621   4.717
29018WAT     H187296   6.219   5.577   4.758
29018WAT     H287297   6.064   5.623   4.783
29019WAT      O87298   7.002   6.821   8.017
29019WAT     H187299   7.045   6.815   8.107
29019WAT     H287300   7.021   6.911   7.977
29020WAT      O87301   9.540   9.002   9.729
29020WAT     H187302   9.578   9.072   9.669
29020WAT     H287303   9.556   9.027   9.825
29021WAT      O87304   1.792   8.069   9.456
29021WAT     H187305   1.801   8.051   9.358
29021WAT     H287306   1.695   8.066   9.481
29022WAT      O87307   7.494   2.524   7.503
29022WAT     H187308   7.549   2.442   7.519
29022WAT     H287309   7.432   2.509   7.426
29023WAT      O87310   4.806   9.618   5.531
29023WAT     H187311   4.901   9.586   5.532
29023WAT     H287312   4.745   9.542   5.551
29024WAT      O87313   6.862   0.914   7.373
29024WAT     H187314   6.943   0.872   7.414
29024WAT     H287315   6.875   0.919   7.274
29025WAT      O87316   8.888   5.223   4.612
29025WAT     H187317   8.892   5.288   4.688
29025WAT     H287318   8.980   5.187   4.594
29026WAT      O87319   7.070   9.101   3.869
29026WAT     H187320   7.048   9.188   3.825
29026WAT     H287321   7.009   9.086   3.946
29027WAT      O87322   2.139   7.385   4.557
29027WAT     H187323   2.195   7.369   4.638
29027WAT     H287324   2.079   7.306   4.542
29028WAT      O87325   0.971   6.926   8.214
29028WAT     H187326   1.035   6.918   8.291
29028WAT     H287327   0.972   6.842   8.160
29029WAT      O87328   8.599   2.725   3.716
29029WAT     H187329   8.582   2.664   3.639
29029WAT     H287330   8.696   2.721   3.740
29030WAT      O87331   6.248   0.138   9.657
29030WAT     H187332   6.241   0.074   9.581
29030WAT     H287333   6.301   0.218   9.629
29031WAT      O87334   1.607   5.900   6.876
29031WAT     H187335   1.659   5.899   6.961
29031WAT     H287336   1.619   5.813   6.829
29032WAT      O87337   4.630   6.295   7.068
29032WAT     H187338   4.698   6.240   7.020
29032WAT     H287339   4.597   6.368   7.007
29033WAT      O87340   7.552   6.661   6.714
29033WAT     H187341   7.453   6.667   6.725
29033WAT     H287342   7.589   6.591   6.775
29034WAT      O87343   8.247   5.724   1.737
29034WAT     H187344   8.246   5.694   1.642
29034WAT     H287345   8.282   5.651   1.795
29035WAT      O87346   0.663   5.679   2.483
29035WAT     H187347   0.710   5.649   2.400
29035WAT     H287348   0.566   5.654   2.476
29036WAT      O87349   1.565   6.371   0.904
29036WAT     H187350   1.659   6.403   0.889
29036WAT     H287351   1.508   6.401   0.827
29037WAT      O87352   4.888   2.552   6.956
29037WAT     H187353   4.878   2.589   7.049
29037WAT     H287354   4.807   2.573   6.902
29038WAT      O87355   7.948   8.461   3.294
29038WAT     H187356   7.889   8.533   3.257
29038WAT     H287357   8.021   8.502   3.349
29039WAT      O87358   7.540   8.026   7.639
29039WAT     H187359   7.593   8.092   7.586
29039WAT     H287360   7.445   8.028   7.610
29040WAT      O87361   4.209   0.019   5.193
29040WAT     H187362   4.212   0.080   5.113
29040WAT     H287363   4.114   0.003   5.219
29041WAT      O87364   0.461   2.088   5.665
29041WAT     H187365   0.405   2.064   5.586
29041WAT     H287366   0.557   2.063   5.647
29042WAT      O87367   4.819   2.028   2.579
29042WAT     H187368   4.914   2.052   2.598
29042WAT     H287369   4.815   1.938   2.535
29043WAT      O87370   0.259   6.076   4.529
29043WAT     H187371   0.278   5.980   4.506
29043WAT     H287372   0.196   6.114   4.461
29044WAT      O87373   9.065   5.741   1.145
29044WAT     H187374   9.034   5.763   1.053
29044WAT     H287375   9.106   5.649   1.145
29045WAT      O87376   5.913   6.046   4.240
29045WAT     H187377   6.009   6.066   4.260
29045WAT     H287378   5.908   5.983   4.163
29046WAT      O87379   7.880   3.019   6.840
29046WAT     H187380   7.787   3.007   6.875
29046WAT     H287381   7.902   3.117   6.835
29047WAT      O87382   6.029   7.870   5.599
29047WAT     H187383   6.105   7.826   5.551
29047WAT     H287384   5.945   7.818   5.583
29048WAT      O87385   9.861   7.795   9.506
29048WAT     H187386   9.862   7.812   9.605
29048WAT     H287387   9.945   7.748   9.480
29049WAT      O87388   7.219   6.813   0.823
29049WAT     H187389   7.301   6.858   0.858
29049WAT     H287390   7.197   6.734   0.881
29050WAT      O87391   5.166   6.446   9.211
29050WAT     H187392   5.078   6.399   9.221
29050WAT     H287393   5.168   6.527   9.270
29051WAT      O87394   6.777   5.916   8.862
29051WAT     H187395   6.835   5.919   8.781
29051WAT     H287396   6.814   5.977   8.932
29052WAT      O87397   5.921   1.948   2.018
29052WAT     H187398   5.929   1.895   2.103
29052WAT     H287399   5.996   1.925   1.957
29053WAT      O87400   2.570   3.999   7.263
29053WAT     H187401   2.520   3.995   7.176
29053WAT     H287402   2.540   4.079   7.315
29054WAT      O87403   8.566   7.364   8.984
29054WAT     H187404   8.470   7.388   8.976
29054WAT     H287405   8.589   7.292   8.918
29055WAT      O87406   0.028   9.137   1.585
29055WAT     H187407  -0.050   9.087   1.547
29055WAT     H287408   0.069   9.195   1.514
29056WAT      O87409   4.293   0.180   3.376
29056WAT     H187410   4.263   0.087   3.398
29056WAT     H287411   4.307   0.231   3.461
29057WAT      O87412   4.714   1.390   4.202
29057WAT     H187413   4.707   1.484   4.169
29057WAT     H287414   4.810   1.361   4.199
29058WAT      O87415   6.443   8.572   9.604
29058WAT     H187416   6.439   8.537   9.510
29058WAT     H287417   6.535   8.603   9.624
29059WAT      O87418   3.888   6.987   8.734
29059WAT     H187419   3.815   6.975   8.666
29059WAT     H287420   3.898   6.903   8.787
29060WAT      O87421   9.688   0.333   2.193
29060WAT     H187422   9.590   0.332   2.171
29060WAT     H287423   9.701   0.300   2.287
29061WAT      O87424   4.661   9.434   1.522
29061WAT     H187425   4.747   9.431   1.572
29061WAT     H287426   4.658   9.516   1.465
29062WAT      O87427   2.938   5.465   0.960
29062WAT     H187428   3.033   5.494   0.966
29062WAT     H287429   2.886   5.501   1.038
29063WAT      O87430   5.488   8.538   6.131
29063WAT     H187431   5.440   8.623   6.108
29063WAT     H287432   5.487   8.526   6.231
29064WAT      O87433   0.847   2.600   0.474
29064WAT     H187434   0.906   2.532   0.518
29064WAT     H287435   0.858   2.689   0.520
29065WAT      O87436   4.645   7.909   3.364
29065WAT     H187437   4.718   7.864   3.312
29065WAT     H287438   4.603   7.979   3.308
29066WAT      O87439   9.806   8.529   2.875
29066WAT     H187440   9.804   8.465   2.798
29066WAT     H287441   9.840   8.481   2.956
29067WAT      O87442   8.665   2.325   9.783
29067WAT     H187443   8.650   2.244   9.840
29067WAT     H287444   8.762   2.330   9.758
29068WAT      O87445   9.512   1.668   3.396
29068WAT     H187446   9.569   1.646   3.317
29068WAT     H287447   9.492   1.766   3.395
29069WAT      O87448   0.700   1.171   8.159
29069WAT     H187449   0.642   1.233   8.106
29069WAT     H287450   0.754   1.224   8.224
29070WAT      O87451   0.904   1.692   8.350
29070WAT     H187452   0.959   1.761   8.397
29070WAT     H287453   0.825   1.669   8.406
29071WAT      O87454   7.437   0.857   0.047
29071WAT     H187455   7.337   0.856   0.050
29071WAT     H287456   7.469   0.786  -0.015
29072WAT      O87457   1.482   4.908   8.784
29072WAT     H187458   1.448   4.835   8.844
29072WAT     H287459   1.529   4.868   8.706
29073WAT      O87460   6.940   3.383   0.175
29073WAT     H187461   6.909   3.413   0.084
29073WAT     H287462   7.034   3.350   0.168
29074WAT      O87463   7.907   1.575   5.542
29074WAT     H187464   7.878   1.559   5.448
29074WAT     H287465   7.924   1.672   5.556
29075WAT      O87466   0.730   6.539   4.444
29075WAT     H187467   0.651   6.526   4.385
29075WAT     H287468   0.813   6.545   4.388
29076WAT      O87469   9.323   4.630   0.602
29076WAT     H187470   9.408   4.578   0.597
29076WAT     H287471   9.246   4.566   0.607
29077WAT      O87472   1.410   9.003   1.067
29077WAT     H187473   1.334   8.999   1.002
29077WAT     H287474   1.492   9.035   1.019
29078WAT      O87475   6.013   6.608   1.395
29078WAT     H187476   5.976   6.655   1.475
29078WAT     H287477   6.094   6.556   1.421
29079WAT      O87478   2.114   7.576   5.972
29079WAT     H187479   2.104   7.625   5.885
29079WAT     H287480   2.053   7.616   6.040
29080WAT      O87481   1.977   6.655   7.085
29080WAT     H187482   2.058   6.677   7.031
29080WAT     H287483   1.997   6.577   7.145
29081WAT      O87484   5.588   3.925   6.076
29081WAT     H187485   5.604   4.019   6.044
29081WAT     H287486   5.666   3.868   6.051
29082WAT      O87487   7.947   7.901   3.284
29082WAT     H187488   8.016   7.971   3.266
29082WAT     H287489   7.950   7.832   3.212
29083WAT      O87490   3.624   0.318   1.377
29083WAT     H187491   3.562   0.314   1.455
29083WAT     H287492   3.684   0.397   1.386
29084WAT      O87493   9.882   7.836   9.768
29084WAT     H187494   9.797   7.803   9.810
29084WAT     H287495   9.897   7.931   9.793
29085WAT      O87496   0.559   8.709   2.971
29085WAT     H187497   0.650   8.677   2.945
29085WAT     H287498   0.566   8.801   3.008
29086WAT      O87499   8.536   7.236   7.527
29086WAT     H187500   8.502   7.286   7.607
29086WAT     H287501   8.498   7.276   7.444
29087WAT      O87502   8.087   7.220   8.474
29087WAT     H187503   8.167   7.247   8.420
29087WAT     H287504   8.007   7.213   8.414
29088WAT      O87505   9.627   8.017   9.102
29088WAT     H187506   9.611   7.933   9.153
29088WAT     H287507   9.674   8.083   9.161
29089WAT      O87508   9.100   0.247   1.769
29089WAT     H187509   9.141   0.159   1.794
29089WAT     H287510   9.155   0.321   1.809
29090WAT      O87511   6.770   3.390   5.429
29090WAT     H187512   6.750   3.453   5.504
29090WAT     H287513   6.685   3.342   5.403
29091WAT      O87514   0.513   8.950   6.524
29091WAT     H187515   0.611   8.934   6.539
29091WAT     H287516   0.477   8.880   6.463
29092WAT      O87517   6.184   0.824   1.247
29092WAT     H187518   6.149   0.772   1.325
29092WAT     H287519   6.108   0.867   1.198
29093WAT      O87520   0.493   3.201   6.011
29093WAT     H187521   0.571   3.244   6.056
29093WAT     H287522   0.491   3.229   5.915
29094WAT      O87523   6.657   5.160   1.715
29094WAT     H187524   6.624   5.217   1.791
29094WAT     H287525   6.744   5.119   1.741
29095WAT      O87526   8.650   1.066   6.689
29095WAT     H187527   8.716   1.012   6.741
29095WAT     H287528   8.650   1.035   6.594
29096WAT      O87529   6.776   7.982   2.277
29096WAT     H187530   6.833   7.990   2.359
29096WAT     H287531   6.724   8.066   2.264
29097WAT      O87532   6.045   0.561   8.917
29097WAT     H187533   6.040   0.582   8.820
29097WAT     H287534   6.064   0.463   8.929
29098WAT      O87535   5.712   7.242   7.723
29098WAT     H187536   5.676   7.270   7.634
29098WAT     H287537   5.638   7.206   7.779
29099WAT      O87538   9.093   7.458   4.258
29099WAT     H187539   9.170   7.507   4.217
29099WAT     H287540   9.082   7.487   4.353
29100WAT      O87541   1.706   9.331   2.516
29100WAT     H187542   1.772   9.352   2.444
29100WAT     H287543   1.731   9.245   2.559
29101WAT      O87544   7.282   9.527   5.480
29101WAT     H187545   7.313   9.619   5.505
29101WAT     H287546   7.207   9.499   5.541
29102WAT      O87547   1.581   7.270   1.521
29102WAT     H187548   1.490   7.229   1.529
29102WAT     H287549   1.642   7.231   1.590
29103WAT      O87550   5.635   4.411   6.640
29103WAT     H187551   5.627   4.366   6.550
29103WAT     H287552   5.544   4.423   6.679
29104WAT      O87553   9.356   3.365   3.976
29104WAT     H187554   9.423   3.438   3.978
29104WAT     H287555   9.396   3.281   4.013
29105WAT      O87556   4.042   3.097   3.525
29105WAT     H187557   3.985   3.087   3.606
29105WAT     H287558   3.987   3.128   3.448
29106WAT      O87559   2.974   8.724   9.618
29106WAT     H187560   3.073   8.724   9.632
29106WAT     H287561   2.939   8.817   9.628
29107WAT      O87562   7.784   2.927   3.500
29107WAT     H187563   7.703   2.986   3.491
29107WAT     H287564   7.770   2.863   3.575
29108WAT      O87565   4.216   9.781   8.181
29108WAT     H187566   4.182   9.733   8.262
29108WAT     H287567   4.229   9.715   8.106
29109WAT      O87568   3.501   4.518   3.732
29109WAT     H187569   3.410   4.550   3.758
29109WAT     H287570   3.521   4.546   3.638
29110WAT      O87571   0.384   0.989   7.273
29110WAT     H187572   0.403   0.892   7.260
29110WAT     H287573   0.330   1.023   7.196
29111WAT      O87574   0.137   3.625   3.434
29111WAT     H187575   0.068   3.696   3.440
29111WAT     H287576   0.218   3.661   3.387
29112WAT      O87577   5.860   6.406   9.323
29112WAT     H187578   5.930   6.473   9.345
29112WAT     H287579   5.807   6.384   9.405
29113WAT      O87580   1.041   0.843   2.149
29113WAT     H187581   1.093   0.764   2.116
29113WAT     H287582   1.062   0.922   2.093
29114WAT      O87583   3.465   3.372   1.093
29114WAT     H187584   3.437   3.444   1.157
29114WAT     H287585   3.565   3.371   1.087
29115WAT      O87586   1.260   6.541   6.827
29115WAT     H187587   1.178   6.493   6.858
29115WAT     H287588   1.268   6.628   6.874
29116WAT      O87589   5.683   6.626   3.959
29116WAT     H187590   5.629   6.571   4.023
29116WAT     H287591   5.623   6.685   3.906
29117WAT      O87592   6.975   9.046   5.663
29117WAT     H187593   6.970   9.055   5.762
29117WAT     H287594   6.895   9.089   5.621
29118WAT      O87595   6.303   5.810   7.644
29118WAT     H187596   6.258   5.723   7.627
29118WAT     H287597   6.310   5.826   7.742
29119WAT      O87598   8.549   4.319   3.364
29119WAT     H187599   8.472   4.282   3.417
29119WAT     H287600   8.524   4.323   3.268
29120WAT      O87601   9.761   5.645   5.572
29120WAT     H187602   9.752   5.560   5.520
29120WAT     H287603   9.857   5.661   5.594
29121WAT      O87604   6.072   5.110   7.519
29121WAT     H187605   6.159   5.147   7.552
29121WAT     H287606   6.048   5.152   7.432
29122WAT      O87607   7.804   5.595   5.873
29122WAT     H187608   7.781   5.516   5.817
29122WAT     H287609   7.901   5.618   5.861
29123WAT      O87610   8.768   5.407   3.979
29123WAT     H187611   8.686   5.373   3.934
29123WAT     H287612   8.849   5.377   3.929
29124WAT      O87613   4.833   4.482   2.269
29124WAT     H187614   4.740   4.466   2.237
29124WAT     H287615   4.838   4.470   2.368
29125WAT      O87616   6.467   1.114   4.349
29125WAT     H187617   6.558   1.131   4.388
29125WAT     H287618   6.477   1.076   4.257
29126WAT      O87619   9.374   4.496   8.794
29126WAT     H187620   9.371   4.592   8.822
29126WAT     H287621   9.299   4.477   8.731
29127WAT      O87622   0.539   1.755   6.162
29127WAT     H187623   0.602   1.716   6.095
29127WAT     H287624   0.556   1.853   6.172
29128WAT      O87625   1.570   6.616   4.377
29128WAT     H187626   1.547   6.713   4.384
29128WAT     H287627   1.586   6.592   4.282
29129WAT      O87628   9.475   9.476   0.737
29129WAT     H187629   9.448   9.428   0.820
29129WAT     H287630   9.519   9.563   0.761
29130WAT      O87631   5.150   8.961   0.561
29130WAT     H187632   5.249   8.953   0.549
29130WAT     H287633   5.131   9.025   0.636
29131WAT      O87634   2.447   2.721   8.180
29131WAT     H187635   2.389   2.736   8.101
29131WAT     H287636   2.495   2.806   8.204
29132WAT      O87637   6.343   4.256   2.952
29132WAT     H187638   6.387   4.209   3.029
29132WAT     H287639   6.338   4.354   2.970
29133WAT      O87640   7.990   2.036   9.407
29133WAT     H187641   8.038   2.113   9.363
29133WAT     H287642   7.933   1.990   9.339
29134WAT      O87643   8.628   3.397   2.409
29134WAT     H187644   8.641   3.330   2.336
29134WAT     H287645   8.533   3.395   2.441
29135WAT      O87646   5.141   8.824   7.065
29135WAT     H187647   5.041   8.831   7.060
29135WAT     H287648   5.179   8.827   6.973
29136WAT      O87649   4.615   9.105   2.874
29136WAT     H187650   4.710   9.088   2.902
29136WAT     H287651   4.574   9.171   2.936
29137WAT      O87652   2.327   0.163   1.159
29137WAT     H187653   2.422   0.176   1.185
29137WAT     H287654   2.268   0.222   1.214
29138WAT      O87655   5.722   5.690   0.318
29138WAT     H187656   5.819   5.663   0.322
29138WAT     H287657   5.664   5.610   0.331
29139WAT      O87658   3.226   7.506   3.074
29139WAT     H187659   3.184   7.420   3.104
29139WAT     H287660   3.194   7.528   2.981
29140WAT      O87661   0.079   0.485   0.109
29140WAT     H187662   0.125   0.398   0.090
29140WAT     H287663   0.129   0.534   0.180
29141WAT      O87664   6.982   9.792   2.325
29141WAT     H187665   6.923   9.872   2.310
29141WAT     H287666   6.926   9.714   2.351
29142WAT      O87667   4.816   9.702   9.575
29142WAT     H187668   4.860   9.750   9.651
29142WAT     H287669   4.725   9.671   9.602
29143WAT      O87670   4.363   0.753   4.624
29143WAT     H187671   4.380   0.707   4.711
29143WAT     H287672   4.332   0.687   4.556
29144WAT      O87673   7.152   8.672   1.348
29144WAT     H187674   7.102   8.603   1.399
29144WAT     H287675   7.087   8.732   1.300
29145WAT      O87676   6.779   0.953   7.990
29145WAT     H187677   6.816   0.896   8.063
29145WAT     H287678   6.810   1.047   8.003
29146WAT      O87679   5.355   4.915   6.649
29146WAT     H187680   5.362   4.963   6.736
29146WAT     H287681   5.330   4.980   6.577
29147WAT      O87682   7.528   3.993   8.851
29147WAT     H187683   7.497   4.038   8.935
29147WAT     H287684   7.470   3.913   8.833
29148WAT      O87685   5.479   2.194   1.871
29148WAT     H187686   5.462   2.103   1.832
29148WAT     H287687   5.560   2.192   1.929
29149WAT      O87688   8.242   3.783   2.812
29149WAT     H187689   8.155   3.779   2.762
29149WAT     H287690   8.263   3.879   2.834
29150WAT      O87691   5.843   9.099   9.561
29150WAT     H187692   5.941   9.102   9.579
29150WAT     H287693   5.825   9.036   9.485
29151WAT      O87694   3.379   4.473   4.324
29151WAT     H187695   3.322   4.490   4.243
29151WAT     H287696   3.466   4.433   4.295
29152WAT      O87697   7.282   0.510   9.129
29152WAT     H187698   7.357   0.474   9.073
29152WAT     H287699   7.308   0.506   9.226
29153WAT      O87700   2.010   2.485   5.702
29153WAT     H187701   1.994   2.541   5.621
29153WAT     H287702   2.060   2.402   5.676
29154WAT      O87703   9.271   0.542   4.213
29154WAT     H187704   9.353   0.485   4.225
29154WAT     H287705   9.213   0.502   4.142
29155WAT      O87706   6.469   1.703   7.425
29155WAT     H187707   6.475   1.606   7.449
29155WAT     H287708   6.438   1.712   7.330
29156WAT      O87709   4.578   4.645   8.349
29156WAT     H187710   4.506   4.667   8.415
29156WAT     H287711   4.564   4.552   8.315
29157WAT      O87712   3.287   3.767   0.588
29157WAT     H187713   3.271   3.716   0.503
29157WAT     H287714   3.360   3.722   0.639
29158WAT      O87715   5.647   3.507   4.369
29158WAT     H187716   5.704   3.511   4.450
29158WAT     H287717   5.583   3.583   4.369
29159WAT      O87718   6.721   9.154   6.124
29159WAT     H187719   6.795   9.121   6.065
29159WAT     H287720   6.754   9.157   6.219
29160WAT      O87721   7.011   4.917   2.153
29160WAT     H187722   7.053   4.913   2.063
29160WAT     H287723   7.078   4.887   2.222
29161WAT      O87724   2.119   6.398   5.189
29161WAT     H187725   2.139   6.456   5.269
29161WAT     H287726   2.102   6.304   5.220
29162WAT      O87727   8.774   3.176   7.989
29162WAT     H187728   8.783   3.151   8.085
29162WAT     H287729   8.830   3.116   7.933
29163WAT      O87730   7.489   1.423   8.676
29163WAT     H187731   7.437   1.439   8.759
29163WAT     H287732   7.585   1.407   8.699
29164WAT      O87733   4.154   4.465   6.227
29164WAT     H187734   4.124   4.550   6.184
29164WAT     H287735   4.203   4.485   6.312
29165WAT      O87736   0.085   2.407   7.096
29165WAT     H187737   0.178   2.383   7.068
29165WAT     H287738   0.053   2.486   7.044
29166WAT      O87739   4.235   2.442   2.757
29166WAT     H187740   4.324   2.400   2.775
29166WAT     H287741   4.193   2.470   2.843
29167WAT      O87742   7.151   1.749   3.007
29167WAT     H187743   7.144   1.666   3.063
29167WAT     H287744   7.118   1.730   2.915
29168WAT      O87745   5.920   0.499   9.880
29168WAT     H187746   5.965   0.436   9.818
29168WAT     H287747   5.833   0.528   9.840
29169WAT      O87748   1.494   8.812   9.797
29169WAT     H187749   1.442   8.791   9.880
29169WAT     H287750   1.494   8.911   9.781
29170WAT      O87751   1.655   7.652   4.469
29170WAT     H187752   1.697   7.701   4.546
29170WAT     H287753   1.581   7.594   4.504
29171WAT      O87754   1.957   2.727   0.429
29171WAT     H187755   1.937   2.643   0.379
29171WAT     H287756   1.871   2.767   0.462
29172WAT      O87757   8.597   5.768   2.620
29172WAT     H187758   8.632   5.696   2.560
29172WAT     H287759   8.497   5.767   2.617
29173WAT      O87760   7.968   7.655   5.132
29173WAT     H187761   7.909   7.735   5.125
29173WAT     H287762   8.014   7.656   5.221
29174WAT      O87763   2.265   3.344   9.625
29174WAT     H187764   2.319   3.260   9.629
29174WAT     H287765   2.320   3.417   9.586
29175WAT      O87766   8.337   8.547   1.127
29175WAT     H187767   8.313   8.642   1.146
29175WAT     H287768   8.271   8.509   1.062
29176WAT      O87769   4.111   2.210   5.954
29176WAT     H187770   4.185   2.193   5.889
29176WAT     H287771   4.041   2.266   5.911
29177WAT      O87772   9.002   3.358   0.636
29177WAT     H187773   8.953   3.275   0.664
29177WAT     H287774   9.098   3.335   0.619
29178WAT      O87775   2.807   0.679   8.477
29178WAT     H187776   2.757   0.764   8.495
29178WAT     H287777   2.888   0.675   8.535
29179WAT      O87778   3.119   3.395   9.424
29179WAT     H187779   3.048   3.455   9.387
29179WAT     H287780   3.208   3.440   9.419
29180WAT      O87781   6.242   2.388   0.341
29180WAT     H187782   6.276   2.294   0.337
29180WAT     H287783   6.295   2.445   0.279
29181WAT      O87784   1.161   8.985   0.327
29181WAT     H187785   1.242   9.041   0.339
29181WAT     H287786   1.134   8.945   0.415
29182WAT      O87787   5.978   6.912   8.241
29182WAT     H187788   5.912   6.908   8.317
29182WAT     H287789   6.046   6.982   8.260
29183WAT      O87790   9.663   6.513   4.671
29183WAT     H187791   9.583   6.572   4.680
29183WAT     H287792   9.672   6.458   4.755
29184WAT      O87793   0.529   9.147   4.801
29184WAT     H187794   0.539   9.054   4.766
29184WAT     H287795   0.570   9.152   4.892
29185WAT      O87796   7.235   8.156   2.787
29185WAT     H187797   7.142   8.139   2.819
29185WAT     H287798   7.252   8.254   2.782
29186WAT      O87799   5.457   4.581   9.784
29186WAT     H187800   5.491   4.501   9.832
29186WAT     H287801   5.531   4.648   9.775
29187WAT      O87802   9.037   8.699   1.571
29187WAT     H187803   8.962   8.707   1.506
29187WAT     H287804   9.032   8.773   1.637
29188WAT      O87805   9.018   0.746   1.269
29188WAT     H187806   8.980   0.665   1.315
29188WAT     H287807   9.118   0.738   1.267
29189WAT      O87808   0.934   6.527   9.401
29189WAT     H187809   0.917   6.536   9.499
29189WAT     H287810   0.860   6.473   9.359
29190WAT      O87811   4.113   1.731   9.896
29190WAT     H187812   4.134   1.663   9.825
29190WAT     H287813   4.014   1.746   9.899
29191WAT      O87814   2.479   4.322   7.316
29191WAT     H187815   2.436   4.411   7.333
29191WAT     H287816   2.558   4.334   7.257
29192WAT      O87817   8.290   7.977   7.647
29192WAT     H187818   8.368   8.031   7.676
29192WAT     H287819   8.213   8.037   7.626
29193WAT      O87820   7.524   6.144   7.692
29193WAT     H187821   7.563   6.071   7.638
29193WAT     H287822   7.571   6.149   7.781
29194WAT      O87823   9.656   6.897   2.028
29194WAT     H187824   9.748   6.914   1.993
29194WAT     H287825   9.650   6.929   2.122
29195WAT      O87826   5.276   1.853   1.223
29195WAT     H187827   5.181   1.822   1.216
29195WAT     H287828   5.305   1.850   1.318
29196WAT      O87829   4.905   9.416   4.411
29196WAT     H187830   4.999   9.404   4.444
29196WAT     H287831   4.874   9.332   4.367
29197WAT      O87832   9.038   7.662   2.840
29197WAT     H187833   8.963   7.648   2.905
29197WAT     H287834   9.081   7.573   2.820
29198WAT      O87835   1.936   3.039   0.426
29198WAT     H187836   2.002   3.113   0.440
29198WAT     H287837   1.968   2.956   0.473
29199WAT      O87838   8.195   4.840   2.477
29199WAT     H187839   8.111   4.887   2.450
29199WAT     H287840   8.202   4.836   2.576
29200WAT      O87841   2.317   2.674   2.882
29200WAT     H187842   2.241   2.718   2.834
29200WAT     H287843   2.324   2.579   2.851
29201WAT      O87844   7.130   2.497   4.499
29201WAT     H187845   7.196   2.531   4.432
29201WAT     H287846   7.075   2.573   4.534
29202WAT      O87847   4.374   1.569   9.048
29202WAT     H187848   4.469   1.596   9.035
29202WAT     H287849   4.340   1.608   9.134
29203WAT      O87850   0.337   0.348   0.964
29203WAT     H187851   0.245   0.310   0.978
29203WAT     H287852   0.400   0.274   0.940
29204WAT      O87853   9.366   6.055   5.886
29204WAT     H187854   9.335   5.967   5.920
29204WAT     H287855   9.398   6.111   5.962
29205WAT      O87856   7.957   7.405   7.984
29205WAT     H187857   7.989   7.340   8.054
29205WAT     H287858   8.034   7.460   7.952
29206WAT      O87859   6.195   8.960   2.549
29206WAT     H187860   6.153   8.903   2.619
29206WAT     H287861   6.128   8.981   2.478
29207WAT      O87862   9.523   9.366   5.555
29207WAT     H187863   9.545   9.270   5.540
29207WAT     H287864   9.607   9.420   5.552
29208WAT      O87865   4.724   9.115   8.037
29208WAT     H187866   4.757   9.200   7.996
29208WAT     H287867   4.800   9.069   8.083
29209WAT      O87868   2.891   2.485   8.235
29209WAT     H187869   2.973   2.496   8.290
29209WAT     H287870   2.910   2.512   8.140
29210WAT      O87871   3.829   6.184   3.125
29210WAT     H187872   3.854   6.266   3.073
29210WAT     H287873   3.780   6.120   3.065
29211WAT      O87874   2.227   6.952   8.978
29211WAT     H187875   2.327   6.948   8.987
29211WAT     H287876   2.189   6.861   8.992
29212WAT      O87877   0.456   0.912   0.732
29212WAT     H187878   0.436   0.994   0.679
29212WAT     H287879   0.555   0.895   0.731
29213WAT      O87880   1.148   2.302   7.578
29213WAT     H187881   1.224   2.307   7.642
29213WAT     H287882   1.109   2.210   7.579
29214WAT      O87883   5.985   7.223   8.036
29214WAT     H187884   6.002   7.128   8.011
29214WAT     H287885   6.055   7.253   8.101
29215WAT      O87886   6.183   5.175   3.286
29215WAT     H187887   6.251   5.162   3.215
29215WAT     H287888   6.159   5.086   3.325
29216WAT      O87889   8.591   8.751   0.209
29216WAT     H187890   8.540   8.831   0.177
29216WAT     H287891   8.542   8.668   0.184
29217WAT      O87892   9.015   2.594   5.436
29217WAT     H187893   9.088   2.648   5.477
29217WAT     H287894   9.055   2.525   5.376
29218WAT      O87895   8.149   1.617   3.186
29218WAT     H187896   8.114   1.700   3.230
29218WAT     H287897   8.115   1.537   3.235
29219WAT      O87898   3.200   9.250   3.902
29219WAT     H187899   3.242   9.262   3.992
29219WAT     H287900   3.105   9.283   3.905
29220WAT      O87901   7.601   8.012   6.455
29220WAT     H187902   7.672   8.052   6.514
29220WAT     H287903   7.640   7.990   6.366
29221WAT      O87904   8.951   6.346   5.001
29221WAT     H187905   8.891   6.384   4.932
29221WAT     H287906   8.899   6.286   5.062
29222WAT      O87907   9.126   9.816   3.312
29222WAT     H187908   9.164   9.804   3.220
29222WAT     H287909   9.061   9.743   3.331
29223WAT      O87910   5.719   2.180   5.104
29223WAT     H187911   5.738   2.084   5.082
29223WAT     H287912   5.668   2.222   5.028
29224WAT      O87913   9.032   1.419   6.926
29224WAT     H187914   8.950   1.475   6.920
29224WAT     H287915   9.023   1.340   6.865
29225WAT      O87916   5.455   6.702   6.995
29225WAT     H187917   5.539   6.671   7.039
29225WAT     H287918   5.446   6.801   7.006
29226WAT      O87919   7.465   5.803   2.669
29226WAT     H187920   7.501   5.840   2.754
29226WAT     H287921   7.369   5.829   2.660
29227WAT      O87922   8.546   1.251   8.869
29227WAT     H187923   8.601   1.224   8.790
29227WAT     H287924   8.606   1.286   8.941
29228WAT      O87925   0.213   7.531   2.947
29228WAT     H187926   0.287   7.565   2.890
29228WAT     H287927   0.156   7.607   2.977
29229WAT      O87928   4.991   6.818   1.293
29229WAT     H187929   4.978   6.909   1.332
29229WAT     H287930   5.089   6.800   1.284
29230WAT      O87931   2.881   0.042   4.725
29230WAT     H187932   2.833  -0.032   4.677
29230WAT     H287933   2.949   0.003   4.787
29231WAT      O87934   9.021   1.715   4.209
29231WAT     H187935   8.981   1.673   4.291
29231WAT     H287936   8.950   1.763   4.159
29232WAT      O87937   1.701   8.996   4.447
29232WAT     H187938   1.797   9.015   4.428
29232WAT     H287939   1.657   8.960   4.364
29233WAT      O87940   8.118   7.513   2.710
29233WAT     H187941   8.175   7.576   2.656
29233WAT     H287942   8.118   7.423   2.666
29234WAT      O87943   1.243   4.432   4.213
29234WAT     H187944   1.307   4.359   4.189
29234WAT     H287945   1.237   4.497   4.137
29235WAT      O87946   8.108   4.479   5.202
29235WAT     H187947   8.199   4.450   5.232
29235WAT     H287948   8.115   4.530   5.116
29236WAT      O87949   7.681   1.537   6.018
29236WAT     H187950   7.777   1.542   5.992
29236WAT     H287951   7.663   1.450   6.064
29237WAT      O87952   2.309   8.353   4.255
29237WAT     H187953   2.347   8.373   4.165
29237WAT     H287954   2.267   8.262   4.253
29238WAT      O87955   6.284   5.816   5.323
29238WAT     H187956   6.212   5.878   5.354
29238WAT     H287957   6.252   5.765   5.243
29239WAT      O87958   5.256   1.245   6.495
29239WAT     H187959   5.306   1.214   6.414
29239WAT     H287960   5.232   1.166   6.552
29240WAT      O87961   3.954   0.188   2.708
29240WAT     H187962   3.952   0.213   2.611
29240WAT     H287963   3.862   0.166   2.739
29241WAT      O87964   1.877   4.964   3.464
29241WAT     H187965   1.924   5.051   3.483
29241WAT     H287966   1.783   4.969   3.500
29242WAT      O87967   4.476   0.836   7.439
29242WAT     H187968   4.433   0.852   7.528
29242WAT     H287969   4.440   0.751   7.400
29243WAT      O87970   9.096   1.967   0.489
29243WAT     H187971   9.167   1.964   0.559
29243WAT     H287972   9.100   2.054   0.440
29244WAT      O87973   5.743   2.881   6.487
29244WAT     H187974   5.649   2.856   6.464
29244WAT     H287975   5.767   2.967   6.441
29245WAT      O87976   3.340   9.372   5.492
29245WAT     H187977   3.411   9.405   5.554
29245WAT     H287978   3.382   9.316   5.420
29246WAT      O87979   4.802   8.010   6.225
29246WAT     H187980   4.790   8.109   6.222
29246WAT     H287981   4.858   7.985   6.304
29247WAT      O87982   1.158   8.654   0.055
29247WAT     H187983   1.224   8.582   0.032
29247WAT     H287984   1.100   8.672  -0.025
29248WAT      O87985   3.827   8.258   7.824
29248WAT     H187986   3.869   8.196   7.890
29248WAT     H287987   3.772   8.206   7.759
29249WAT      O87988   1.704   2.353   1.578
29249WAT     H187989   1.685   2.360   1.676
29249WAT     H287990   1.728   2.259   1.555
29250WAT      O87991   6.587   7.627   9.355
29250WAT     H187992   6.673   7.675   9.342
29250WAT     H287993   6.525   7.649   9.279
29251WAT      O87994   8.846   2.723   7.884
29251WAT     H187995   8.749   2.722   7.910
29251WAT     H287996   8.882   2.816   7.895
29252WAT      O87997   2.243   4.833   4.131
29252WAT     H187998   2.251   4.793   4.223
29252WAT     H287999   2.157   4.805   4.089
29253WAT      O88000   5.937   8.072   6.852
29253WAT     H188001   5.845   8.037   6.867
29253WAT     H288002   5.975   8.103   6.940
29254WAT      O88003   3.723   3.084   8.700
29254WAT     H188004   3.751   3.179   8.692
29254WAT     H288005   3.789   3.034   8.756
29255WAT      O88006   2.951   9.531   5.551
29255WAT     H188007   3.033   9.539   5.608
29255WAT     H288008   2.902   9.447   5.574
29256WAT      O88009   4.900   9.382   1.699
29256WAT     H188010   4.833   9.326   1.748
29256WAT     H288011   4.991   9.366   1.738
29257WAT      O88012   1.768   9.400   9.831
29257WAT     H188013   1.814   9.461   9.766
29257WAT     H288014   1.714   9.333   9.781
29258WAT      O88015   8.638   8.565   5.992
29258WAT     H188016   8.625   8.570   6.091
29258WAT     H288017   8.730   8.532   5.972
29259WAT      O88018   4.968   7.137   4.625
29259WAT     H188019   5.004   7.046   4.607
29259WAT     H288020   4.869   7.138   4.608
29260WAT      O88021   0.093   2.512   6.307
29260WAT     H188022   0.089   2.600   6.259
29260WAT     H288023   0.188   2.483   6.316
29261WAT      O88024   6.020   2.243   5.599
29261WAT     H188025   5.937   2.188   5.593
29261WAT     H288026   6.002   2.335   5.566
29262WAT      O88027   4.405   7.214   6.790
29262WAT     H188028   4.473   7.280   6.824
29262WAT     H288029   4.400   7.136   6.852
29263WAT      O88030   4.554   7.652   3.031
29263WAT     H188031   4.549   7.615   2.938
29263WAT     H288032   4.610   7.591   3.087
29264WAT      O88033   6.294   0.730   6.758
29264WAT     H188034   6.277   0.648   6.703
29264WAT     H288035   6.308   0.808   6.697
29265WAT      O88036   2.067   0.668   1.319
29265WAT     H188037   2.126   0.737   1.278
29265WAT     H288038   1.997   0.641   1.252
29266WAT      O88039   8.039   3.158   9.032
29266WAT     H188040   8.087   3.126   9.113
29266WAT     H288041   8.015   3.080   8.974
29267WAT      O88042   1.469   2.547   8.587
29267WAT     H188043   1.452   2.575   8.682
29267WAT     H288044   1.432   2.616   8.525
29268WAT      O88045   2.873   3.387   5.677
29268WAT     H188046   2.929   3.437   5.743
29268WAT     H288047   2.901   3.412   5.584
29269WAT      O88048   9.102   5.610   6.688
29269WAT     H188049   9.122   5.602   6.591
29269WAT     H288050   9.079   5.520   6.726
29270WAT      O88051   4.198   5.361   8.630
29270WAT     H188052   4.254   5.388   8.708
29270WAT     H288053   4.232   5.275   8.592
29271WAT      O88054   4.254   0.199   5.022
29271WAT     H188055   4.324   0.250   5.072
29271WAT     H288056   4.168   0.251   5.023
29272WAT      O88057   2.874   1.578   2.477
29272WAT     H188058   2.780   1.584   2.511
29272WAT     H288059   2.937   1.615   2.546
29273WAT      O88060   5.356   4.184   1.370
29273WAT     H188061   5.368   4.217   1.277
29273WAT     H288062   5.262   4.153   1.383
29274WAT      O88063   5.944   0.476   6.453
29274WAT     H188064   5.898   0.561   6.476
29274WAT     H288065   5.880   0.414   6.408
29275WAT      O88066   7.931   1.233   0.485
29275WAT     H188067   8.007   1.223   0.421
29275WAT     H288068   7.860   1.166   0.464
29276WAT      O88069   8.021   9.832   9.019
29276WAT     H188070   8.052   9.925   9.036
29276WAT     H288071   7.974   9.798   9.100
29277WAT      O88072   1.133   6.405   6.248
29277WAT     H188073   1.057   6.426   6.309
29277WAT     H288074   1.109   6.431   6.155
29278WAT      O88075   1.935   3.844   0.811
29278WAT     H188076   1.905   3.816   0.720
29278WAT     H288077   1.861   3.827   0.877
29279WAT      O88078   8.405   6.382   0.479
29279WAT     H188079   8.318   6.432   0.471
29279WAT     H288080   8.427   6.340   0.391
29280WAT      O88081   3.662   8.127   9.509
29280WAT     H188082   3.593   8.155   9.442
29280WAT     H288083   3.708   8.208   9.546
29281WAT      O88084   2.186   2.965   0.847
29281WAT     H188085   2.112   3.027   0.874
29281WAT     H288086   2.238   3.006   0.772
29282WAT      O88087   2.702   1.410   9.711
29282WAT     H188088   2.673   1.357   9.631
29282WAT     H288089   2.801   1.426   9.706
29283WAT      O88090   9.107   6.607   8.295
29283WAT     H188091   9.007   6.596   8.296
29283WAT     H288092   9.144   6.564   8.213
29284WAT      O88093   0.712   0.623   4.332
29284WAT     H188094   0.800   0.647   4.373
29284WAT     H288095   0.720   0.536   4.284
29285WAT      O88096   0.012   4.878   7.707
29285WAT     H188097  -0.040   4.795   7.689
29285WAT     H288098   0.025   4.889   7.805
29286WAT      O88099   1.058   7.917   2.010
29286WAT     H188100   1.132   7.976   1.977
29286WAT     H288101   0.989   7.973   2.056
29287WAT      O88102   1.289   9.567   9.214
29287WAT     H188103   1.311   9.526   9.126
29287WAT     H288104   1.301   9.499   9.287
29288WAT      O88105   8.669   0.659   8.957
29288WAT     H188106   8.709   0.683   8.868
29288WAT     H288107   8.643   0.563   8.957
29289WAT      O88108   4.086   8.026   7.340
29289WAT     H188109   4.122   7.969   7.266
29289WAT     H288110   3.986   8.024   7.337
29290WAT      O88111   3.253   4.661   7.599
29290WAT     H188112   3.290   4.626   7.685
29290WAT     H288113   3.198   4.743   7.617
29291WAT      O88114   2.931   6.489   9.012
29291WAT     H188115   2.888   6.401   8.992
29291WAT     H288116   3.027   6.486   8.983
29292WAT      O88117   4.786   8.575   1.024
29292WAT     H188118   4.852   8.509   0.988
29292WAT     H288119   4.706   8.578   0.965
29293WAT      O88120   6.464   4.728   5.604
29293WAT     H188121   6.399   4.719   5.529
29293WAT     H288122   6.535   4.658   5.595
29294WAT      O88123   3.195   5.578   3.834
29294WAT     H188124   3.131   5.503   3.851
29294WAT     H288125   3.145   5.660   3.807
29295WAT      O88126   2.478   0.537   8.878
29295WAT     H188127   2.578   0.536   8.875
29295WAT     H288128   2.447   0.610   8.938
29296WAT      O88129   3.362   3.725   3.609
29296WAT     H188130   3.326   3.639   3.572
29296WAT     H288131   3.320   3.802   3.562
29297WAT      O88132   2.659   6.369   9.344
29297WAT     H188133   2.631   6.322   9.427
29297WAT     H288134   2.612   6.458   9.338
29298WAT      O88135   1.959   7.251   3.041
29298WAT     H188136   2.033   7.271   3.105
29298WAT     H288137   1.990   7.268   2.947
29299WAT      O88138   5.561   1.659   5.529
29299WAT     H188139   5.531   1.718   5.604
29299WAT     H288140   5.653   1.686   5.500
29300WAT      O88141   4.398   6.975   9.124
29300WAT     H188142   4.320   6.925   9.159
29300WAT     H288143   4.367   7.044   9.059
29301WAT      O88144   7.753   4.919   5.131
29301WAT     H188145   7.707   4.943   5.046
29301WAT     H288146   7.775   5.002   5.182
29302WAT      O88147   0.134   7.622   0.889
29302WAT     H188148   0.138   7.720   0.871
29302WAT     H288149   0.039   7.595   0.905
29303WAT      O88150   8.584   5.917   7.064
29303WAT     H188151   8.677   5.934   7.097
29303WAT     H288152   8.558   5.987   6.998
29304WAT      O88153   6.057   2.409   1.348
29304WAT     H188154   5.991   2.438   1.418
29304WAT     H288155   6.091   2.490   1.300
29305WAT      O88156   3.706   4.941   9.776
29305WAT     H188157   3.656   4.942   9.863
29305WAT     H288158   3.800   4.912   9.792
29306WAT      O88159   3.082   7.087   5.732
29306WAT     H188160   2.993   7.043   5.747
29306WAT     H288161   3.090   7.166   5.793
29307WAT      O88162   3.280   1.480   0.854
29307WAT     H188163   3.214   1.464   0.927
29307WAT     H288164   3.337   1.559   0.877
29308WAT      O88165   3.341   1.689   7.144
29308WAT     H188166   3.253   1.642   7.132
29308WAT     H288167   3.403   1.631   7.195
29309WAT      O88168   3.007   2.626   7.016
29309WAT     H188169   3.020   2.708   6.961
29309WAT     H288170   2.911   2.620   7.045
29310WAT      O88171   3.431   2.311   6.064
29310WAT     H188172   3.456   2.401   6.028
29310WAT     H288173   3.370   2.321   6.141
29311WAT      O88174   6.435   3.587   5.772
29311WAT     H188175   6.343   3.583   5.732
29311WAT     H288176   6.446   3.674   5.821
29312WAT      O88177   8.746   0.596   3.435
29312WAT     H188178   8.686   0.626   3.360
29312WAT     H288179   8.820   0.541   3.398
29313WAT      O88180   1.995   4.792   0.978
29313WAT     H188181   1.921   4.811   0.912
29313WAT     H288182   2.031   4.700   0.960
29314WAT      O88183   0.237   7.193   5.848
29314WAT     H188184   0.328   7.231   5.865
29314WAT     H288185   0.242   7.093   5.855
29315WAT      O88186   7.010   7.622   8.596
29315WAT     H188187   6.951   7.542   8.605
29315WAT     H288188   7.106   7.593   8.596
29316WAT      O88189   7.476   0.446   1.186
29316WAT     H188190   7.483   0.503   1.268
29316WAT     H288191   7.471   0.349   1.213
29317WAT      O88192   7.577   1.012   3.834
29317WAT     H188193   7.559   0.967   3.747
29317WAT     H288194   7.495   1.060   3.865
29318WAT      O88195   6.651   5.921   3.269
29318WAT     H188196   6.744   5.928   3.304
29318WAT     H288197   6.653   5.897   3.172
29319WAT      O88198   1.390   4.055   3.061
29319WAT     H188199   1.456   4.041   3.135
29319WAT     H288200   1.354   3.967   3.030
29320WAT      O88201   4.479   1.833   6.524
29320WAT     H188202   4.420   1.754   6.543
29320WAT     H288203   4.548   1.840   6.596
29321WAT      O88204   0.153   1.377   3.600
29321WAT     H188205   0.107   1.327   3.674
29321WAT     H288206   0.190   1.311   3.534
29322WAT      O88207   2.601   2.918   8.308
29322WAT     H188208   2.547   2.996   8.340
29322WAT     H288209   2.641   2.870   8.386
29323WAT      O88210   5.981   9.746   2.396
29323WAT     H188211   6.028   9.764   2.310
29323WAT     H288212   6.046   9.710   2.463
29324WAT      O88213   0.898   5.920   9.327
29324WAT     H188214   0.960   5.844   9.345
29324WAT     H288215   0.813   5.907   9.378
29325WAT      O88216   6.451   8.542   5.466
29325WAT     H188217   6.461   8.503   5.374
29325WAT     H288218   6.356   8.536   5.494
29326WAT      O88219   7.017   4.392   5.044
29326WAT     H188220   6.955   4.448   4.989
29326WAT     H288221   7.101   4.375   4.992
29327WAT      O88222   9.596   6.823   6.359
29327WAT     H188223   9.668   6.790   6.297
29327WAT     H288224   9.586   6.921   6.349
29328WAT      O88225   1.829   7.024   0.365
29328WAT     H188226   1.752   7.039   0.428
29328WAT     H288227   1.799   7.041   0.272
29329WAT      O88228   7.631   8.241   4.974
29329WAT     H188229   7.702   8.241   4.904
29329WAT     H288230   7.612   8.335   5.001
29330WAT      O88231   1.111   8.522   2.336
29330WAT     H188232   1.140   8.499   2.243
29330WAT     H288233   1.073   8.441   2.380
29331WAT      O88234   0.469   1.160   3.106
29331WAT     H188235   0.444   1.064   3.091
29331WAT     H288236   0.415   1.218   3.047
29332WAT      O88237   7.620   6.425   2.559
29332WAT     H188238   7.682   6.469   2.494
29332WAT     H288239   7.622   6.326   2.544
29333WAT      O88240   7.714   3.583   4.612
29333WAT     H188241   7.787   3.600   4.545
29333WAT     H288242   7.709   3.485   4.632
29334WAT      O88243   8.453   9.821   7.602
29334WAT     H188244   8.476   9.832   7.505
29334WAT     H288245   8.474   9.906   7.650
29335WAT      O88246   4.547   6.599   8.191
29335WAT     H188247   4.477   6.644   8.136
29335WAT     H288248   4.527   6.501   8.197
29336WAT      O88249   7.215   2.599   0.837
29336WAT     H188250   7.124   2.564   0.858
29336WAT     H288251   7.208   2.692   0.802
29337WAT      O88252   0.308   5.286   2.599
29337WAT     H188253   0.401   5.272   2.564
29337WAT     H288254   0.249   5.317   2.525
29338WAT      O88255   4.722   0.592   4.932
29338WAT     H188256   4.767   0.514   4.888
29338WAT     H288257   4.625   0.593   4.907
29339WAT      O88258   4.227   0.825   8.656
29339WAT     H188259   4.184   0.751   8.708
29339WAT     H288260   4.286   0.878   8.716
29340WAT      O88261   6.150   5.900   8.577
29340WAT     H188262   6.217   5.956   8.625
29340WAT     H288263   6.069   5.955   8.556
29341WAT      O88264   7.002   8.058   5.893
29341WAT     H188265   7.079   8.008   5.932
29341WAT     H288266   7.034   8.111   5.814
29342WAT      O88267   3.226   8.727   0.322
29342WAT     H188268   3.131   8.759   0.316
29342WAT     H288269   3.260   8.709   0.230
29343WAT      O88270   7.909   1.396   2.436
29343WAT     H188271   7.907   1.302   2.402
29343WAT     H288272   7.815   1.427   2.452
29344WAT      O88273   5.334   8.365   1.851
29344WAT     H188274   5.374   8.275   1.872
29344WAT     H288275   5.251   8.351   1.797
29345WAT      O88276   6.514   6.313   7.867
29345WAT     H188277   6.421   6.279   7.875
29345WAT     H288278   6.517   6.410   7.889
29346WAT      O88279   9.255   7.780   6.920
29346WAT     H188280   9.309   7.696   6.931
29346WAT     H288281   9.189   7.767   6.847
29347WAT      O88282   1.708   4.799   4.626
29347WAT     H188283   1.648   4.870   4.662
29347WAT     H288284   1.735   4.738   4.701
29348WAT      O88285   9.847   2.609   2.101
29348WAT     H188286   9.939   2.639   2.130
29348WAT     H288287   9.787   2.689   2.096
29349WAT      O88288   5.333   6.069   6.394
29349WAT     H188289   5.350   6.068   6.492
29349WAT     H288290   5.243   6.031   6.374
29350WAT      O88291   7.430   1.883   3.191
29350WAT     H188292   7.473   1.871   3.281
29350WAT     H288293   7.449   1.976   3.158
29351WAT      O88294   9.479   0.978   9.078
29351WAT     H188295   9.492   0.907   9.147
29351WAT     H288296   9.474   0.936   8.988
29352WAT      O88297   5.768   1.984   8.519
29352WAT     H188298   5.857   1.939   8.528
29352WAT     H288299   5.725   1.956   8.433
29353WAT      O88300   9.694   2.562   4.767
29353WAT     H188301   9.757   2.510   4.824
29353WAT     H288302   9.746   2.616   4.700
29354WAT      O88303   2.788   6.122   6.433
29354WAT     H188304   2.854   6.165   6.494
29354WAT     H288305   2.822   6.032   6.406
29355WAT      O88306   5.457   0.182   6.056
29355WAT     H188307   5.495   0.274   6.047
29355WAT     H288308   5.383   0.183   6.123
29356WAT      O88309   3.256   7.283   8.655
29356WAT     H188310   3.312   7.201   8.669
29356WAT     H288311   3.311   7.364   8.676
29357WAT      O88312   3.689   2.511   2.631
29357WAT     H188313   3.694   2.602   2.672
29357WAT     H288314   3.689   2.519   2.532
29358WAT      O88315   7.601   8.553   3.870
29358WAT     H188316   7.530   8.503   3.820
29358WAT     H288317   7.661   8.488   3.917
29359WAT      O88318   5.873   2.898   8.959
29359WAT     H188319   5.825   2.818   8.995
29359WAT     H288320   5.970   2.894   8.985
29360WAT      O88321   1.489   8.434   8.026
29360WAT     H188322   1.504   8.442   8.124
29360WAT     H288323   1.403   8.386   8.009
29361WAT      O88324   2.356   1.793   1.022
29361WAT     H188325   2.280   1.846   1.061
29361WAT     H288326   2.364   1.707   1.071
29362WAT      O88327   8.986   5.779   0.352
29362WAT     H188328   9.048   5.817   0.283
29362WAT     H288329   8.911   5.844   0.367
29363WAT      O88330   7.137   1.523   6.410
29363WAT     H188331   7.132   1.424   6.404
29363WAT     H288332   7.198   1.558   6.339
29364WAT      O88333   3.348   4.997   0.751
29364WAT     H188334   3.304   5.075   0.796
29364WAT     H288335   3.362   5.017   0.654
29365WAT      O88336   8.959   4.186   0.203
29365WAT     H188337   9.023   4.119   0.165
29365WAT     H288338   8.885   4.139   0.250
29366WAT      O88339   4.527   8.034   9.839
29366WAT     H188340   4.572   8.123   9.826
29366WAT     H288341   4.431   8.041   9.811
29367WAT      O88342   5.102   0.250   5.232
29367WAT     H188343   5.177   0.190   5.261
29367WAT     H288344   5.126   0.295   5.146
29368WAT      O88345   6.864   1.239   7.164
29368WAT     H188346   6.841   1.175   7.090
29368WAT     H288347   6.945   1.205   7.213
29369WAT      O88348   1.633   8.627   2.627
29369WAT     H188349   1.597   8.617   2.720
29369WAT     H288350   1.559   8.622   2.561
29370WAT      O88351   3.122   6.310   0.646
29370WAT     H188352   3.033   6.290   0.687
29370WAT     H288353   3.140   6.245   0.573
29371WAT      O88354   8.768   3.244   1.749
29371WAT     H188355   8.855   3.290   1.763
29371WAT     H288356   8.759   3.168   1.813
29372WAT      O88357   7.038   3.018   5.992
29372WAT     H188358   7.092   3.086   5.943
29372WAT     H288359   6.941   3.032   5.974
29373WAT      O88360   3.015   4.649   6.767
29373WAT     H188361   2.981   4.632   6.675
29373WAT     H288362   3.102   4.602   6.780
29374WAT      O88363   7.647   4.223   7.013
29374WAT     H188364   7.580   4.242   7.086
29374WAT     H288365   7.605   4.240   6.924
29375WAT      O88366   1.404   5.485   7.744
29375WAT     H188367   1.310   5.497   7.776
29375WAT     H288368   1.404   5.466   7.646
29376WAT      O88369   5.777   8.833   2.945
29376WAT     H188370   5.846   8.899   2.914
29376WAT     H288371   5.795   8.744   2.903
29377WAT      O88372   7.926   4.778   5.528
29377WAT     H188373   7.945   4.813   5.620
29377WAT     H288374   7.963   4.686   5.520
29378WAT      O88375   1.881   0.430   4.509
29378WAT     H188376   1.832   0.362   4.563
29378WAT     H288377   1.848   0.522   4.531
29379WAT      O88378   5.778   6.205   7.318
29379WAT     H188379   5.781   6.145   7.398
29379WAT     H288380   5.792   6.151   7.235
29380WAT      O88381   8.085   5.854   9.171
29380WAT     H188382   7.987   5.873   9.182
29380WAT     H288383   8.127   5.925   9.115
29381WAT      O88384   8.403   2.360   4.720
29381WAT     H188385   8.391   2.302   4.639
29381WAT     H288386   8.391   2.305   4.802
29382WAT      O88387   0.250   2.700   7.578
29382WAT     H188388   0.298   2.772   7.527
29382WAT     H288389   0.312   2.622   7.592
29383WAT      O88390   5.312   1.030   5.693
29383WAT     H188391   5.289   0.944   5.648
29383WAT     H288392   5.276   1.030   5.786
29384WAT      O88393   1.431   7.241   6.802
29384WAT     H188394   1.513   7.198   6.839
29384WAT     H288395   1.419   7.331   6.845
29385WAT      O88396   7.331   7.906   7.991
29385WAT     H188397   7.254   7.959   8.027
29385WAT     H288398   7.406   7.967   7.967
29386WAT      O88399   7.676   7.252   5.379
29386WAT     H188400   7.717   7.328   5.429
29386WAT     H288401   7.700   7.166   5.423
29387WAT      O88402   5.908   5.046   6.185
29387WAT     H188403   5.837   5.101   6.142
29387WAT     H288404   5.870   4.998   6.264
29388WAT      O88405   9.065   9.196   8.566
29388WAT     H188406   9.060   9.146   8.480
29388WAT     H288407   9.122   9.146   8.631
29389WAT      O88408   9.360   8.363   6.563
29389WAT     H188409   9.403   8.412   6.486
29389WAT     H288410   9.360   8.265   6.544
29390WAT      O88411   6.660   9.258   3.490
29390WAT     H188412   6.744   9.263   3.436
29390WAT     H288413   6.582   9.253   3.428
29391WAT      O88414   7.301   7.709   6.294
29391WAT     H188415   7.396   7.682   6.306
29391WAT     H288416   7.255   7.707   6.383
29392WAT      O88417   8.625   0.147   0.299
29392WAT     H188418   8.623   0.055   0.257
29392WAT     H288419   8.533   0.187   0.294
29393WAT      O88420   5.869   4.521   0.846
29393WAT     H188421   5.921   4.599   0.882
29393WAT     H288422   5.907   4.495   0.757
29394WAT      O88423   6.364   3.606   2.768
29394WAT     H188424   6.308   3.528   2.795
29394WAT     H288425   6.349   3.627   2.671
29395WAT      O88426   7.777   1.451   3.264
29395WAT     H188427   7.761   1.549   3.274
29395WAT     H288428   7.874   1.431   3.276
29396WAT      O88429   0.633   1.911   1.118
29396WAT     H188430   0.710   1.856   1.152
29396WAT     H288431   0.606   1.977   1.189
29397WAT      O88432   6.395   2.139   0.287
29397WAT     H188433   6.374   2.075   0.213
29397WAT     H288434   6.446   2.217   0.250
29398WAT      O88435   4.832   4.046   2.955
29398WAT     H188436   4.841   3.988   3.036
29398WAT     H288437   4.745   4.029   2.910
29399WAT      O88438   6.950   9.176   2.697
29399WAT     H188439   7.011   9.142   2.769
29399WAT     H288440   6.886   9.242   2.736
29400WAT      O88441   0.417   6.031   3.352
29400WAT     H188442   0.439   6.038   3.449
29400WAT     H288443   0.472   5.959   3.310
29401WAT      O88444   3.609   8.095   7.966
29401WAT     H188445   3.663   8.112   8.048
29401WAT     H288446   3.534   8.161   7.960
29402WAT      O88447   1.220   2.993   8.152
29402WAT     H188448   1.157   2.918   8.172
29402WAT     H288449   1.249   3.037   8.237
29403WAT      O88450   4.675   4.791   3.793
29403WAT     H188451   4.580   4.805   3.822
29403WAT     H288452   4.690   4.693   3.778
29404WAT      O88453   9.246   3.480   5.996
29404WAT     H188454   9.303   3.545   6.046
29404WAT     H288455   9.150   3.508   6.002
29405WAT      O88456   5.251   2.034   9.133
29405WAT     H188457   5.234   2.104   9.064
29405WAT     H288458   5.348   2.007   9.130
29406WAT      O88459   2.160   4.635   3.711
29406WAT     H188460   2.192   4.698   3.782
29406WAT     H288461   2.165   4.679   3.622
29407WAT      O88462   5.108   6.077   8.430
29407WAT     H188463   5.141   6.151   8.489
29407WAT     H288464   5.129   6.099   8.335
29408WAT      O88465   1.359   4.917   9.297
29408WAT     H188466   1.432   4.939   9.232
29408WAT     H288467   1.309   4.837   9.266
29409WAT      O88468   0.111   2.013   4.422
29409WAT     H188469   0.021   1.994   4.382
29409WAT     H288470   0.102   2.024   4.521
29410WAT      O88471   2.854   5.608   5.496
29410WAT     H188472   2.873   5.515   5.525
29410WAT     H288473   2.890   5.622   5.404
29411WAT      O88474   7.207   9.487   1.007
29411WAT     H188475   7.205   9.530   0.917
29411WAT     H288476   7.113   9.476   1.041
29412WAT      O88477   4.048   1.097   1.899
29412WAT     H188478   3.968   1.053   1.940
29412WAT     H288479   4.022   1.142   1.814
29413WAT      O88480   9.799   7.529   6.589
29413WAT     H188481   9.827   7.574   6.674
29413WAT     H288482   9.818   7.590   6.511
29414WAT      O88483   9.853   4.138   5.129
29414WAT     H188484   9.823   4.056   5.080
29414WAT     H288485   9.917   4.113   5.201
29415WAT      O88486   3.669   7.470   0.493
29415WAT     H188487   3.670   7.535   0.569
29415WAT     H288488   3.576   7.433   0.482
29416WAT      O88489   1.068   9.430   6.577
29416WAT     H188490   1.155   9.479   6.567
29416WAT     H288491   0.994   9.497   6.587
29417WAT      O88492   2.290   2.346   5.649
29417WAT     H188493   2.328   2.349   5.742
29417WAT     H288494   2.293   2.253   5.615
29418WAT      O88495   6.025   1.768   4.395
29418WAT     H188496   6.019   1.829   4.316
29418WAT     H288497   6.110   1.716   4.391
29419WAT      O88498   6.974   6.573   6.450
29419WAT     H188499   6.908   6.580   6.375
29419WAT     H288500   6.968   6.482   6.491
29420WAT      O88501   7.600   1.233   8.111
29420WAT     H188502   7.667   1.296   8.149
29420WAT     H288503   7.626   1.139   8.132
29421WAT      O88504   9.511   5.656   5.234
29421WAT     H188505   9.446   5.665   5.159
29421WAT     H288506   9.566   5.573   5.220
29422WAT      O88507   9.861   6.743   7.236
29422WAT     H188508   9.806   6.811   7.285
29422WAT     H288509   9.915   6.690   7.302
29423WAT      O88510   5.920   5.299   9.296
29423WAT     H188511   5.916   5.397   9.273
29423WAT     H288512   5.980   5.286   9.375
29424WAT      O88513   2.143   6.727   4.036
29424WAT     H188514   2.206   6.802   4.019
29424WAT     H288515   2.097   6.702   3.950
29425WAT      O88516   1.422   1.836   3.415
29425WAT     H188517   1.458   1.927   3.398
29425WAT     H288518   1.420   1.784   3.330
29426WAT      O88519   8.825   6.057   5.632
29426WAT     H188520   8.775   5.972   5.651
29426WAT     H288521   8.768   6.116   5.574
29427WAT      O88522   8.318   7.792   8.254
29427WAT     H188523   8.389   7.780   8.185
29427WAT     H288524   8.236   7.742   8.226
29428WAT      O88525   6.711   0.714   1.688
29428WAT     H188526   6.761   0.797   1.713
29428WAT     H288527   6.776   0.643   1.659
29429WAT      O88528   3.180   3.647   1.731
29429WAT     H188529   3.168   3.600   1.819
29429WAT     H288530   3.154   3.743   1.740
29430WAT      O88531   3.575   3.437   5.086
29430WAT     H188532   3.541   3.434   4.992
29430WAT     H288533   3.538   3.359   5.137
29431WAT      O88534   3.257   7.452   1.273
29431WAT     H188535   3.225   7.438   1.367
29431WAT     H288536   3.313   7.534   1.269
29432WAT      O88537   3.491   9.030   4.728
29432WAT     H188538   3.501   9.018   4.826
29432WAT     H288539   3.533   8.952   4.680
29433WAT      O88540   1.008   8.254   7.438
29433WAT     H188541   1.048   8.205   7.361
29433WAT     H288542   0.917   8.288   7.413
29434WAT      O88543   5.957   9.650   0.655
29434WAT     H188544   6.014   9.673   0.576
29434WAT     H288545   5.974   9.716   0.728
29435WAT      O88546   1.360   1.023   6.960
29435WAT     H188547   1.424   1.014   6.884
29435WAT     H288548   1.410   1.035   7.045
29436WAT      O88549   1.599   0.468   3.934
29436WAT     H188550   1.612   0.441   3.839
29436WAT     H288551   1.680   0.518   3.965
29437WAT      O88552   4.983   6.109   5.578
29437WAT     H188553   5.035   6.173   5.522
29437WAT     H288554   4.886   6.119   5.558
29438WAT      O88555   6.627   5.885   1.364
29438WAT     H188556   6.562   5.959   1.347
29438WAT     H288557   6.681   5.905   1.446
29439WAT      O88558   6.754   2.177   9.067
29439WAT     H188559   6.690   2.141   9.136
29439WAT     H288560   6.808   2.251   9.107
29440WAT      O88561   1.550   3.567   5.116
29440WAT     H188562   1.481   3.567   5.043
29440WAT     H288563   1.506   3.585   5.203
29441WAT      O88564   9.051   7.993   9.523
29441WAT     H188565   9.001   7.974   9.607
29441WAT     H288566   9.105   7.913   9.497
29442WAT      O88567   7.519   3.105   4.217
29442WAT     H188568   7.583   3.123   4.293
29442WAT     H288569   7.498   3.192   4.171
29443WAT      O88570   7.020   0.981   2.183
29443WAT     H188571   7.097   1.045   2.187
29443WAT     H288572   6.968   0.996   2.099
29444WAT      O88573   1.434   4.427   2.667
29444WAT     H188574   1.411   4.522   2.687
29444WAT     H288575   1.360   4.368   2.702
29445WAT      O88576   2.368   8.268   7.481
29445WAT     H188577   2.343   8.217   7.399
29445WAT     H288578   2.413   8.206   7.546
29446WAT      O88579   8.340   7.572   6.016
29446WAT     H188580   8.398   7.647   5.984
29446WAT     H288581   8.305   7.521   5.937
29447WAT      O88582   7.275   1.864   5.215
29447WAT     H188583   7.352   1.874   5.278
29447WAT     H288584   7.257   1.767   5.198
29448WAT      O88585   7.868   1.168   9.616
29448WAT     H188586   7.806   1.089   9.610
29448WAT     H288587   7.896   1.194   9.524
29449WAT      O88588   8.409   4.971   3.096
29449WAT     H188589   8.497   5.015   3.081
29449WAT     H288590   8.375   4.994   3.188
29450WAT      O88591   1.349   2.638   4.168
29450WAT     H188592   1.431   2.651   4.113
29450WAT     H288593   1.345   2.543   4.199
29451WAT      O88594   1.573   6.360   8.572
29451WAT     H188595   1.593   6.454   8.601
29451WAT     H288596   1.583   6.352   8.473
29452WAT      O88597   2.023   6.152   5.314
29452WAT     H188598   1.936   6.186   5.350
29452WAT     H288599   2.098   6.190   5.368
29453WAT      O88600   5.493   5.595   8.094
29453WAT     H188601   5.519   5.655   8.018
29453WAT     H288602   5.572   5.539   8.121
29454WAT      O88603   1.808   4.639   9.025
29454WAT     H188604   1.804   4.597   8.934
29454WAT     H288605   1.870   4.717   9.023
29455WAT      O88606   4.981   8.447   4.722
29455WAT     H188607   4.886   8.478   4.717
29455WAT     H288608   4.983   8.348   4.732
29456WAT      O88609   4.762   4.194   4.312
29456WAT     H188610   4.708   4.126   4.361
29456WAT     H288611   4.719   4.284   4.321
29457WAT      O88612   5.730   6.367   9.086
29457WAT     H188613   5.656   6.305   9.110
29457WAT     H288614   5.772   6.402   9.170
29458WAT      O88615   4.921   9.358   6.748
29458WAT     H188616   4.833   9.405   6.761
29458WAT     H288617   4.995   9.425   6.746
29459WAT      O88618   6.592   5.009   5.236
29459WAT     H188619   6.506   5.052   5.211
29459WAT     H288620   6.574   4.929   5.294
29460WAT      O88621   6.506   1.467   9.393
29460WAT     H188622   6.495   1.438   9.298
29460WAT     H288623   6.585   1.421   9.433
29461WAT      O88624   1.278   5.928   9.274
29461WAT     H188625   1.368   5.898   9.244
29461WAT     H288626   1.223   5.954   9.194
29462WAT      O88627   4.282   8.752   6.279
29462WAT     H188628   4.291   8.850   6.299
29462WAT     H288629   4.245   8.740   6.187
29463WAT      O88630   8.738   1.388   5.244
29463WAT     H188631   8.764   1.313   5.183
29463WAT     H288632   8.774   1.371   5.335
29464WAT      O88633   7.434   1.715   3.976
29464WAT     H188634   7.353   1.761   4.014
29464WAT     H288635   7.450   1.630   4.027
29465WAT      O88636   0.510   2.740   2.989
29465WAT     H188637   0.559   2.815   2.944
29465WAT     H288638   0.499   2.761   3.086
29466WAT      O88639   7.908   2.336   4.888
29466WAT     H188640   7.820   2.349   4.933
29466WAT     H288641   7.960   2.266   4.936
29467WAT      O88642   4.624   1.364   5.882
29467WAT     H188643   4.532   1.329   5.898
29467WAT     H288644   4.689   1.288   5.879
29468WAT      O88645   3.644   3.940   4.385
29468WAT     H188646   3.578   3.993   4.333
29468WAT     H288647   3.693   3.878   4.324
29469WAT      O88648   9.489   3.600   4.364
29469WAT     H188649   9.423   3.674   4.355
29469WAT     H288650   9.579   3.632   4.333
29470WAT      O88651   4.951   1.302   8.365
29470WAT     H188652   4.988   1.291   8.457
29470WAT     H288653   5.014   1.356   8.310
29471WAT      O88654   3.866   3.195   9.758
29471WAT     H188655   3.869   3.240   9.669
29471WAT     H288656   3.959   3.178   9.791
29472WAT      O88657   3.836   7.857   7.298
29472WAT     H188658   3.805   7.809   7.380
29472WAT     H288659   3.837   7.795   7.220
29473WAT      O88660   6.241   1.010   2.913
29473WAT     H188661   6.186   1.021   2.995
29473WAT     H288662   6.204   0.934   2.859
29474WAT      O88663   6.213   3.634   8.013
29474WAT     H188664   6.141   3.679   8.065
29474WAT     H288665   6.297   3.686   8.021
29475WAT      O88666   2.274   5.704   5.840
29475WAT     H188667   2.247   5.801   5.839
29475WAT     H288668   2.282   5.673   5.934
29476WAT      O88669   6.503   1.022   5.495
29476WAT     H188670   6.473   1.027   5.400
29476WAT     H288671   6.555   1.104   5.518
29477WAT      O88672   9.452   9.368   6.659
29477WAT     H188673   9.395   9.365   6.576
29477WAT     H288674   9.541   9.406   6.637
29478WAT      O88675   2.169   5.392   9.707
29478WAT     H188676   2.116   5.365   9.788
29478WAT     H288677   2.112   5.383   9.626
29479WAT      O88678   0.308   3.968   6.492
29479WAT     H188679   0.296   4.060   6.455
29479WAT     H288680   0.266   3.901   6.430
29480WAT      O88681   4.297   8.238   8.306
29480WAT     H188682   4.281   8.319   8.250
29480WAT     H288683   4.329   8.163   8.249
29481WAT      O88684   3.678   9.245   6.822
29481WAT     H188685   3.650   9.213   6.732
29481WAT     H288686   3.749   9.315   6.812
29482WAT      O88687   1.698   8.092   2.894
29482WAT     H188688   1.753   8.159   2.945
29482WAT     H288689   1.617   8.069   2.947
29483WAT      O88690   3.101   0.436   8.439
29483WAT     H188691   3.102   0.534   8.460
29483WAT     H288692   3.055   0.388   8.514
29484WAT      O88693   1.104   3.591   0.890
29484WAT     H188694   1.197   3.626   0.876
29484WAT     H288695   1.047   3.663   0.931
29485WAT      O88696   1.237   0.139   2.382
29485WAT     H188697   1.172   0.101   2.316
29485WAT     H288698   1.194   0.145   2.472
29486WAT      O88699   2.183   5.719   6.810
29486WAT     H188700   2.191   5.793   6.877
29486WAT     H288701   2.232   5.745   6.726
29487WAT      O88702   4.629   1.287   7.292
29487WAT     H188703   4.601   1.201   7.251
29487WAT     H288704   4.721   1.310   7.260
29488WAT      O88705   3.883   2.442   7.835
29488WAT     H188706   3.844   2.350   7.836
29488WAT     H288707   3.931   2.460   7.921
29489WAT      O88708   6.651   3.611   6.896
29489WAT     H188709   6.609   3.633   6.984
29489WAT     H288710   6.745   3.646   6.895
29490WAT      O88711   9.243   8.240   8.295
29490WAT     H188712   9.320   8.206   8.349
29490WAT     H288713   9.158   8.199   8.328
29491WAT      O88714   6.075   5.437   2.696
29491WAT     H188715   6.131   5.413   2.776
29491WAT     H288716   5.983   5.462   2.726
29492WAT      O88717   3.658   3.109   7.892
29492WAT     H188718   3.697   3.090   7.982
29492WAT     H288719   3.733   3.126   7.827
29493WAT      O88720   7.268   8.159   6.026
29493WAT     H188721   7.177   8.199   6.017
29493WAT     H288722   7.275   8.112   6.114
29494WAT      O88723   6.164   6.218   8.430
29494WAT     H188724   6.193   6.313   8.416
29494WAT     H288725   6.229   6.172   8.490
29495WAT      O88726   1.242   3.411   0.448
29495WAT     H188727   1.245   3.352   0.529
29495WAT     H288728   1.203   3.499   0.473
29496WAT      O88729   3.427   8.299   7.945
29496WAT     H188730   3.393   8.318   8.037
29496WAT     H288731   3.494   8.368   7.919
29497WAT      O88732   3.584   7.192   2.502
29497WAT     H188733   3.620   7.119   2.561
29497WAT     H288734   3.509   7.156   2.447
29498WAT      O88735   8.178   2.903   2.441
29498WAT     H188736   8.261   2.849   2.452
29498WAT     H288737   8.139   2.923   2.532
29499WAT      O88738   7.046   9.516   8.087
29499WAT     H188739   7.126   9.576   8.081
29499WAT     H288740   7.000   9.513   7.998
29500WAT      O88741   2.310   2.027   4.015
29500WAT     H188742   2.283   1.992   3.925
29500WAT     H288743   2.294   2.125   4.018
29501WAT      O88744   1.486   4.889   3.355
29501WAT     H188745   1.502   4.898   3.453
29501WAT     H288746   1.399   4.842   3.339
29502WAT      O88747   6.170   3.437   7.557
29502WAT     H188748   6.207   3.434   7.650
29502WAT     H288749   6.103   3.364   7.546
29503WAT      O88750   3.788   0.435   9.709
29503WAT     H188751   3.793   0.532   9.689
29503WAT     H288752   3.782   0.383   9.624
29504WAT      O88753   3.897   2.865   6.863
29504WAT     H188754   3.940   2.855   6.953
29504WAT     H288755   3.798   2.865   6.874
29505WAT      O88756   9.254   7.920   5.436
29505WAT     H188757   9.207   8.000   5.398
29505WAT     H288758   9.347   7.916   5.400
29506WAT      O88759   0.443   8.979   0.288
29506WAT     H188760   0.440   9.069   0.331
29506WAT     H288761   0.370   8.921   0.326
29507WAT      O88762   1.049   0.620   0.239
29507WAT     H188763   0.976   0.555   0.261
29507WAT     H288764   1.137   0.583   0.272
29508WAT      O88765   1.599   9.226   5.069
29508WAT     H188766   1.688   9.209   5.025
29508WAT     H288767   1.601   9.317   5.111
29509WAT      O88768   9.758   7.652   1.545
29509WAT     H188769   9.741   7.570   1.491
29509WAT     H288770   9.780   7.625   1.639
29510WAT      O88771   9.079   0.014   9.633
29510WAT     H188772   8.989  -0.030   9.639
29510WAT     H288773   9.147  -0.053   9.604
29511WAT      O88774   6.593   1.278   0.163
29511WAT     H188775   6.621   1.374   0.153
29511WAT     H288776   6.560   1.244   0.075
29512WAT      O88777   6.898   3.723   3.095
29512WAT     H188778   6.882   3.625   3.086
29512WAT     H288779   6.961   3.753   3.024
29513WAT      O88780   5.014   2.161   7.496
29513WAT     H188781   5.053   2.082   7.544
29513WAT     H288782   5.007   2.141   7.398
29514WAT      O88783   6.488   1.475   8.387
29514WAT     H188784   6.469   1.569   8.415
29514WAT     H288785   6.422   1.414   8.432
29515WAT      O88786   7.350   7.534   3.918
29515WAT     H188787   7.299   7.525   3.833
29515WAT     H288788   7.395   7.447   3.940
29516WAT      O88789   3.305   3.770   9.888
29516WAT     H188790   3.403   3.772   9.869
29516WAT     H288791   3.282   3.842   9.954
29517WAT      O88792   6.886   5.441   5.323
29517WAT     H188793   6.837   5.360   5.292
29517WAT     H288794   6.985   5.425   5.315
29518WAT      O88795   7.654   6.006   0.390
29518WAT     H188796   7.697   6.079   0.337
29518WAT     H288797   7.721   5.935   0.408
29519WAT      O88798   5.297   6.580   1.427
29519WAT     H188799   5.389   6.541   1.414
29519WAT     H288800   5.230   6.506   1.425
29520WAT      O88801   0.457   0.753   5.961
29520WAT     H188802   0.422   0.736   5.869
29520WAT     H288803   0.381   0.776   6.022
29521WAT      O88804   1.237   8.376   5.388
29521WAT     H188805   1.225   8.279   5.366
29521WAT     H288806   1.262   8.385   5.484
29522WAT      O88807   6.816   3.014   8.360
29522WAT     H188808   6.717   3.022   8.363
29522WAT     H288809   6.843   2.959   8.281
29523WAT      O88810   8.190   0.626   1.404
29523WAT     H188811   8.216   0.682   1.325
29523WAT     H288812   8.256   0.552   1.416
29524WAT      O88813   6.909   4.709   6.511
29524WAT     H188814   6.822   4.757   6.509
29524WAT     H288815   6.896   4.614   6.482
29525WAT      O88816   8.712   1.371   3.933
29525WAT     H188817   8.685   1.351   4.027
29525WAT     H288818   8.776   1.448   3.932
29526WAT      O88819   9.666   9.443   3.889
29526WAT     H188820   9.604   9.440   3.967
29526WAT     H288821   9.621   9.486   3.811
29527WAT      O88822   6.728   8.529   3.574
29527WAT     H188823   6.654   8.595   3.564
29527WAT     H288824   6.705   8.447   3.521
29528WAT      O88825   0.582   5.110   9.340
29528WAT     H188826   0.523   5.111   9.259
29528WAT     H288827   0.677   5.123   9.313
29529WAT      O88828   2.667   3.203   3.863
29529WAT     H188829   2.733   3.232   3.792
29529WAT     H288830   2.611   3.281   3.889
29530WAT      O88831   1.476   0.476   2.021
29530WAT     H188832   1.405   0.481   1.951
29530WAT     H288833   1.493   0.566   2.059
29531WAT      O88834   4.295   6.852   1.670
29531WAT     H188835   4.224   6.862   1.600
29531WAT     H288836   4.274   6.773   1.728
29532WAT      O88837   1.765   4.759   0.791
29532WAT     H188838   1.744   4.824   0.717
29532WAT     H288839   1.793   4.671   0.751
29533WAT      O88840   6.359   2.656   1.644
29533WAT     H188841   6.421   2.579   1.661
29533WAT     H288842   6.264   2.623   1.645
29534WAT      O88843   5.851   6.478   5.144
29534WAT     H188844   5.896   6.463   5.232
29534WAT     H288845   5.836   6.389   5.100
29535WAT      O88846   9.573   1.935   4.040
29535WAT     H188847   9.499   1.990   4.078
29535WAT     H288848   9.547   1.838   4.043
29536WAT      O88849   7.032   3.280   2.173
29536WAT     H188850   7.033   3.338   2.092
29536WAT     H288851   6.991   3.192   2.150
29537WAT      O88852   1.036   3.419   9.372
29537WAT     H188853   1.065   3.494   9.432
29537WAT     H288854   0.937   3.409   9.376
29538WAT      O88855   7.630   5.281   9.345
29538WAT     H188856   7.536   5.269   9.311
29538WAT     H288857   7.644   5.222   9.425
29539WAT      O88858   2.046   5.348   1.726
29539WAT     H188859   2.029   5.379   1.633
29539WAT     H288860   2.037   5.426   1.789
29540WAT      O88861   7.424   0.115   9.318
29540WAT     H188862   7.376   0.140   9.402
29540WAT     H288863   7.491   0.044   9.336
29541WAT      O88864   6.309   2.932   8.704
29541WAT     H188865   6.250   3.011   8.721
29541WAT     H288866   6.349   2.902   8.791
29542WAT      O88867   6.716   5.391   3.716
29542WAT     H188868   6.637   5.416   3.659
29542WAT     H288869   6.718   5.449   3.797
29543WAT      O88870   2.009   6.164   4.684
29543WAT     H188871   2.049   6.140   4.596
29543WAT     H288872   2.082   6.175   4.752
29544WAT      O88873   1.609   5.614   1.787
29544WAT     H188874   1.538   5.670   1.831
29544WAT     H288875   1.645   5.663   1.708
29545WAT      O88876   6.960   0.012   9.322
29545WAT     H188877   7.030   0.004   9.251
29545WAT     H288878   6.876   0.050   9.282
29546WAT      O88879   5.217   3.493   1.112
29546WAT     H188880   5.309   3.523   1.088
29546WAT     H288881   5.163   3.572   1.141
29547WAT      O88882   0.264   8.054   0.686
29547WAT     H188883   0.343   8.066   0.746
29547WAT     H288884   0.205   7.982   0.723
29548WAT      O88885   8.946   3.554   5.055
29548WAT     H188886   8.914   3.506   4.974
29548WAT     H288887   8.869   3.600   5.100
29549WAT      O88888   7.680   0.525   6.559
29549WAT     H188889   7.707   0.597   6.622
29549WAT     H288890   7.660   0.441   6.611
29550WAT      O88891   8.836   3.299   4.867
29550WAT     H188892   8.931   3.266   4.865
29550WAT     H288893   8.785   3.248   4.937
29551WAT      O88894   0.255   1.187   1.767
29551WAT     H188895   0.170   1.212   1.814
29551WAT     H288896   0.244   1.204   1.669
29552WAT      O88897   7.612   7.861   5.251
29552WAT     H188898   7.682   7.841   5.182
29552WAT     H288899   7.643   7.829   5.340
29553WAT      O88900   8.712   1.294   8.256
29553WAT     H188901   8.773   1.270   8.181
29553WAT     H288902   8.733   1.238   8.336
29554WAT      O88903   0.314   8.806   2.591
29554WAT     H188904   0.394   8.751   2.565
29554WAT     H288905   0.242   8.746   2.624
29555WAT      O88906   7.406   3.963   8.184
29555WAT     H188907   7.335   4.023   8.223
29555WAT     H288908   7.363   3.879   8.149
29556WAT      O88909   2.877   3.095   3.092
29556WAT     H188910   2.943   3.064   3.023
29556WAT     H288911   2.874   3.194   3.093
29557WAT      O88912   8.146   6.227   3.066
29557WAT     H188913   8.107   6.138   3.090
29557WAT     H288914   8.082   6.300   3.091
29558WAT      O88915   3.859   6.902   1.214
29558WAT     H188916   3.815   6.813   1.222
29558WAT     H288917   3.852   6.951   1.300
29559WAT      O88918   0.620   2.613   1.328
29559WAT     H188919   0.618   2.696   1.273
29559WAT     H288920   0.643   2.637   1.423
29560WAT      O88921   9.834   9.028   0.988
29560WAT     H188922   9.749   8.977   1.001
29560WAT     H288923   9.861   9.023   0.892
29561WAT      O88924   4.638   6.275   2.509
29561WAT     H188925   4.558   6.262   2.450
29561WAT     H288926   4.654   6.373   2.522
29562WAT      O88927   0.426   6.710   9.543
29562WAT     H188928   0.377   6.627   9.517
29562WAT     H288929   0.374   6.790   9.513
29563WAT      O88930   8.914   9.633   3.342
29563WAT     H188931   8.854   9.571   3.293
29563WAT     H288932   8.866   9.671   3.421
29564WAT      O88933   3.891   6.764   1.580
29564WAT     H188934   3.865   6.669   1.565
29564WAT     H288935   3.808   6.819   1.595
29565WAT      O88936   4.207   4.936   5.034
29565WAT     H188937   4.225   4.974   4.943
29565WAT     H288938   4.109   4.932   5.050
29566WAT      O88939   2.490   5.114   9.747
29566WAT     H188940   2.489   5.191   9.683
29566WAT     H288941   2.423   5.131   9.820
29567WAT      O88942   3.356   3.660   4.501
29567WAT     H188943   3.359   3.759   4.515
29567WAT     H288944   3.447   3.621   4.516
29568WAT      O88945   1.794   9.626   8.575
29568WAT     H188946   1.728   9.686   8.620
29568WAT     H288947   1.884   9.669   8.574
29569WAT      O88948   8.209   2.339   3.022
29569WAT     H188949   8.116   2.373   3.011
29569WAT     H288950   8.234   2.282   2.943
29570WAT      O88951   6.889   1.058   0.689
29570WAT     H188952   6.853   1.118   0.618
29570WAT     H288953   6.960   1.106   0.741
29571WAT      O88954   0.975   1.956   4.732
29571WAT     H188955   0.992   2.033   4.670
29571WAT     H288956   0.982   1.986   4.827
29572WAT      O88957   2.397   4.345   2.705
29572WAT     H188958   2.390   4.246   2.710
29572WAT     H288959   2.469   4.370   2.640
29573WAT      O88960   5.444   8.716   8.844
29573WAT     H188961   5.487   8.805   8.828
29573WAT     H288962   5.362   8.728   8.900
29574WAT      O88963   7.329   8.924   7.927
29574WAT     H188964   7.426   8.951   7.931
29574WAT     H288965   7.276   8.998   7.885
29575WAT      O88966   8.594   5.630   4.017
29575WAT     H188967   8.508   5.580   4.029
29575WAT     H288968   8.670   5.572   4.045
29576WAT      O88969   4.582   4.790   0.336
29576WAT     H188970   4.598   4.806   0.239
29576WAT     H288971   4.483   4.779   0.352
29577WAT      O88972   1.972   7.265   3.976
29577WAT     H188973   1.975   7.348   4.031
29577WAT     H288974   1.882   7.256   3.934
29578WAT      O88975   4.521   7.635   5.406
29578WAT     H188976   4.545   7.538   5.415
29578WAT     H288977   4.503   7.673   5.497
29579WAT      O88978   8.422   8.412   7.165
29579WAT     H188979   8.511   8.452   7.184
29579WAT     H288980   8.426   8.313   7.180
29580WAT      O88981   0.183   5.633   7.226
29580WAT     H188982   0.207   5.585   7.142
29580WAT     H288983   0.173   5.566   7.300
29581WAT      O88984   3.523   0.163   2.046
29581WAT     H188985   3.584   0.194   1.973
29581WAT     H288986   3.448   0.109   2.007
29582WAT      O88987   8.901   6.943   8.006
29582WAT     H188988   8.876   6.917   7.912
29582WAT     H288989   8.837   6.901   8.070
29583WAT      O88990   8.719   1.146   7.067
29583WAT     H188991   8.804   1.108   7.103
29583WAT     H288992   8.650   1.074   7.063
29584WAT      O88993   8.437   6.721   2.007
29584WAT     H188994   8.489   6.795   1.964
29584WAT     H288995   8.468   6.633   1.972
29585WAT      O88996   4.533   1.522   0.578
29585WAT     H188997   4.504   1.603   0.527
29585WAT     H288998   4.633   1.515   0.575
29586WAT      O88999   9.488   8.136   7.504
29586WAT     H189000   9.525   8.087   7.425
29586WAT     H289001   9.459   8.228   7.476
29587WAT      O89002   1.880   8.420   5.554
29587WAT     H189003   1.865   8.321   5.557
29587WAT     H289004   1.940   8.447   5.630
29588WAT      O89005   9.575   8.564   5.664
29588WAT     H189006   9.557   8.546   5.761
29588WAT     H289007   9.497   8.533   5.609
29589WAT      O89008   1.801   3.225   5.743
29589WAT     H189009   1.867   3.151   5.730
29589WAT     H289010   1.850   3.312   5.750
29590WAT      O89011   8.611   2.609   7.239
29590WAT     H189012   8.534   2.654   7.193
29590WAT     H289013   8.602   2.510   7.231
29591WAT      O89014   4.842   6.266   1.017
29591WAT     H189015   4.855   6.242   0.921
29591WAT     H289016   4.913   6.331   1.044
29592WAT      O89017   0.073   3.411   1.906
29592WAT     H189018   0.036   3.479   1.969
29592WAT     H289019   0.164   3.440   1.877
29593WAT      O89020   2.693   3.397   9.548
29593WAT     H189021   2.695   3.309   9.501
29593WAT     H289022   2.603   3.439   9.536
29594WAT      O89023   2.390   8.291   1.844
29594WAT     H189024   2.415   8.211   1.899
29594WAT     H289025   2.323   8.346   1.893
29595WAT      O89026   6.667   3.555   1.468
29595WAT     H189027   6.646   3.603   1.382
29595WAT     H289028   6.591   3.567   1.531
29596WAT      O89029   8.011   3.718   1.290
29596WAT     H189030   7.947   3.770   1.347
29596WAT     H289031   8.012   3.622   1.320
29597WAT      O89032   6.328   4.641   5.372
29597WAT     H189033   6.372   4.603   5.291
29597WAT     H289034   6.272   4.570   5.416
29598WAT      O89035   9.255   2.281   5.059
29598WAT     H189036   9.332   2.236   5.014
29598WAT     H289037   9.186   2.305   4.991
29599WAT      O89038   3.938   6.848   5.173
29599WAT     H189039   3.938   6.751   5.153
29599WAT     H289040   3.844   6.883   5.166
29600WAT      O89041   3.498   7.228   8.255
29600WAT     H189042   3.491   7.181   8.167
29600WAT     H289043   3.592   7.260   8.268
29601WAT      O89044   3.612   4.351   4.210
29601WAT     H189045   3.643   4.340   4.116
29601WAT     H289046   3.581   4.262   4.245
29602WAT      O89047   1.752   5.613   7.277
29602WAT     H189048   1.769   5.540   7.210
29602WAT     H289049   1.664   5.657   7.258
29603WAT      O89050   0.025   4.086   2.724
29603WAT     H189051  -0.008   4.075   2.630
29603WAT     H289052   0.075   4.004   2.752
29604WAT      O89053   2.869   2.327   5.270
29604WAT     H189054   2.811   2.276   5.332
29604WAT     H289055   2.948   2.271   5.243
29605WAT      O89056   2.518   6.414   7.527
29605WAT     H189057   2.509   6.329   7.579
29605WAT     H289058   2.612   6.424   7.494
29606WAT      O89059   4.056   1.002   0.752
29606WAT     H189060   4.028   1.097   0.744
29606WAT     H289061   4.151   0.997   0.785
29607WAT      O89062   2.293   9.384   6.324
29607WAT     H189063   2.275   9.328   6.243
29607WAT     H289064   2.328   9.326   6.397
29608WAT      O89065   6.767   9.610   3.325
29608WAT     H189066   6.774   9.634   3.228
29608WAT     H289067   6.672   9.624   3.355
29609WAT      O89068   5.588   9.394   3.916
29609WAT     H189069   5.560   9.300   3.897
29609WAT     H289070   5.515   9.442   3.963
29610WAT      O89071   4.710   8.827   1.295
29610WAT     H189072   4.794   8.794   1.253
29610WAT     H289073   4.631   8.786   1.249
29611WAT      O89074   7.111   0.358   0.942
29611WAT     H189075   7.092   0.266   0.909
29611WAT     H289076   7.025   0.409   0.951
29612WAT      O89077   9.679   5.048   8.753
29612WAT     H189078   9.665   4.957   8.715
29612WAT     H289079   9.718   5.108   8.683
29613WAT      O89080   9.691   7.170   9.302
29613WAT     H189081   9.739   7.257   9.293
29613WAT     H289082   9.604   7.175   9.253
29614WAT      O89083   4.024   6.985   6.680
29614WAT     H189084   3.964   7.064   6.687
29614WAT     H289085   3.976   6.910   6.635
29615WAT      O89086   9.399   7.525   1.819
29615WAT     H189087   9.321   7.498   1.876
29615WAT     H289088   9.384   7.493   1.725
29616WAT      O89089   9.125   2.687   7.509
29616WAT     H189090   9.031   2.693   7.541
29616WAT     H289091   9.169   2.777   7.516
29617WAT      O89092   7.978   7.690   3.979
29617WAT     H189093   7.939   7.598   3.973
29617WAT     H289094   7.904   7.757   3.988
29618WAT      O89095   7.221   5.324   5.983
29618WAT     H189096   7.190   5.260   5.912
29618WAT     H289097   7.195   5.417   5.957
29619WAT      O89098   0.436   7.772   6.163
29619WAT     H189099   0.451   7.841   6.234
29619WAT     H289100   0.382   7.813   6.089
29620WAT      O89101   5.755   8.128   4.368
29620WAT     H189102   5.799   8.079   4.443
29620WAT     H289103   5.795   8.219   4.359
29621WAT      O89104   5.837   3.904   9.850
29621WAT     H189105   5.782   3.894   9.767
29621WAT     H289106   5.806   3.985   9.900
29622WAT      O89107   2.219   0.937   5.575
29622WAT     H189108   2.262   1.027   5.569
29622WAT     H289109   2.153   0.936   5.650
29623WAT      O89110   5.140   6.761   2.969
29623WAT     H189111   5.135   6.708   3.053
29623WAT     H289112   5.072   6.726   2.904
29624WAT      O89113   4.937   1.565   3.350
29624WAT     H189114   4.890   1.524   3.428
29624WAT     H289115   4.959   1.660   3.372
29625WAT      O89116   3.170   4.541   7.332
29625WAT     H189117   3.243   4.580   7.276
29625WAT     H289118   3.179   4.575   7.426
29626WAT      O89119   4.990   3.033   5.388
29626WAT     H189120   4.939   3.037   5.302
29626WAT     H289121   5.062   2.964   5.382
29627WAT      O89122   3.515   5.581   7.059
29627WAT     H189123   3.592   5.642   7.040
29627WAT     H289124   3.450   5.628   7.120
29628WAT      O89125   7.985   1.808   1.234
29628WAT     H189126   8.036   1.755   1.302
29628WAT     H289127   8.042   1.821   1.152
29629WAT      O89128   4.061   9.510   1.283
29629WAT     H189129   4.155   9.480   1.269
29629WAT     H289130   4.055   9.558   1.371
29630WAT      O89131   1.484   2.139   8.879
29630WAT     H189132   1.517   2.044   8.884
29630WAT     H289133   1.483   2.178   8.971
29631WAT      O89134   4.337   6.637   5.723
29631WAT     H189135   4.247   6.658   5.685
29631WAT     H289136   4.403   6.707   5.694
29632WAT      O89137   9.096   6.680   9.580
29632WAT     H189138   9.184   6.654   9.541
29632WAT     H289139   9.026   6.616   9.549
29633WAT      O89140   2.064   9.254   6.175
29633WAT     H189141   2.008   9.272   6.094
29633WAT     H289142   2.048   9.326   6.243
29634WAT      O89143   1.880   3.303   1.753
29634WAT     H189144   1.944   3.350   1.814
29634WAT     H289145   1.898   3.204   1.756
29635WAT      O89146   3.638   8.622   3.479
29635WAT     H189147   3.738   8.627   3.474
29635WAT     H289148   3.598   8.684   3.412
29636WAT      O89149   9.129   6.338   3.646
29636WAT     H189150   9.130   6.359   3.744
29636WAT     H289151   9.095   6.418   3.596
29637WAT      O89152   0.194   7.883   8.014
29637WAT     H189153   0.160   7.815   8.079
29637WAT     H289154   0.143   7.968   8.025
29638WAT      O89155   0.053   8.236   3.633
29638WAT     H189156   0.061   8.281   3.722
29638WAT     H289157   0.088   8.143   3.639
29639WAT      O89158   6.475   5.071   3.670
29639WAT     H189159   6.420   5.119   3.601
29639WAT     H289160   6.523   5.139   3.726
29640WAT      O89161   0.903   0.648   1.555
29640WAT     H189162   1.002   0.655   1.565
29640WAT     H289163   0.859   0.681   1.638
29641WAT      O89164   0.378   6.577   1.795
29641WAT     H189165   0.312   6.647   1.769
29641WAT     H289166   0.336   6.513   1.859
29642WAT      O89167   6.244   5.212   3.962
29642WAT     H189168   6.249   5.150   3.884
29642WAT     H289169   6.170   5.182   4.023
29643WAT      O89170   2.814   0.313   4.703
29643WAT     H189171   2.849   0.221   4.719
29643WAT     H289172   2.779   0.319   4.609
29644WAT      O89173   2.451   6.762   9.139
29644WAT     H189174   2.447   6.706   9.056
29644WAT     H289175   2.361   6.761   9.183
29645WAT      O89176   8.637   5.103   3.057
29645WAT     H189177   8.603   5.192   3.030
29645WAT     H289178   8.674   5.055   2.977
29646WAT      O89179   2.046   8.844   6.437
29646WAT     H189180   2.139   8.819   6.462
29646WAT     H289181   1.983   8.771   6.465
29647WAT      O89182   1.643   8.380   4.438
29647WAT     H189183   1.588   8.451   4.394
29647WAT     H289184   1.697   8.420   4.511
29648WAT      O89185   3.533   9.721   4.010
29648WAT     H189186   3.617   9.766   3.980
29648WAT     H289187   3.462   9.733   3.940
29649WAT      O89188   5.020   1.313   6.912
29649WAT     H189189   5.105   1.275   6.875
29649WAT     H289190   4.944   1.291   6.851
29650WAT      O89191   8.049   7.050   8.864
29650WAT     H189192   8.121   7.036   8.931
29650WAT     H289193   8.045   7.147   8.839
29651WAT      O89194   4.726   2.950   2.880
29651WAT     H189195   4.664   2.906   2.944
29651WAT     H289196   4.755   3.038   2.917
29652WAT      O89197   0.653   9.203   6.550
29652WAT     H189198   0.584   9.275   6.538
29652WAT     H289199   0.607   9.114   6.560
29653WAT      O89200   9.663   1.480   3.533
29653WAT     H189201   9.605   1.545   3.483
29653WAT     H289202   9.653   1.497   3.631
29654WAT      O89203   8.337   3.561   7.908
29654WAT     H189204   8.242   3.589   7.895
29654WAT     H289205   8.351   3.469   7.870
29655WAT      O89206   2.120   6.576   5.438
29655WAT     H189207   2.053   6.531   5.498
29655WAT     H289208   2.212   6.549   5.465
29656WAT      O89209   7.037   2.256   8.059
29656WAT     H189210   7.042   2.247   7.960
29656WAT     H289211   7.099   2.190   8.101
29657WAT      O89212   7.325   4.671   6.297
29657WAT     H189213   7.423   4.659   6.284
29657WAT     H289214   7.303   4.769   6.297
29658WAT      O89215   7.968   7.834   6.301
29658WAT     H189216   8.044   7.791   6.253
29658WAT     H289217   7.998   7.862   6.392
29659WAT      O89218   8.230   2.412   8.735
29659WAT     H189219   8.210   2.501   8.776
29659WAT     H289220   8.308   2.420   8.673
29660WAT      O89221   4.934   7.046   6.729
29660WAT     H189222   4.920   7.137   6.690
29660WAT     H289223   5.014   7.047   6.788
29661WAT      O89224   8.159   2.366   6.886
29661WAT     H189225   8.228   2.359   6.814
29661WAT     H289226   8.106   2.450   6.873
29662WAT      O89227   8.413   7.844   5.638
29662WAT     H189228   8.320   7.859   5.604
29662WAT     H289229   8.469   7.804   5.566
29663WAT      O89230   1.742   2.790   4.895
29663WAT     H189231   1.792   2.711   4.931
29663WAT     H289232   1.661   2.808   4.951
29664WAT      O89233   2.251   6.715   0.788
29664WAT     H189234   2.262   6.617   0.774
29664WAT     H289235   2.238   6.734   0.885
29665WAT      O89236   0.762   6.175   2.634
29665WAT     H189237   0.712   6.239   2.692
29665WAT     H289238   0.698   6.108   2.596
29666WAT      O89239   8.524   8.669   6.247
29666WAT     H189240   8.516   8.576   6.285
29666WAT     H289241   8.468   8.731   6.301
29667WAT      O89242   5.522   5.483   4.823
29667WAT     H189243   5.483   5.462   4.913
29667WAT     H289244   5.615   5.447   4.818
29668WAT      O89245   6.561   1.417   5.718
29668WAT     H189246   6.509   1.377   5.793
29668WAT     H289247   6.658   1.397   5.729
29669WAT      O89248   2.946   7.207   5.122
29669WAT     H189249   2.877   7.135   5.116
29669WAT     H289250   3.018   7.191   5.054
29670WAT      O89251   4.842   8.877   7.855
29670WAT     H189252   4.745   8.882   7.829
29670WAT     H289253   4.876   8.969   7.873
29671WAT      O89254   0.442   6.444   8.966
29671WAT     H189255   0.533   6.433   8.927
29671WAT     H289256   0.373   6.431   8.895
29672WAT      O89257   9.679   6.625   1.310
29672WAT     H189258   9.615   6.591   1.241
29672WAT     H289259   9.756   6.562   1.318
29673WAT      O89260   3.439   9.059   3.034
29673WAT     H189261   3.435   8.969   3.076
29673WAT     H289262   3.348   9.102   3.038
29674WAT      O89263   3.075   7.137   1.389
29674WAT     H189264   3.171   7.163   1.380
29674WAT     H289265   3.040   7.109   1.300
29675WAT      O89266   0.498   1.124   1.848
29675WAT     H189267   0.522   1.031   1.821
29675WAT     H289268   0.414   1.152   1.802
29676WAT      O89269   9.069   7.473   6.896
29676WAT     H189270   9.054   7.377   6.873
29676WAT     H289271   9.071   7.483   6.996
29677WAT      O89272   2.692   3.114   8.732
29677WAT     H189273   2.652   3.199   8.766
29677WAT     H289274   2.723   3.059   8.809
29678WAT      O89275   4.021   3.186   6.215
29678WAT     H189276   3.967   3.189   6.131
29678WAT     H289277   4.084   3.264   6.217
29679WAT      O89278   7.370   8.332   8.041
29679WAT     H189279   7.308   8.380   7.980
29679WAT     H289280   7.419   8.261   7.989
29680WAT      O89281   5.685   8.878   2.314
29680WAT     H189282   5.751   8.831   2.255
29680WAT     H289283   5.686   8.837   2.405
29681WAT      O89284   7.535   7.998   4.901
29681WAT     H189285   7.458   8.008   4.838
29681WAT     H289286   7.569   8.089   4.926
29682WAT      O89287   1.753   4.350   6.654
29682WAT     H189288   1.698   4.358   6.571
29682WAT     H289289   1.799   4.261   6.656
29683WAT      O89290   6.801   0.640   1.358
29683WAT     H189291   6.872   0.705   1.382
29683WAT     H289292   6.809   0.616   1.261
29684WAT      O89293   0.485   6.249   8.196
29684WAT     H189294   0.450   6.325   8.250
29684WAT     H289295   0.473   6.269   8.099
29685WAT      O89296   9.270   4.616   9.836
29685WAT     H189297   9.289   4.546   9.767
29685WAT     H289298   9.331   4.602   9.915
29686WAT      O89299   4.076   2.651   9.664
29686WAT     H189300   4.157   2.605   9.629
29686WAT     H289301   4.004   2.652   9.594
29687WAT      O89302   8.269   3.846   4.937
29687WAT     H189303   8.213   3.766   4.961
29687WAT     H289304   8.221   3.929   4.964
29688WAT      O89305   6.750   9.397   5.486
29688WAT     H189306   6.661   9.411   5.441
29688WAT     H289307   6.756   9.456   5.567
29689WAT      O89308   9.170   7.434   2.769
29689WAT     H189309   9.200   7.369   2.839
29689WAT     H289310   9.184   7.395   2.678
29690WAT      O89311   3.053   8.404   4.449
29690WAT     H189312   3.088   8.423   4.357
29690WAT     H289313   3.117   8.342   4.496
29691WAT      O89314   7.110   2.531   9.189
29691WAT     H189315   7.014   2.523   9.216
29691WAT     H289316   7.164   2.463   9.239
29692WAT      O89317   2.987   1.574   8.744
29692WAT     H189318   3.065   1.514   8.761
29692WAT     H289319   2.909   1.544   8.801
29693WAT      O89320   7.644   3.626   2.176
29693WAT     H189321   7.573   3.682   2.134
29693WAT     H289322   7.648   3.645   2.274
29694WAT      O89323   8.032   0.362   1.338
29694WAT     H189324   7.941   0.362   1.296
29694WAT     H289325   8.057   0.456   1.363
29695WAT      O89326   9.676   2.788   6.239
29695WAT     H189327   9.651   2.707   6.291
29695WAT     H289328   9.604   2.857   6.248
29696WAT      O89329   8.606   5.432   5.869
29696WAT     H189330   8.588   5.338   5.897
29696WAT     H289331   8.525   5.488   5.885
29697WAT      O89332   4.553   2.192   2.536
29697WAT     H189333   4.636   2.159   2.581
29697WAT     H289334   4.488   2.117   2.527
29698WAT      O89335   5.645   4.905   9.118
29698WAT     H189336   5.561   4.864   9.081
29698WAT     H289337   5.623   4.995   9.157
29699WAT      O89338   7.573   3.953   9.788
29699WAT     H189339   7.563   3.855   9.806
29699WAT     H289340   7.508   3.981   9.718
29700WAT      O89341   1.659   6.240   9.485
29700WAT     H189342   1.641   6.157   9.433
29700WAT     H289343   1.698   6.216   9.574
29701WAT      O89344   3.258   1.703   5.180
29701WAT     H189345   3.258   1.716   5.081
29701WAT     H289346   3.268   1.792   5.225
29702WAT      O89347   2.871   8.163   8.305
29702WAT     H189348   2.929   8.105   8.362
29702WAT     H289349   2.928   8.212   8.239
29703WAT      O89350   2.913   3.278   8.967
29703WAT     H189351   2.872   3.330   8.892
29703WAT     H289352   2.886   3.317   9.054
29704WAT      O89353   6.964   0.223   0.250
29704WAT     H189354   6.941   0.232   0.153
29704WAT     H289355   6.952   0.311   0.296
29705WAT      O89356   5.419   6.092   2.267
29705WAT     H189357   5.450   6.128   2.179
29705WAT     H289358   5.493   6.097   2.334
29706WAT      O89359   7.583   0.781   7.769
29706WAT     H189360   7.490   0.757   7.741
29706WAT     H289361   7.643   0.702   7.758
29707WAT      O89362   4.196   3.773   6.344
29707WAT     H189363   4.228   3.868   6.337
29707WAT     H289364   4.184   3.734   6.253
29708WAT      O89365   4.965   0.704   8.893
29708WAT     H189366   4.975   0.706   8.794
29708WAT     H289367   4.929   0.792   8.925
29709WAT      O89368   8.696   3.231   5.074
29709WAT     H189369   8.661   3.319   5.105
29709WAT     H289370   8.769   3.200   5.135
29710WAT      O89371   9.464   3.306   2.695
29710WAT     H189372   9.535   3.294   2.626
29710WAT     H289373   9.506   3.338   2.780
29711WAT      O89374   3.958   6.504   8.457
29711WAT     H189375   3.936   6.600   8.438
29711WAT     H289376   4.042   6.479   8.410
29712WAT      O89377   0.918   3.048   5.794
29712WAT     H189378   0.830   3.080   5.760
29712WAT     H289379   0.985   3.122   5.789
29713WAT      O89380   8.646   3.625   3.504
29713WAT     H189381   8.699   3.607   3.422
29713WAT     H289382   8.549   3.637   3.480
29714WAT      O89383   0.962   7.927   3.914
29714WAT     H189384   1.015   7.878   3.845
29714WAT     H289385   0.888   7.977   3.870
29715WAT      O89386   0.352   6.967   1.513
29715WAT     H189387   0.342   6.964   1.612
29715WAT     H289388   0.446   6.943   1.488
29716WAT      O89389   7.565   9.581   0.395
29716WAT     H189390   7.516   9.569   0.308
29716WAT     H289391   7.615   9.668   0.393
29717WAT      O89392   5.749   9.399   2.199
29717WAT     H189393   5.763   9.467   2.271
29717WAT     H289394   5.651   9.377   2.192
29718WAT      O89395   9.849   9.612   3.990
29718WAT     H189396   9.778   9.551   3.955
29718WAT     H289397   9.874   9.677   3.919
29719WAT      O89398   3.819   9.705   8.986
29719WAT     H189399   3.809   9.777   9.055
29719WAT     H289400   3.890   9.731   8.921
29720WAT      O89401   2.243   8.164   7.226
29720WAT     H189402   2.205   8.256   7.236
29720WAT     H289403   2.173   8.096   7.248
29721WAT      O89404   2.247   7.291   0.938
29721WAT     H189405   2.176   7.295   0.868
29721WAT     H289406   2.300   7.375   0.936
29722WAT      O89407   8.199   4.226   1.750
29722WAT     H189408   8.245   4.289   1.686
29722WAT     H289409   8.267   4.164   1.789
29723WAT      O89410   3.576   6.154   6.589
29723WAT     H189411   3.566   6.191   6.496
29723WAT     H289412   3.607   6.059   6.583
29724WAT      O89413   3.193   8.181   5.142
29724WAT     H189414   3.123   8.248   5.165
29724WAT     H289415   3.178   8.098   5.196
29725WAT      O89416   8.741   4.053   4.938
29725WAT     H189417   8.707   4.109   4.862
29725WAT     H289418   8.832   4.018   4.916
29726WAT      O89419   6.558   5.149   6.913
29726WAT     H189420   6.488   5.126   6.980
29726WAT     H289421   6.622   5.215   6.952
29727WAT      O89422   8.676   5.750   0.711
29727WAT     H189423   8.714   5.710   0.628
29727WAT     H289424   8.653   5.846   0.695
29728WAT      O89425   0.089   6.682   5.851
29728WAT     H189426   0.056   6.615   5.784
29728WAT     H289427   0.020   6.751   5.866
29729WAT      O89428   2.726   7.897   2.794
29729WAT     H189429   2.695   7.907   2.888
29729WAT     H289430   2.825   7.908   2.789
29730WAT      O89431   7.679   8.840   3.904
29730WAT     H189432   7.657   8.744   3.922
29730WAT     H289433   7.623   8.898   3.964
29731WAT      O89434   7.554   4.800   1.500
29731WAT     H189435   7.630   4.804   1.565
29731WAT     H289436   7.524   4.893   1.477
29732WAT      O89437   0.622   5.437   3.441
29732WAT     H189438   0.625   5.345   3.479
29732WAT     H289439   0.546   5.487   3.483
29733WAT      O89440   7.818   9.291   3.480
29733WAT     H189441   7.765   9.376   3.495
29733WAT     H289442   7.756   9.219   3.449
29734WAT      O89443   2.809   2.739   2.913
29734WAT     H189444   2.885   2.675   2.901
29734WAT     H289445   2.829   2.823   2.863
29735WAT      O89446   0.023   5.937   0.011
29735WAT     H189447  -0.035   5.855   0.010
29735WAT     H289448   0.013   5.985  -0.076
29736WAT      O89449   8.953   9.615   8.068
29736WAT     H189450   9.035   9.647   8.021
29736WAT     H289451   8.932   9.522   8.039
29737WAT      O89452   8.512   8.158   3.869
29737WAT     H189453   8.471   8.229   3.811
29737WAT     H289454   8.456   8.075   3.865
29738WAT      O89455   1.574   0.620   6.624
29738WAT     H189456   1.644   0.566   6.672
29738WAT     H289457   1.492   0.564   6.612
29739WAT      O89458   6.038   2.254   1.086
29739WAT     H189459   6.064   2.287   1.177
29739WAT     H289460   5.974   2.319   1.044
29740WAT      O89461   5.805   5.896   2.806
29740WAT     H189462   5.809   5.964   2.880
29740WAT     H289463   5.856   5.814   2.833
29741WAT      O89464   1.193   2.342   5.013
29741WAT     H189465   1.182   2.391   4.926
29741WAT     H289466   1.287   2.353   5.045
29742WAT      O89467   5.164   6.259   8.216
29742WAT     H189468   5.243   6.297   8.262
29742WAT     H289469   5.108   6.333   8.178
29743WAT      O89470   0.755   6.509   2.678
29743WAT     H189471   0.822   6.452   2.726
29743WAT     H289472   0.667   6.463   2.677
29744WAT      O89473   6.915   7.562   1.937
29744WAT     H189474   6.944   7.486   1.995
29744WAT     H289475   6.827   7.541   1.895
29745WAT      O89476   4.305   9.611   2.059
29745WAT     H189477   4.394   9.652   2.037
29745WAT     H289478   4.248   9.679   2.104
29746WAT      O89479   0.796   0.253   1.856
29746WAT     H189480   0.887   0.220   1.882
29746WAT     H289481   0.727   0.196   1.900
29747WAT      O89482   4.474   6.333   6.518
29747WAT     H189483   4.491   6.424   6.482
29747WAT     H289484   4.429   6.339   6.606
29748WAT      O89485   0.811   9.425   0.895
29748WAT     H189486   0.831   9.405   0.991
29748WAT     H289487   0.794   9.339   0.846
29749WAT      O89488   7.178   8.479   7.901
29749WAT     H189489   7.233   8.545   7.849
29749WAT     H289490   7.084   8.481   7.868
29750WAT      O89491   9.635   5.698   4.440
29750WAT     H189492   9.609   5.690   4.343
29750WAT     H289493   9.559   5.669   4.497
29751WAT      O89494   2.317   2.298   6.190
29751WAT     H189495   2.387   2.356   6.231
29751WAT     H289496   2.273   2.243   6.262
29752WAT      O89497   6.723   1.914   7.730
29752WAT     H189498   6.764   1.988   7.783
29752WAT     H289499   6.639   1.883   7.776
29753WAT      O89500   2.364   7.945   9.769
29753WAT     H189501   2.347   7.969   9.673
29753WAT     H289502   2.433   7.872   9.773
29754WAT      O89503   6.970   7.984   2.466
29754WAT     H189504   7.060   8.025   2.479
29754WAT     H289505   6.978   7.884   2.466
29755WAT      O89506   8.076   6.467   2.701
29755WAT     H189507   8.170   6.491   2.725
29755WAT     H289508   8.013   6.529   2.746
29756WAT      O89509   0.720   1.083   4.544
29756WAT     H189510   0.684   1.092   4.637
29756WAT     H289511   0.789   1.011   4.542
29757WAT      O89512   7.481   3.183   2.017
29757WAT     H189513   7.447   3.120   2.086
29757WAT     H289514   7.452   3.276   2.038
29758WAT      O89515   6.053   8.997   4.610
29758WAT     H189516   5.954   9.008   4.613
29758WAT     H289517   6.078   8.906   4.644
29759WAT      O89518   4.382   0.312   5.589
29759WAT     H189519   4.306   0.363   5.629
29759WAT     H289520   4.457   0.375   5.569
29760WAT      O89521   4.484   5.652   2.187
29760WAT     H189522   4.449   5.576   2.133
29760WAT     H289523   4.477   5.629   2.284
29761WAT      O89524   9.539   4.409   5.119
29761WAT     H189525   9.638   4.395   5.120
29761WAT     H289526   9.515   4.473   5.046
29762WAT      O89527   9.784   2.021   3.911
29762WAT     H189528   9.724   1.972   3.974
29762WAT     H289529   9.757   2.001   3.817
29763WAT      O89530   0.872   6.537   3.907
29763WAT     H189531   0.911   6.592   3.980
29763WAT     H289532   0.857   6.594   3.826
29764WAT      O89533   2.197   3.085   6.951
29764WAT     H189534   2.282   3.105   6.903
29764WAT     H289535   2.132   3.160   6.937
29765WAT      O89536   1.210   9.750   4.535
29765WAT     H189537   1.255   9.832   4.571
29765WAT     H289538   1.211   9.678   4.604
29766WAT      O89539   2.961   6.619   6.545
29766WAT     H189540   2.942   6.607   6.447
29766WAT     H289541   3.042   6.566   6.570
29767WAT      O89542   1.201   8.320   4.812
29767WAT     H189543   1.134   8.326   4.886
29767WAT     H289544   1.185   8.395   4.747
29768WAT      O89545   6.369   1.892   4.257
29768WAT     H189546   6.303   1.953   4.213
29768WAT     H289547   6.460   1.909   4.219
29769WAT      O89548   2.131   0.408   3.709
29769WAT     H189549   2.217   0.383   3.752
29769WAT     H289550   2.108   0.341   3.638
29770WAT      O89551   5.080   9.072   8.706
29770WAT     H189552   5.151   9.040   8.642
29770WAT     H289553   5.086   9.019   8.790
29771WAT      O89554   2.603   7.517   4.356
29771WAT     H189555   2.698   7.492   4.342
29771WAT     H289556   2.555   7.444   4.405
29772WAT      O89557   2.651   4.092   4.853
29772WAT     H189558   2.622   4.049   4.767
29772WAT     H289559   2.731   4.150   4.837
29773WAT      O89560   5.861   3.730   1.392
29773WAT     H189561   5.773   3.709   1.347
29773WAT     H289562   5.897   3.816   1.355
29774WAT      O89563   9.104   8.717   4.155
29774WAT     H189564   9.061   8.665   4.081
29774WAT     H289565   9.072   8.812   4.151
29775WAT      O89566   3.331   8.634   4.451
29775WAT     H189567   3.388   8.674   4.379
29775WAT     H289568   3.365   8.543   4.474
29776WAT      O89569   2.464   4.775   0.558
29776WAT     H189570   2.420   4.850   0.608
29776WAT     H289571   2.394   4.719   0.513
29777WAT      O89572   8.248   2.752   6.797
29777WAT     H189573   8.227   2.837   6.748
29777WAT     H289574   8.178   2.735   6.866
29778WAT      O89575   2.371   0.743   2.907
29778WAT     H189576   2.314   0.667   2.939
29778WAT     H289577   2.373   0.742   2.807
29779WAT      O89578   0.259   3.472   6.288
29779WAT     H189579   0.248   3.504   6.193
29779WAT     H289580   0.184   3.509   6.343
29780WAT      O89581   6.337   5.348   6.550
29780WAT     H189582   6.379   5.269   6.504
29780WAT     H289583   6.260   5.381   6.495
29781WAT      O89584   6.078   7.705   3.391
29781WAT     H189585   6.072   7.732   3.294
29781WAT     H289586   5.991   7.725   3.436
29782WAT      O89587   6.769   9.235   0.816
29782WAT     H189588   6.864   9.211   0.798
29782WAT     H289589   6.737   9.299   0.746
29783WAT      O89590   2.424   1.922   8.617
29783WAT     H189591   2.512   1.955   8.651
29783WAT     H289592   2.392   1.848   8.676
29784WAT      O89593   6.245   5.544   5.504
29784WAT     H189594   6.232   5.627   5.449
29784WAT     H289595   6.233   5.567   5.601
29785WAT      O89596   6.283   0.177   0.026
29785WAT     H189597   6.278   0.141  -0.067
29785WAT     H289598   6.193   0.209   0.054
29786WAT      O89599   4.204   1.126   9.225
29786WAT     H189600   4.242   1.189   9.157
29786WAT     H289601   4.159   1.177   9.298
29787WAT      O89602   0.400   0.355   0.592
29787WAT     H189603   0.322   0.294   0.605
29787WAT     H289604   0.394   0.431   0.657
29788WAT      O89605   5.031   9.402   0.168
29788WAT     H189606   5.039   9.417   0.267
29788WAT     H289607   5.030   9.490   0.121
29789WAT      O89608   7.316   6.229   8.037
29789WAT     H189609   7.224   6.269   8.036
29789WAT     H289610   7.383   6.300   8.016
29790WAT      O89611   6.019   2.752   0.885
29790WAT     H189612   5.922   2.770   0.869
29790WAT     H289613   6.038   2.654   0.875
29791WAT      O89614   4.867   6.235   0.748
29791WAT     H189615   4.783   6.194   0.783
29791WAT     H289616   4.917   6.168   0.694
29792WAT      O89617   2.187   2.059   8.585
29792WAT     H189618   2.137   2.004   8.519
29792WAT     H289619   2.279   2.021   8.599
29793WAT      O89620   4.137   3.340   0.576
29793WAT     H189621   4.140   3.355   0.477
29793WAT     H289622   4.179   3.417   0.623
29794WAT      O89623   6.151   8.747   7.630
29794WAT     H189624   6.119   8.735   7.724
29794WAT     H289625   6.072   8.752   7.569
29795WAT      O89626   8.722   8.241   1.729
29795WAT     H189627   8.626   8.263   1.709
29795WAT     H289628   8.773   8.230   1.644
29796WAT      O89629   7.922   6.506   3.828
29796WAT     H189630   8.015   6.534   3.851
29796WAT     H289631   7.913   6.407   3.839
29797WAT      O89632   9.462   0.060   2.286
29797WAT     H189633   9.514   0.005   2.220
29797WAT     H289634   9.526   0.111   2.344
29798WAT      O89635   3.648   4.420   8.948
29798WAT     H189636   3.666   4.449   9.042
29798WAT     H289637   3.588   4.488   8.904
29799WAT      O89638   1.723   6.285   4.260
29799WAT     H189639   1.718   6.248   4.353
29799WAT     H289640   1.796   6.353   4.255
29800WAT      O89641   0.475   4.090   4.245
29800WAT     H189642   0.526   4.159   4.194
29800WAT     H289643   0.482   4.002   4.198
29801WAT      O89644   6.173   4.563   4.830
29801WAT     H189645   6.109   4.636   4.855
29801WAT     H289646   6.198   4.511   4.912
29802WAT      O89647   4.829   0.222   1.809
29802WAT     H189648   4.896   0.274   1.862
29802WAT     H289649   4.758   0.283   1.774
29803WAT      O89650   7.939   4.655   2.221
29803WAT     H189651   7.950   4.704   2.307
29803WAT     H289652   7.906   4.563   2.239
29804WAT      O89653   9.608   0.823   9.834
29804WAT     H189654   9.531   0.759   9.835
29804WAT     H289655   9.677   0.793   9.899
29805WAT      O89656   3.715   8.988   0.690
29805WAT     H189657   3.803   9.021   0.658
29805WAT     H289658   3.717   8.975   0.789
29806WAT      O89659   7.186   3.217   3.672
29806WAT     H189660   7.232   3.273   3.603
29806WAT     H289661   7.119   3.273   3.721
29807WAT      O89662   6.658   2.528   5.676
29807WAT     H189663   6.694   2.616   5.704
29807WAT     H289664   6.612   2.537   5.588
29808WAT      O89665   3.901   4.281   8.900
29808WAT     H189666   3.990   4.304   8.938
29808WAT     H289667   3.830   4.338   8.942
29809WAT      O89668   2.083   3.644   2.825
29809WAT     H189669   2.006   3.599   2.781
29809WAT     H289670   2.092   3.611   2.919
29810WAT      O89671   1.035   7.095   3.091
29810WAT     H189672   0.965   7.166   3.084
29810WAT     H289673   1.019   7.025   3.022
29811WAT      O89674   2.029   4.707   6.948
29811WAT     H189675   1.971   4.626   6.957
29811WAT     H289676   2.070   4.709   6.857
29812WAT      O89677   2.710   0.990   4.453
29812WAT     H189678   2.662   0.937   4.523
29812WAT     H289679   2.752   1.070   4.496
29813WAT      O89680   1.012   7.110   4.955
29813WAT     H189681   1.056   7.183   4.903
29813WAT     H289682   1.081   7.054   4.999
29814WAT      O89683   9.162   7.624   5.896
29814WAT     H189684   9.213   7.707   5.875
29814WAT     H289685   9.103   7.640   5.975
29815WAT      O89686   0.425   2.217   3.792
29815WAT     H189687   0.365   2.142   3.820
29815WAT     H289688   0.409   2.296   3.852
29816WAT      O89689   0.133   7.641   6.744
29816WAT     H189690   0.170   7.594   6.664
29816WAT     H289691   0.067   7.711   6.714
29817WAT      O89692   0.161   2.161   0.991
29817WAT     H189693   0.149   2.175   0.892
29817WAT     H289694   0.168   2.063   1.010
29818WAT      O89695   9.566   0.814   0.746
29818WAT     H189696   9.649   0.852   0.785
29818WAT     H289697   9.528   0.745   0.808
29819WAT      O89698   0.358   2.591   1.729
29819WAT     H189699   0.331   2.507   1.777
29819WAT     H289700   0.350   2.577   1.631
29820WAT      O89701   7.749   2.159   9.838
29820WAT     H189702   7.738   2.132   9.743
29820WAT     H289703   7.704   2.092   9.897
29821WAT      O89704   4.117   0.969   4.070
29821WAT     H189705   4.157   0.950   4.160
29821WAT     H289706   4.173   1.036   4.022
29822WAT      O89707   6.546   6.557   4.074
29822WAT     H189708   6.508   6.611   3.999
29822WAT     H289709   6.596   6.618   4.137
29823WAT      O89710   9.691   3.928   5.290
29823WAT     H189711   9.598   3.963   5.280
29823WAT     H289712   9.732   3.919   5.199
29824WAT      O89713   7.133   4.005   5.219
29824WAT     H189714   7.099   4.066   5.291
29824WAT     H289715   7.207   4.051   5.170
29825WAT      O89716   4.774   7.424   3.556
29825WAT     H189717   4.724   7.337   3.560
29825WAT     H289718   4.742   7.477   3.477
29826WAT      O89719   4.855   1.973   9.681
29826WAT     H189720   4.756   1.975   9.692
29826WAT     H289721   4.879   2.016   9.594
29827WAT      O89722   1.900   6.931   1.377
29827WAT     H189723   1.858   6.912   1.288
29827WAT     H289724   1.939   7.023   1.377
29828WAT      O89725   5.727   1.771   1.935
29828WAT     H189726   5.812   1.803   1.977
29828WAT     H289727   5.657   1.760   2.005
29829WAT      O89728   4.367   7.915   2.280
29829WAT     H189729   4.383   8.014   2.284
29829WAT     H289730   4.345   7.889   2.186
29830WAT      O89731   5.768   4.510   9.787
29830WAT     H189732   5.793   4.604   9.811
29830WAT     H289733   5.845   4.466   9.740
29831WAT      O89734   0.507   7.210   3.404
29831WAT     H189735   0.448   7.286   3.431
29831WAT     H289736   0.558   7.177   3.483
29832WAT      O89737   0.844   9.313   4.264
29832WAT     H189738   0.836   9.368   4.346
29832WAT     H289739   0.864   9.218   4.289
29833WAT      O89740   8.962   6.204   1.345
29833WAT     H189741   9.001   6.135   1.284
29833WAT     H289742   8.908   6.269   1.291
29834WAT      O89743   1.066   2.310   8.004
29834WAT     H189744   1.137   2.380   7.993
29834WAT     H289745   0.993   2.326   7.937
29835WAT      O89746   6.338   1.592   1.054
29835WAT     H189747   6.392   1.572   0.972
29835WAT     H289748   6.252   1.541   1.050
29836WAT      O89749   9.079   3.473   2.835
29836WAT     H189750   9.135   3.441   2.758
29836WAT     H289751   8.990   3.502   2.801
29837WAT      O89752   6.459   7.631   5.088
29837WAT     H189753   6.518   7.566   5.041
29837WAT     H289754   6.433   7.704   5.025
29838WAT      O89755   6.351   9.252   8.882
29838WAT     H189756   6.402   9.333   8.854
29838WAT     H289757   6.297   9.272   8.963
29839WAT      O89758   9.786   5.716   8.809
29839WAT     H189759   9.700   5.741   8.763
29839WAT     H289760   9.768   5.697   8.905
29840WAT      O89761   0.904   4.402   2.233
29840WAT     H189762   1.002   4.423   2.229
29840WAT     H289763   0.853   4.488   2.242
29841WAT      O89764   0.815   7.933   7.063
29841WAT     H189765   0.901   7.884   7.075
29841WAT     H289766   0.746   7.870   7.028
29842WAT      O89767   9.439   7.423   1.074
29842WAT     H189768   9.460   7.482   0.997
29842WAT     H289769   9.367   7.358   1.048
29843WAT      O89770   0.437   4.476   9.725
29843WAT     H189771   0.430   4.378   9.707
29843WAT     H289772   0.444   4.525   9.638
29844WAT      O89773   8.475   8.766   5.348
29844WAT     H189774   8.454   8.775   5.445
29844WAT     H289775   8.428   8.837   5.296
29845WAT      O89776   6.982   7.816   6.107
29845WAT     H189777   6.995   7.865   6.193
29845WAT     H289778   6.885   7.817   6.083
29846WAT      O89779   2.134   6.612   9.791
29846WAT     H189780   2.188   6.557   9.728
29846WAT     H289781   2.040   6.579   9.791
29847WAT      O89782   9.544   1.368   1.273
29847WAT     H189783   9.462   1.332   1.318
29847WAT     H289784   9.619   1.302   1.282
29848WAT      O89785   9.655   5.348   9.226
29848WAT     H189786   9.556   5.336   9.228
29848WAT     H289787   9.682   5.420   9.289
29849WAT      O89788   6.389   0.610   9.730
29849WAT     H189789   6.335   0.694   9.731
29849WAT     H289790   6.383   0.566   9.820
29850WAT      O89791   8.433   3.232   0.140
29850WAT     H189792   8.460   3.137   0.156
29850WAT     H289793   8.436   3.251   0.042
29851WAT      O89794   8.643   9.417   5.684
29851WAT     H189795   8.565   9.363   5.715
29851WAT     H289796   8.649   9.501   5.739
29852WAT      O89797   2.264   5.058   0.438
29852WAT     H189798   2.164   5.062   0.439
29852WAT     H289799   2.297   5.021   0.525
29853WAT      O89800   4.128   1.571   7.645
29853WAT     H189801   4.099   1.659   7.684
29853WAT     H289802   4.213   1.584   7.595
29854WAT      O89803   4.674   2.873   2.613
29854WAT     H189804   4.602   2.805   2.622
29854WAT     H289805   4.685   2.921   2.700
29855WAT      O89806   2.696   5.713   9.713
29855WAT     H189807   2.658   5.786   9.657
29855WAT     H289808   2.783   5.682   9.674
29856WAT      O89809   9.839   0.839   6.871
29856WAT     H189810   9.806   0.829   6.777
29856WAT     H289811   9.795   0.919   6.912
29857WAT      O89812   3.039   9.104   9.364
29857WAT     H189813   3.023   9.174   9.433
29857WAT     H289814   3.004   9.136   9.276
29858WAT      O89815   6.947   8.032   9.767
29858WAT     H189816   6.889   7.951   9.775
29858WAT     H289817   6.933   8.091   9.847
29859WAT      O89818   3.624   9.488   7.241
29859WAT     H189819   3.690   9.483   7.167
29859WAT     H289820   3.546   9.428   7.220
29860WAT      O89821   5.602   0.635   1.287
29860WAT     H189822   5.635   0.690   1.211
29860WAT     H289823   5.537   0.567   1.254
29861WAT      O89824   4.898   6.751   9.864
29861WAT     H189825   4.884   6.704   9.951
29861WAT     H289826   4.960   6.697   9.807
29862WAT      O89827   5.498   4.202   9.052
29862WAT     H189828   5.407   4.188   9.014
29862WAT     H289829   5.495   4.191   9.151
29863WAT      O89830   7.307   7.759   7.042
29863WAT     H189831   7.372   7.741   6.969
29863WAT     H289832   7.322   7.695   7.117
29864WAT      O89833   1.759   7.908   4.790
29864WAT     H189834   1.667   7.944   4.774
29864WAT     H289835   1.759   7.853   4.874
29865WAT      O89836   8.550   3.846   5.024
29865WAT     H189837   8.597   3.930   5.000
29865WAT     H289838   8.451   3.861   5.023
29866WAT      O89839   2.753   6.632   7.754
29866WAT     H189840   2.750   6.728   7.781
29866WAT     H289841   2.672   6.611   7.698
29867WAT      O89842   0.793   9.470   6.969
29867WAT     H189843   0.809   9.423   6.883
29867WAT     H289844   0.760   9.563   6.951
29868WAT      O89845   4.938   4.756   6.911
29868WAT     H189846   4.958   4.746   6.813
29868WAT     H289847   4.987   4.835   6.947
29869WAT      O89848   7.944   0.992   0.059
29869WAT     H189849   7.984   0.952   0.142
29869WAT     H289850   8.000   1.069   0.030
29870WAT      O89851   3.496   6.198   4.541
29870WAT     H189852   3.580   6.164   4.500
29870WAT     H289853   3.417   6.161   4.492
29871WAT      O89854   3.488   4.283   7.413
29871WAT     H189855   3.555   4.208   7.408
29871WAT     H289856   3.533   4.368   7.386
29872WAT      O89857   2.013   9.785   3.558
29872WAT     H189858   2.097   9.734   3.541
29872WAT     H289859   1.978   9.820   3.471
29873WAT      O89860   5.600   5.223   4.594
29873WAT     H189861   5.632   5.317   4.580
29873WAT     H289862   5.566   5.212   4.687
29874WAT      O89863   5.875   3.818   7.649
29874WAT     H189864   5.798   3.756   7.635
29874WAT     H289865   5.960   3.769   7.636
29875WAT      O89866   7.594   7.282   4.510
29875WAT     H189867   7.505   7.278   4.557
29875WAT     H289868   7.600   7.367   4.458
29876WAT      O89869   2.173   9.307   2.520
29876WAT     H189870   2.105   9.299   2.446
29876WAT     H289871   2.217   9.397   2.515
29877WAT      O89872   8.014   8.127   1.346
29877WAT     H189873   8.094   8.182   1.368
29877WAT     H289874   8.034   8.030   1.362
29878WAT      O89875   5.037   4.812   1.739
29878WAT     H189876   4.942   4.814   1.769
29878WAT     H289877   5.081   4.728   1.773
29879WAT      O89878   3.413   2.116   8.997
29879WAT     H189879   3.349   2.165   9.057
29879WAT     H289880   3.505   2.121   9.035
29880WAT      O89881   9.234   8.193   7.884
29880WAT     H189882   9.188   8.267   7.834
29880WAT     H289883   9.302   8.233   7.946
29881WAT      O89884   9.854   8.744   6.359
29881WAT     H189885   9.847   8.822   6.422
29881WAT     H289886   9.818   8.662   6.404
29882WAT      O89887   3.658   1.901   2.949
29882WAT     H189888   3.603   1.818   2.935
29882WAT     H289889   3.608   1.964   3.008
29883WAT      O89890   1.521   5.990   3.834
29883WAT     H189891   1.593   6.060   3.833
29883WAT     H289892   1.478   5.987   3.924
29884WAT      O89893   8.268   0.365   3.352
29884WAT     H189894   8.186   0.358   3.295
29884WAT     H289895   8.296   0.460   3.359
29885WAT      O89896   7.121   9.216   0.646
29885WAT     H189897   7.055   9.286   0.672
29885WAT     H289898   7.084   9.163   0.570
29886WAT      O89899   4.111   5.827   0.204
29886WAT     H189900   4.060   5.772   0.270
29886WAT     H289901   4.085   5.800   0.112
29887WAT      O89902   6.126   4.273   5.579
29887WAT     H189903   6.225   4.262   5.586
29887WAT     H289904   6.105   4.351   5.520
29888WAT      O89905   7.904   7.137   1.549
29888WAT     H189906   7.866   7.227   1.571
29888WAT     H289907   7.989   7.148   1.498
29889WAT      O89908   4.781   9.669   6.013
29889WAT     H189909   4.760   9.712   6.101
29889WAT     H289910   4.880   9.667   5.999
29890WAT      O89911   2.832   6.831   8.343
29890WAT     H189912   2.851   6.867   8.252
29890WAT     H289913   2.792   6.740   8.335
29891WAT      O89914   4.138   6.882   6.332
29891WAT     H189915   4.114   6.862   6.237
29891WAT     H289916   4.063   6.855   6.392
29892WAT      O89917   5.725   1.705   9.551
29892WAT     H189918   5.651   1.739   9.609
29892WAT     H289919   5.760   1.619   9.589
29893WAT      O89920   2.003   2.903   1.289
29893WAT     H189921   1.960   2.813   1.294
29893WAT     H289922   1.953   2.967   1.347
29894WAT      O89923   9.648   6.587   0.500
29894WAT     H189924   9.551   6.568   0.483
29894WAT     H289925   9.659   6.683   0.525
29895WAT      O89926   9.132   7.767   9.432
29895WAT     H189927   9.208   7.703   9.443
29895WAT     H289928   9.091   7.755   9.342
29896WAT      O89929   1.571   4.141   7.281
29896WAT     H189930   1.626   4.219   7.309
29896WAT     H289931   1.474   4.162   7.293
29897WAT      O89932   2.081   9.014   8.233
29897WAT     H189933   2.085   8.936   8.171
29897WAT     H289934   2.161   9.015   8.292
29898WAT      O89935   6.478   0.312   2.539
29898WAT     H189936   6.556   0.251   2.540
29898WAT     H289937   6.481   0.372   2.620
29899WAT      O89938   6.160   7.143   4.684
29899WAT     H189939   6.154   7.143   4.784
29899WAT     H289940   6.243   7.095   4.656
29900WAT      O89941   9.437   0.627   0.886
29900WAT     H189942   9.338   0.634   0.879
29900WAT     H289943   9.468   0.543   0.841
29901WAT      O89944   8.425   5.203   8.205
29901WAT     H189945   8.472   5.276   8.155
29901WAT     H289946   8.342   5.239   8.246
29902WAT      O89947   0.124   7.697   8.185
29902WAT     H189948   0.118   7.666   8.280
29902WAT     H289949   0.040   7.674   8.136
29903WAT      O89950   8.190   0.571   3.776
29903WAT     H189951   8.165   0.477   3.798
29903WAT     H289952   8.164   0.632   3.851
29904WAT      O89953   4.441   6.059   6.470
29904WAT     H189954   4.342   6.048   6.461
29904WAT     H289955   4.463   6.155   6.487
29905WAT      O89956   8.501   2.640   1.136
29905WAT     H189957   8.594   2.670   1.119
29905WAT     H289958   8.498   2.583   1.219
29906WAT      O89959   7.281   6.262   7.204
29906WAT     H189960   7.369   6.273   7.251
29906WAT     H289961   7.244   6.352   7.183
29907WAT      O89962   4.384   7.253   9.037
29907WAT     H189963   4.477   7.270   9.002
29907WAT     H289964   4.377   7.286   9.131
29908WAT      O89965   4.718   3.488   8.506
29908WAT     H189966   4.682   3.436   8.428
29908WAT     H289967   4.697   3.585   8.493
29909WAT      O89968   8.434   4.817   0.530
29909WAT     H189969   8.418   4.764   0.446
29909WAT     H289970   8.531   4.811   0.555
29910WAT      O89971   9.764   0.878   8.387
29910WAT     H189972   9.686   0.863   8.325
29910WAT     H289973   9.739   0.946   8.455
29911WAT      O89974   9.325   1.990   2.496
29911WAT     H189975   9.335   1.940   2.410
29911WAT     H289976   9.353   1.932   2.572
29912WAT      O89977   0.049   0.629   7.038
29912WAT     H189978  -0.012   0.706   7.019
29912WAT     H289979   0.075   0.585   6.952
29913WAT      O89980   1.161   3.101   7.158
29913WAT     H189981   1.068   3.115   7.125
29913WAT     H289982   1.225   3.147   7.096
29914WAT      O89983   9.519   2.799   4.479
29914WAT     H189984   9.500   2.837   4.569
29914WAT     H289985   9.617   2.791   4.465
29915WAT      O89986   1.487   4.262   6.210
29915WAT     H189987   1.521   4.168   6.204
29915WAT     H289988   1.438   4.285   6.126
29916WAT      O89989   8.484   1.021   7.183
29916WAT     H189990   8.410   1.079   7.150
29916WAT     H289991   8.456   0.925   7.178
29917WAT      O89992   7.586   6.063   5.698
29917WAT     H189993   7.599   6.133   5.628
29917WAT     H289994   7.517   6.094   5.764
29918WAT      O89995   6.757   0.776   7.081
29918WAT     H189996   6.694   0.712   7.126
29918WAT     H289997   6.843   0.730   7.063
29919WAT      O89998   5.587   9.181   9.705
29919WAT     H189999   5.675   9.151   9.668
29919WAT     H290000   5.595   9.274   9.740
29920WAT      O90001   7.697   0.238   7.402
29920WAT     H190002   7.796   0.227   7.391
29920WAT     H290003   7.677   0.265   7.496
29921WAT      O90004   7.120   1.181   5.910
29921WAT     H190005   7.168   1.113   5.964
29921WAT     H290006   7.149   1.273   5.936
29922WAT      O90007   4.814   0.738   3.861
29922WAT     H190008   4.858   0.649   3.869
29922WAT     H290009   4.804   0.779   3.952
29923WAT      O90010   7.339   5.488   3.580
29923WAT     H190011   7.343   5.527   3.488
29923WAT     H290012   7.373   5.554   3.646
29924WAT      O90013   8.790   5.653   6.477
29924WAT     H190014   8.703   5.703   6.487
29924WAT     H290015   8.785   5.567   6.528
29925WAT      O90016   3.154   8.211   6.959
29925WAT     H190017   3.166   8.208   6.859
29925WAT     H290018   3.099   8.290   6.984
29926WAT      O90019   0.980   9.417   9.689
29926WAT     H190020   0.917   9.365   9.747
29926WAT     H290021   1.072   9.411   9.726
29927WAT      O90022   3.499   1.083   6.819
29927WAT     H190023   3.512   1.079   6.720
29927WAT     H290024   3.584   1.111   6.863
29928WAT      O90025   5.908   3.716   3.943
29928WAT     H190026   5.847   3.733   4.021
29928WAT     H290027   5.933   3.620   3.940
29929WAT      O90028   6.058   8.189   7.061
29929WAT     H190029   6.143   8.186   7.008
29929WAT     H290030   6.076   8.157   7.154
29930WAT      O90031   3.282   8.730   1.924
29930WAT     H190032   3.317   8.788   1.850
29930WAT     H290033   3.213   8.668   1.888
29931WAT      O90034   2.641   4.419   0.563
29931WAT     H190035   2.648   4.485   0.488
29931WAT     H290036   2.687   4.455   0.644
29932WAT      O90037   5.071   6.631   4.751
29932WAT     H190038   5.119   6.597   4.832
29932WAT     H290039   4.980   6.590   4.747
29933WAT      O90040   1.303   7.473   5.798
29933WAT     H190041   1.314   7.374   5.787
29933WAT     H290042   1.209   7.494   5.825
29934WAT      O90043   2.740   1.926   8.316
29934WAT     H190044   2.757   1.863   8.241
29934WAT     H290045   2.689   2.005   8.283
29935WAT      O90046   3.265   4.667   2.161
29935WAT     H190047   3.227   4.727   2.231
29935WAT     H290048   3.190   4.619   2.114
29936WAT      O90049   6.113   1.369   7.870
29936WAT     H190050   6.079   1.391   7.961
29936WAT     H290051   6.037   1.340   7.812
29937WAT      O90052   8.337   1.241   7.560
29937WAT     H190053   8.387   1.273   7.480
29937WAT     H290054   8.375   1.283   7.642
29938WAT      O90055   1.564   6.867   2.419
29938WAT     H190056   1.657   6.850   2.385
29938WAT     H290057   1.510   6.912   2.348
29939WAT      O90058   5.008   0.650   2.035
29939WAT     H190059   4.933   0.696   2.082
29939WAT     H290060   5.027   0.696   1.949
29940WAT      O90061   5.979   1.827   1.545
29940WAT     H190062   5.991   1.921   1.576
29940WAT     H290063   5.940   1.828   1.452
29941WAT      O90064   2.283   3.755   9.611
29941WAT     H190065   2.280   3.799   9.701
29941WAT     H290066   2.262   3.823   9.541
29942WAT      O90067   8.747   8.720   6.605
29942WAT     H190068   8.678   8.679   6.546
29942WAT     H290069   8.794   8.649   6.657
29943WAT      O90070   1.596   9.532   3.766
29943WAT     H190071   1.530   9.559   3.835
29943WAT     H290072   1.646   9.612   3.734
29944WAT      O90073   8.139   7.287   3.128
29944WAT     H190074   8.052   7.330   3.105
29944WAT     H290075   8.178   7.330   3.210
29945WAT      O90076   0.891   1.454   7.699
29945WAT     H190077   0.892   1.451   7.799
29945WAT     H290078   0.846   1.372   7.664
29946WAT      O90079   6.774   4.345   8.353
29946WAT     H190080   6.795   4.394   8.438
29946WAT     H290081   6.785   4.407   8.275
29947WAT      O90082   0.297   4.733   7.151
29947WAT     H190083   0.393   4.732   7.181
29947WAT     H290084   0.261   4.640   7.150
29948WAT      O90085   7.799   1.265   7.073
29948WAT     H190086   7.886   1.239   7.029
29948WAT     H290087   7.727   1.201   7.045
29949WAT      O90088   3.789   5.691   7.046
29949WAT     H190089   3.876   5.736   7.065
29949WAT     H290090   3.802   5.592   7.048
29950WAT      O90091   8.247   2.848   4.668
29950WAT     H190092   8.225   2.752   4.685
29950WAT     H290093   8.321   2.876   4.730
29951WAT      O90094   2.796   1.382   6.627
29951WAT     H190095   2.722   1.322   6.657
29951WAT     H290096   2.791   1.394   6.528
29952WAT      O90097   5.576   2.587   0.263
29952WAT     H190098   5.656   2.621   0.313
29952WAT     H290099   5.607   2.533   0.184
29953WAT      O90100   6.409   9.605   5.732
29953WAT     H190101   6.473   9.674   5.701
29953WAT     H290102   6.379   9.549   5.655
29954WAT      O90103   2.798   4.869   7.670
29954WAT     H190104   2.773   4.942   7.734
29954WAT     H290105   2.856   4.802   7.717
29955WAT      O90106   0.563   1.887   3.994
29955WAT     H190107   0.535   1.822   4.064
29955WAT     H290108   0.482   1.925   3.949
29956WAT      O90109   9.584   8.783   5.489
29956WAT     H190110   9.562   8.858   5.552
29956WAT     H290111   9.547   8.698   5.525
29957WAT      O90112   0.925   3.032   6.596
29957WAT     H190113   0.848   3.046   6.533
29957WAT     H290114   1.011   3.044   6.546
29958WAT      O90115   9.868   6.395   3.751
29958WAT     H190116   9.899   6.332   3.679
29958WAT     H290117   9.791   6.355   3.800
29959WAT      O90118   3.395   1.286   3.601
29959WAT     H190119   3.299   1.290   3.629
29959WAT     H290120   3.445   1.362   3.642
29960WAT      O90121   3.701   6.791   4.939
29960WAT     H190122   3.707   6.694   4.960
29960WAT     H290123   3.688   6.843   5.024
29961WAT      O90124   2.497   3.111   8.504
29961WAT     H190125   2.575   3.167   8.534
29961WAT     H290126   2.434   3.168   8.452
29962WAT      O90127   6.748   0.676   4.234
29962WAT     H190128   6.843   0.703   4.251
29962WAT     H290129   6.735   0.661   4.136
29963WAT      O90130   2.040   3.390   8.016
29963WAT     H190131   2.040   3.297   7.978
29963WAT     H290132   2.037   3.457   7.942
29964WAT      O90133   0.857   2.386   9.054
29964WAT     H190134   0.864   2.288   9.034
29964WAT     H290135   0.846   2.399   9.152
29965WAT      O90136   6.997   1.667   0.530
29965WAT     H190137   7.070   1.733   0.510
29965WAT     H290138   7.030   1.601   0.598
29966WAT      O90139   0.104   6.876   5.394
29966WAT     H190140   0.079   6.920   5.308
29966WAT     H290141   0.048   6.913   5.468
29967WAT      O90142   5.973   3.768   4.509
29967WAT     H190143   5.974   3.733   4.603
29967WAT     H290144   5.987   3.693   4.445
29968WAT      O90145   7.934   0.180   8.667
29968WAT     H190146   7.897   0.127   8.742
29968WAT     H290147   7.860   0.207   8.605
29969WAT      O90148   0.408   3.174   9.391
29969WAT     H190149   0.310   3.159   9.389
29969WAT     H290150   0.452   3.121   9.319
29970WAT      O90151   1.270   6.285   5.987
29970WAT     H190152   1.228   6.230   5.914
29970WAT     H290153   1.210   6.361   6.010
29971WAT      O90154   2.748   2.190   0.813
29971WAT     H190155   2.827   2.249   0.794
29971WAT     H290156   2.742   2.172   0.911
29972WAT      O90157   6.869   4.058   0.720
29972WAT     H190158   6.806   4.074   0.644
29972WAT     H290159   6.819   4.023   0.798
29973WAT      O90160   5.727   2.981   0.624
29973WAT     H190161   5.791   3.006   0.696
29973WAT     H290162   5.658   2.918   0.660
29974WAT      O90163   8.467   5.620   2.192
29974WAT     H190164   8.518   5.539   2.221
29974WAT     H290165   8.530   5.696   2.178
29975WAT      O90166   6.809   8.932   8.005
29975WAT     H190167   6.843   8.906   8.095
29975WAT     H290168   6.747   9.010   8.014
29976WAT      O90169   4.640   0.541   8.149
29976WAT     H190170   4.692   0.626   8.137
29976WAT     H290171   4.594   0.517   8.064
29977WAT      O90172   4.044   7.391   0.840
29977WAT     H190173   4.101   7.447   0.901
29977WAT     H290174   4.085   7.301   0.830
29978WAT      O90175   5.650   9.278   3.231
29978WAT     H190176   5.696   9.190   3.241
29978WAT     H290177   5.552   9.267   3.248
29979WAT      O90178   7.377   5.772   9.895
29979WAT     H190179   7.278   5.767   9.880
29979WAT     H290180   7.423   5.791   9.809
29980WAT      O90181   7.079   6.893   6.171
29980WAT     H190182   6.992   6.897   6.122
29980WAT     H290183   7.081   6.966   6.240
29981WAT      O90184   3.524   0.130   9.154
29981WAT     H190185   3.473   0.146   9.070
29981WAT     H290186   3.525   0.032   9.174
29982WAT      O90187   6.973   9.323   3.753
29982WAT     H190188   6.889   9.374   3.769
29982WAT     H290189   7.051   9.385   3.755
29983WAT      O90190   7.907   0.786   8.088
29983WAT     H190191   7.810   0.767   8.104
29983WAT     H290192   7.928   0.772   7.991
29984WAT      O90193   5.573   8.875   4.562
29984WAT     H190194   5.499   8.911   4.620
29984WAT     H290195   5.657   8.927   4.579
29985WAT      O90196   6.970   6.451   5.770
29985WAT     H190197   6.996   6.548   5.777
29985WAT     H290198   6.871   6.443   5.758
29986WAT      O90199   3.756   1.568   1.101
29986WAT     H190200   3.812   1.651   1.092
29986WAT     H290201   3.725   1.539   1.010
29987WAT      O90202   8.931   8.564   6.009
29987WAT     H190203   8.945   8.663   6.023
29987WAT     H290204   8.952   8.541   5.914
29988WAT      O90205   8.567   3.208   3.533
29988WAT     H190206   8.550   3.110   3.543
29988WAT     H290207   8.481   3.257   3.522
29989WAT      O90208   8.621   1.685   0.639
29989WAT     H190209   8.589   1.708   0.548
29989WAT     H290210   8.639   1.769   0.691
29990WAT      O90211   8.031   1.474   9.417
29990WAT     H190212   7.987   1.385   9.404
29990WAT     H290213   8.122   1.461   9.456
29991WAT      O90214   3.987   6.592   2.613
29991WAT     H190215   4.069   6.586   2.670
29991WAT     H290216   3.913   6.541   2.656
29992WAT      O90217   8.838   6.252   1.063
29992WAT     H190218   8.812   6.161   1.094
29992WAT     H290219   8.857   6.250   0.965
29993WAT      O90220   1.900   5.239   7.893
29993WAT     H190221   1.964   5.189   7.835
29993WAT     H290222   1.854   5.310   7.840
29994WAT      O90223   6.072   6.295   7.652
29994WAT     H190224   6.010   6.335   7.585
29994WAT     H290225   6.019   6.264   7.732
29995WAT      O90226   3.543   2.420   1.319
29995WAT     H190227   3.575   2.433   1.225
29995WAT     H290228   3.510   2.507   1.356
29996WAT      O90229   7.218   0.551   2.757
29996WAT     H190230   7.236   0.476   2.821
29996WAT     H290231   7.124   0.545   2.723
29997WAT      O90232   1.559   6.638   8.623
29997WAT     H190233   1.525   6.638   8.529
29997WAT     H290234   1.617   6.719   8.637
29998WAT      O90235   6.331   2.410   7.620
29998WAT     H190236   6.309   2.460   7.704
29998WAT     H290237   6.389   2.332   7.641
29999WAT      O90238   2.273   4.218   9.317
29999WAT     H190239   2.296   4.270   9.235
29999WAT     H290240   2.188   4.255   9.356
30000WAT      O90241   7.533   4.838   4.759
30000WAT     H190242   7.485   4.875   4.679
30000WAT     H290243   7.496   4.748   4.782
30001WAT      O90244   9.607   4.227   4.890
30001WAT     H190245   9.533   4.162   4.905
30001WAT     H290246   9.666   4.229   4.971
30002WAT      O90247   9.233   4.810   8.430
30002WAT     H190248   9.159   4.819   8.364
30002WAT     H290249   9.303   4.879   8.411
30003WAT      O90250   6.705   6.343   3.291
30003WAT     H190251   6.666   6.380   3.207
30003WAT     H290252   6.632   6.304   3.348
30004WAT      O90253   7.322   8.746   8.535
30004WAT     H190254   7.230   8.720   8.503
30004WAT     H290255   7.375   8.663   8.554
30005WAT      O90256   7.700   6.475   2.814
30005WAT     H190257   7.667   6.455   2.722
30005WAT     H290258   7.751   6.397   2.849
30006WAT      O90259   3.363   9.613   1.908
30006WAT     H190260   3.384   9.531   1.855
30006WAT     H290261   3.304   9.588   1.985
30007WAT      O90262   1.000   8.771   6.476
30007WAT     H190263   1.063   8.825   6.531
30007WAT     H290264   1.051   8.704   6.422
30008WAT      O90265   5.912   2.792   0.577
30008WAT     H190266   5.837   2.859   0.578
30008WAT     H290267   5.998   2.837   0.598
30009WAT      O90268   8.966   3.464   9.511
30009WAT     H190269   9.050   3.515   9.531
30009WAT     H290270   8.894   3.528   9.482
30010WAT      O90271   8.798   7.202   0.987
30010WAT     H190272   8.862   7.136   1.025
30010WAT     H290273   8.795   7.283   1.046
30011WAT      O90274   0.248   4.899   8.300
30011WAT     H190275   0.221   4.804   8.317
30011WAT     H290276   0.227   4.923   8.206
30012WAT      O90277   0.014   5.699   6.758
30012WAT     H190278  -0.004   5.761   6.835
30012WAT     H290279  -0.056   5.711   6.688
30013WAT      O90280   7.911   0.330   4.138
30013WAT     H190281   7.938   0.417   4.180
30013WAT     H290282   7.830   0.344   4.082
30014WAT      O90283   3.721   0.259   6.557
30014WAT     H190284   3.636   0.208   6.544
30014WAT     H290285   3.799   0.200   6.537
30015WAT      O90286   2.350   9.819   3.306
30015WAT     H190287   2.429   9.762   3.282
30015WAT     H290288   2.307   9.784   3.390
30016WAT      O90289   7.808   6.798   6.127
30016WAT     H190290   7.753   6.747   6.061
30016WAT     H290291   7.775   6.892   6.132
30017WAT      O90292   3.415   2.962   1.648
30017WAT     H190293   3.511   2.943   1.630
30017WAT     H290294   3.369   2.985   1.562
30018WAT      O90295   5.349   4.075   2.727
30018WAT     H190296   5.374   4.017   2.650
30018WAT     H290297   5.320   4.018   2.804
30019WAT      O90298   2.329   7.300   8.425
30019WAT     H190299   2.230   7.290   8.418
30019WAT     H290300   2.369   7.302   8.334
30020WAT      O90301   6.075   5.471   5.161
30020WAT     H190302   6.111   5.402   5.098
30020WAT     H290303   6.102   5.448   5.254
30021WAT      O90304   4.461   3.432   0.836
30021WAT     H190305   4.399   3.483   0.778
30021WAT     H290306   4.550   3.479   0.839
30022WAT      O90307   5.152   8.318   9.397
30022WAT     H190308   5.226   8.377   9.364
30022WAT     H290309   5.074   8.375   9.424
30023WAT      O90310   0.940   6.914   1.365
30023WAT     H190311   0.930   6.917   1.464
30023WAT     H290312   1.032   6.945   1.340
30024WAT      O90313   4.695   6.951   4.282
30024WAT     H190314   4.623   7.019   4.267
30024WAT     H290315   4.761   6.954   4.207
30025WAT      O90316   8.570   2.732   7.935
30025WAT     H190317   8.529   2.689   8.016
30025WAT     H290318   8.559   2.672   7.856
30026WAT      O90319   5.225   0.200   4.425
30026WAT     H190320   5.162   0.195   4.347
30026WAT     H290321   5.295   0.129   4.416
30027WAT      O90322   8.845   9.430   7.165
30027WAT     H190323   8.941   9.423   7.193
30027WAT     H290324   8.806   9.516   7.199
30028WAT      O90325   9.033   4.127   2.705
30028WAT     H190326   9.094   4.048   2.692
30028WAT     H290327   9.082   4.211   2.680
30029WAT      O90328   9.733   6.205   0.900
30029WAT     H190329   9.819   6.175   0.859
30029WAT     H290330   9.699   6.134   0.962
30030WAT      O90331   2.023   3.052   8.427
30030WAT     H190332   2.004   3.141   8.467
30030WAT     H290333   2.120   3.029   8.441
30031WAT      O90334   2.494   2.910   0.439
30031WAT     H190335   2.474   2.819   0.401
30031WAT     H290336   2.586   2.909   0.480
30032WAT      O90337   4.095   1.711   1.905
30032WAT     H190338   4.033   1.651   1.956
30032WAT     H290339   4.105   1.677   1.811
30033WAT      O90340   0.166   1.789   3.617
30033WAT     H190341   0.234   1.722   3.646
30033WAT     H290342   0.211   1.862   3.565
30034WAT      O90343   5.130   5.372   9.235
30034WAT     H190344   5.170   5.316   9.163
30034WAT     H290345   5.030   5.368   9.229
30035WAT      O90346   7.515   9.774   2.660
30035WAT     H190347   7.606   9.805   2.687
30035WAT     H290348   7.446   9.820   2.716
30036WAT      O90349   7.784   7.776   6.635
30036WAT     H190350   7.797   7.752   6.538
30036WAT     H290351   7.794   7.875   6.646
30037WAT      O90352   0.425   3.374   0.040
30037WAT     H190353   0.325   3.369   0.050
30037WAT     H290354   0.447   3.404  -0.053
30038WAT      O90355   8.053   9.026   7.854
30038WAT     H190356   8.067   8.938   7.899
30038WAT     H290357   8.141   9.060   7.819
30039WAT      O90358   5.762   4.943   3.680
30039WAT     H190359   5.803   5.029   3.650
30039WAT     H290360   5.685   4.920   3.620
30040WAT      O90361   6.924   2.918   3.441
30040WAT     H190362   6.897   2.824   3.420
30040WAT     H290363   6.846   2.979   3.424
30041WAT      O90364   8.821   8.818   2.081
30041WAT     H190365   8.884   8.794   2.154
30041WAT     H290366   8.818   8.918   2.072
30042WAT      O90367   4.472   5.155   8.879
30042WAT     H190368   4.387   5.208   8.872
30042WAT     H290369   4.531   5.177   8.801
30043WAT      O90370   8.645   0.812   2.131
30043WAT     H190371   8.711   0.845   2.199
30043WAT     H290372   8.553   0.820   2.167
30044WAT      O90373   6.224   1.355   1.533
30044WAT     H190374   6.178   1.295   1.599
30044WAT     H290375   6.182   1.446   1.536
30045WAT      O90376   1.215   1.266   1.775
30045WAT     H190377   1.288   1.265   1.706
30045WAT     H290378   1.210   1.177   1.820
30046WAT      O90379   3.702   4.228   2.728
30046WAT     H190380   3.761   4.148   2.739
30046WAT     H290381   3.655   4.222   2.640
30047WAT      O90382   5.333   9.300   7.950
30047WAT     H190383   5.355   9.247   7.868
30047WAT     H290384   5.402   9.283   8.020
30048WAT      O90385   3.708   7.831   5.899
30048WAT     H190386   3.707   7.734   5.873
30048WAT     H290387   3.793   7.872   5.868
30049WAT      O90388   2.435   2.992   7.670
30049WAT     H190389   2.517   2.980   7.727
30049WAT     H290390   2.420   2.910   7.615
30050WAT      O90391   8.560   7.112   7.077
30050WAT     H190392   8.487   7.180   7.084
30050WAT     H290393   8.642   7.154   7.040
30051WAT      O90394   9.030   8.325   1.408
30051WAT     H190395   9.112   8.279   1.443
30051WAT     H290396   9.054   8.416   1.374
30052WAT      O90397   0.524   6.337   8.517
30052WAT     H190398   0.483   6.426   8.535
30052WAT     H290399   0.587   6.313   8.591
30053WAT      O90400   5.117   8.499   2.743
30053WAT     H190401   5.094   8.412   2.699
30053WAT     H290402   5.208   8.529   2.712
30054WAT      O90403   7.189   2.027   2.185
30054WAT     H190404   7.287   2.008   2.174
30054WAT     H290405   7.143   1.944   2.216
30055WAT      O90406   4.164   3.799   1.591
30055WAT     H190407   4.090   3.731   1.592
30055WAT     H290408   4.238   3.768   1.650
30056WAT      O90409   8.062   1.915   5.310
30056WAT     H190410   8.041   1.825   5.271
30056WAT     H290411   8.156   1.940   5.287
30057WAT      O90412   0.859   3.778   4.478
30057WAT     H190413   0.772   3.814   4.444
30057WAT     H290414   0.910   3.852   4.521
30058WAT      O90415   0.661   9.732   6.167
30058WAT     H190416   0.730   9.797   6.135
30058WAT     H290417   0.693   9.690   6.252
30059WAT      O90418   0.797   4.720   5.854
30059WAT     H190419   0.829   4.803   5.810
30059WAT     H290420   0.876   4.664   5.881
30060WAT      O90421   9.546   0.610   6.384
30060WAT     H190422   9.554   0.511   6.397
30060WAT     H290423   9.512   0.652   6.468
30061WAT      O90424   8.397   5.873   1.356
30061WAT     H190425   8.359   5.854   1.266
30061WAT     H290426   8.339   5.940   1.403
30062WAT      O90427   3.658   1.725   3.611
30062WAT     H190428   3.599   1.801   3.582
30062WAT     H290429   3.731   1.711   3.544
30063WAT      O90430   8.042   2.102   2.274
30063WAT     H190431   7.958   2.155   2.269
30063WAT     H290432   8.117   2.155   2.233
30064WAT      O90433   7.960   0.258   7.213
30064WAT     H190434   7.964   0.161   7.236
30064WAT     H290435   8.030   0.307   7.266
30065WAT      O90436   1.787   2.370   4.335
30065WAT     H190437   1.820   2.398   4.245
30065WAT     H290438   1.739   2.446   4.378
30066WAT      O90439   9.217   0.793   8.940
30066WAT     H190440   9.142   0.736   8.909
30066WAT     H290441   9.201   0.823   9.034
30067WAT      O90442   7.960   2.092   7.882
30067WAT     H190443   7.954   2.078   7.981
30067WAT     H290444   7.875   2.133   7.849
30068WAT      O90445   1.196   1.218   2.214
30068WAT     H190446   1.273   1.188   2.157
30068WAT     H290447   1.211   1.312   2.244
30069WAT      O90448   5.452   4.114   7.130
30069WAT     H190449   5.417   4.166   7.208
30069WAT     H290450   5.549   4.135   7.116
30070WAT      O90451   1.219   5.956   8.725
30070WAT     H190452   1.244   6.013   8.647
30070WAT     H290453   1.210   5.861   8.696
30071WAT      O90454   8.479   0.967   0.506
30071WAT     H190455   8.436   0.903   0.571
30071WAT     H290456   8.469   0.932   0.413
30072WAT      O90457   4.576   2.149   8.941
30072WAT     H190458   4.618   2.106   8.861
30072WAT     H290459   4.476   2.152   8.929
30073WAT      O90460   0.321   8.187   3.382
30073WAT     H190461   0.317   8.260   3.313
30073WAT     H290462   0.365   8.222   3.465
30074WAT      O90463   0.103   7.712   2.009
30074WAT     H190464   0.187   7.679   2.053
30074WAT     H290465   0.079   7.651   1.934
30075WAT      O90466   4.889   3.746   2.852
30075WAT     H190467   4.882   3.832   2.802
30075WAT     H290468   4.926   3.675   2.792
30076WAT      O90469   3.018   1.971   7.238
30076WAT     H190470   3.102   1.927   7.269
30076WAT     H290471   3.033   2.070   7.230
30077WAT      O90472   1.855   9.034   2.996
30077WAT     H190473   1.802   9.055   2.913
30077WAT     H290474   1.838   9.104   3.065
30078WAT      O90475   9.441   3.398   0.197
30078WAT     H190476   9.509   3.333   0.232
30078WAT     H290477   9.486   3.481   0.167
30079WAT      O90478   3.971   8.341   9.200
30079WAT     H190479   3.999   8.326   9.295
30079WAT     H290480   3.932   8.257   9.163
30080WAT      O90481   1.987   5.894   1.563
30080WAT     H190482   2.031   5.886   1.474
30080WAT     H290483   1.990   5.990   1.593
30081WAT      O90484   8.249   3.042   7.075
30081WAT     H190485   8.301   3.090   7.004
30081WAT     H290486   8.161   3.013   7.037
30082WAT      O90487   3.227   0.373   5.775
30082WAT     H190488   3.207   0.383   5.872
30082WAT     H290489   3.262   0.460   5.739
30083WAT      O90490   5.387   1.386   2.419
30083WAT     H190491   5.395   1.374   2.518
30083WAT     H290492   5.292   1.374   2.392
30084WAT      O90493   4.606   3.212   7.630
30084WAT     H190494   4.692   3.184   7.587
30084WAT     H290495   4.549   3.131   7.646
30085WAT      O90496   5.089   4.110   1.367
30085WAT     H190497   5.072   4.201   1.404
30085WAT     H290498   5.025   4.045   1.409
30086WAT      O90499   0.748   3.452   4.787
30086WAT     H190500   0.695   3.506   4.853
30086WAT     H290501   0.691   3.377   4.753
30087WAT      O90502   1.219   5.448   4.406
30087WAT     H190503   1.316   5.454   4.426
30087WAT     H290504   1.166   5.453   4.491
30088WAT      O90505   4.941   7.119   2.152
30088WAT     H190506   4.974   7.067   2.230
30088WAT     H290507   5.013   7.128   2.084
30089WAT      O90508   0.907   8.518   3.732
30089WAT     H190509   0.978   8.553   3.670
30089WAT     H290510   0.922   8.420   3.747
30090WAT      O90511   1.717   9.323   6.915
30090WAT     H190512   1.684   9.413   6.887
30090WAT     H290513   1.771   9.283   6.841
30091WAT      O90514   2.302   2.767   6.394
30091WAT     H190515   2.217   2.815   6.413
30091WAT     H290516   2.348   2.810   6.316
30092WAT      O90517   9.176   6.004   7.070
30092WAT     H190518   9.255   5.941   7.067
30092WAT     H290519   9.142   6.018   6.978
30093WAT      O90520   4.826   0.633   5.795
30093WAT     H190521   4.736   0.676   5.796
30093WAT     H290522   4.820   0.543   5.751
30094WAT      O90523   5.526   4.532   1.977
30094WAT     H190524   5.585   4.500   2.050
30094WAT     H290525   5.572   4.520   1.889
30095WAT      O90526   9.350   0.793   5.833
30095WAT     H190527   9.325   0.715   5.891
30095WAT     H290528   9.412   0.762   5.761
30096WAT      O90529   6.462   6.621   4.905
30096WAT     H190530   6.386   6.617   4.969
30096WAT     H290531   6.512   6.534   4.908
30097WAT      O90532   1.028   9.330   2.603
30097WAT     H190533   1.111   9.277   2.589
30097WAT     H290534   1.012   9.342   2.701
30098WAT      O90535   3.959   9.633   0.654
30098WAT     H190536   3.871   9.617   0.699
30098WAT     H290537   3.945   9.648   0.556
30099WAT      O90538   9.021   1.948   6.990
30099WAT     H190539   9.003   1.891   7.070
30099WAT     H290540   9.115   1.984   6.995
30100WAT      O90541   5.588   9.135   7.290
30100WAT     H190542   5.671   9.083   7.270
30100WAT     H290543   5.572   9.201   7.217
30101WAT      O90544   8.911   8.522   6.674
30101WAT     H190545   8.971   8.520   6.594
30101WAT     H290546   8.873   8.431   6.689
30102WAT      O90547   2.811  -0.001   7.514
30102WAT     H190548   2.893  -0.000   7.571
30102WAT     H290549   2.774   0.092   7.509
30103WAT      O90550   3.369   0.083   7.947
30103WAT     H190551   3.296   0.113   8.008
30103WAT     H290552   3.334   0.015   7.883
30104WAT      O90553   6.254   6.867   6.778
30104WAT     H190554   6.282   6.888   6.872
30104WAT     H290555   6.206   6.946   6.739
30105WAT      O90556   5.823   7.708   2.305
30105WAT     H190557   5.876   7.627   2.333
30105WAT     H290558   5.883   7.770   2.253
30106WAT      O90559   2.383   8.418   3.030
30106WAT     H190560   2.427   8.328   3.025
30106WAT     H290561   2.408   8.472   2.950
30107WAT      O90562   2.276   2.082   5.548
30107WAT     H190563   2.199   2.019   5.554
30107WAT     H290564   2.361   2.033   5.569
30108WAT      O90565   3.265   1.905   0.713
30108WAT     H190566   3.333   1.871   0.649
30108WAT     H290567   3.227   1.991   0.679
30109WAT      O90568   6.763   2.396   0.645
30109WAT     H190569   6.833   2.325   0.633
30109WAT     H290570   6.700   2.368   0.718
30110WAT      O90571   6.983   9.034   6.889
30110WAT     H190572   7.051   9.079   6.948
30110WAT     H290573   7.025   9.012   6.801
30111WAT      O90574   5.653   1.600   2.634
30111WAT     H190575   5.588   1.632   2.702
30111WAT     H290576   5.746   1.603   2.671
30112WAT      O90577   4.103   9.105   2.179
30112WAT     H190578   4.076   9.079   2.271
30112WAT     H290579   4.127   9.202   2.177
30113WAT      O90580   4.180   0.233   8.409
30113WAT     H190581   4.143   0.280   8.488
30113WAT     H290582   4.229   0.298   8.351
30114WAT      O90583   4.279   2.158   4.224
30114WAT     H190584   4.196   2.106   4.244
30114WAT     H290585   4.292   2.228   4.295
30115WAT      O90586   3.091   9.554   0.899
30115WAT     H190587   3.009   9.505   0.930
30115WAT     H290588   3.169   9.528   0.955
30116WAT      O90589   4.093   4.885   4.197
30116WAT     H190590   4.089   4.975   4.155
30116WAT     H290591   4.132   4.819   4.132
30117WAT      O90592   8.390   5.190   5.515
30117WAT     H190593   8.367   5.276   5.470
30117WAT     H290594   8.487   5.190   5.539
30118WAT      O90595   0.676   5.140   8.007
30118WAT     H190596   0.752   5.087   7.969
30118WAT     H290597   0.664   5.116   8.103
30119WAT      O90598   4.595   1.233   5.516
30119WAT     H190599   4.683   1.199   5.482
30119WAT     H290600   4.610   1.318   5.567
30120WAT      O90601   6.478   6.144   7.479
30120WAT     H190602   6.549   6.074   7.475
30120WAT     H290603   6.388   6.099   7.480
30121WAT      O90604   5.302   2.958   3.692
30121WAT     H190605   5.345   2.995   3.775
30121WAT     H290606   5.366   2.964   3.615
30122WAT      O90607   0.223   0.891   7.680
30122WAT     H190608   0.210   0.796   7.708
30122WAT     H290609   0.139   0.943   7.698
30123WAT      O90610   7.866   8.207   7.911
30123WAT     H190611   7.885   8.288   7.967
30123WAT     H290612   7.780   8.165   7.940
30124WAT      O90613   9.738   4.083   6.451
30124WAT     H190614   9.686   4.010   6.495
30124WAT     H290615   9.675   4.152   6.416
30125WAT      O90616   6.933   5.228   8.350
30125WAT     H190617   6.931   5.328   8.342
30125WAT     H290618   6.842   5.191   8.331
30126WAT      O90619   1.332   0.694   2.816
30126WAT     H190620   1.314   0.792   2.807
30126WAT     H290621   1.370   0.659   2.731
30127WAT      O90622   7.743   2.709   5.671
30127WAT     H190623   7.682   2.647   5.721
30127WAT     H290624   7.691   2.758   5.602
30128WAT      O90625   0.096   0.070   7.567
30128WAT     H190626   0.062   0.075   7.661
30128WAT     H290627   0.106  -0.026   7.541
30129WAT      O90628   7.987   7.102   9.738
30129WAT     H190629   7.950   7.082   9.829
30129WAT     H290630   7.912   7.131   9.678
30130WAT      O90631   3.041   0.878   2.053
30130WAT     H190632   3.023   0.807   2.122
30130WAT     H290633   3.138   0.876   2.028
30131WAT      O90634   4.187   4.832   1.510
30131WAT     H190635   4.170   4.733   1.502
30131WAT     H290636   4.251   4.848   1.586
30132WAT      O90637   4.918   8.493   7.789
30132WAT     H190638   4.849   8.565   7.786
30132WAT     H290639   4.878   8.406   7.760
30133WAT      O90640   5.015   0.921   4.267
30133WAT     H190641   5.063   0.845   4.310
30133WAT     H290642   5.057   1.007   4.295
30134WAT      O90643   9.852   0.901   0.304
30134WAT     H190644   9.916   0.893   0.228
30134WAT     H290645   9.770   0.847   0.285
30135WAT      O90646   7.131   0.074   4.129
30135WAT     H190647   7.169   0.115   4.046
30135WAT     H290648   7.190   0.096   4.207
30136WAT      O90649   7.807   6.264   5.366
30136WAT     H190650   7.845   6.263   5.274
30136WAT     H290651   7.821   6.174   5.408
30137WAT      O90652   1.130   8.648   8.912
30137WAT     H190653   1.193   8.698   8.971
30137WAT     H290654   1.124   8.695   8.823
30138WAT      O90655   9.784   1.958   7.626
30138WAT     H190656   9.685   1.969   7.617
30138WAT     H290657   9.824   1.944   7.535
30139WAT      O90658   8.920   1.314   3.458
30139WAT     H190659   8.899   1.218   3.444
30139WAT     H290660   8.841   1.360   3.498
30140WAT      O90661   2.867   9.425   0.251
30140WAT     H190662   2.874   9.326   0.244
30140WAT     H290663   2.773   9.453   0.231
30141WAT      O90664   6.317   7.074   1.309
30141WAT     H190665   6.235   7.018   1.319
30141WAT     H290666   6.309   7.129   1.225
30142WAT      O90667   5.760   7.525   7.048
30142WAT     H190668   5.665   7.543   7.072
30142WAT     H290669   5.764   7.473   6.963
30143WAT      O90670   7.126   7.922   9.413
30143WAT     H190671   7.218   7.902   9.379
30143WAT     H290672   7.116   7.884   9.505
30144WAT      O90673   7.848   6.403   3.508
30144WAT     H190674   7.940   6.364   3.501
30144WAT     H290675   7.834   6.438   3.601
30145WAT      O90676   3.054   6.642   0.345
30145WAT     H190677   2.998   6.563   0.315
30145WAT     H290678   3.114   6.614   0.419
30146WAT      O90679   3.233   1.452   8.803
30146WAT     H190680   3.260   1.508   8.881
30146WAT     H290681   3.292   1.372   8.798
30147WAT      O90682   3.661   5.436   9.764
30147WAT     H190683   3.671   5.529   9.799
30147WAT     H290684   3.696   5.431   9.670
30148WAT      O90685   2.810   1.693   8.195
30148WAT     H190686   2.764   1.610   8.162
30148WAT     H290687   2.901   1.670   8.229
30149WAT      O90688   8.036   1.396   3.324
30149WAT     H190689   8.015   1.315   3.379
30149WAT     H290690   8.129   1.388   3.287
30150WAT      O90691   6.180   9.701   5.911
30150WAT     H190692   6.245   9.680   5.838
30150WAT     H290693   6.207   9.654   5.995
30151WAT      O90694   8.783   7.920   6.912
30151WAT     H190695   8.803   8.004   6.964
30151WAT     H290696   8.775   7.943   6.815
30152WAT      O90697   4.008   4.268   5.402
30152WAT     H190698   3.922   4.317   5.382
30152WAT     H290699   4.015   4.252   5.500
30153WAT      O90700   6.097   0.737   3.087
30153WAT     H190701   6.018   0.690   3.126
30153WAT     H290702   6.095   0.834   3.112
30154WAT      O90703   7.698   5.102   7.035
30154WAT     H190704   7.630   5.172   7.014
30154WAT     H290705   7.757   5.134   7.109
30155WAT      O90706   4.734   1.514   6.072
30155WAT     H190707   4.691   1.474   5.991
30155WAT     H290708   4.672   1.580   6.114
30156WAT      O90709   9.460   9.658   7.350
30156WAT     H190710   9.382   9.614   7.307
30156WAT     H290711   9.524   9.689   7.280
30157WAT      O90712   7.123   7.655   1.361
30157WAT     H190713   7.047   7.717   1.378
30157WAT     H290714   7.101   7.564   1.398
30158WAT      O90715   4.995   0.750   5.375
30158WAT     H190716   4.905   0.706   5.378
30158WAT     H290717   5.016   0.787   5.466
30159WAT      O90718   0.042   3.439   9.542
30159WAT     H190719   0.136   3.455   9.513
30159WAT     H290720  -0.000   3.525   9.569
30160WAT      O90721   9.758   9.714   4.589
30160WAT     H190722   9.735   9.787   4.655
30160WAT     H290723   9.829   9.655   4.628
30161WAT      O90724   0.452   8.419   5.549
30161WAT     H190725   0.437   8.463   5.638
30161WAT     H290726   0.382   8.349   5.534
30162WAT      O90727   4.959   3.600   6.273
30162WAT     H190728   5.048   3.556   6.286
30162WAT     H290729   4.968   3.674   6.206
30163WAT      O90730   6.542   8.188   5.995
30163WAT     H190731   6.604   8.147   5.929
30163WAT     H290732   6.581   8.273   6.030
30164WAT      O90733   9.609   5.579   0.434
30164WAT     H190734   9.690   5.576   0.492
30164WAT     H290735   9.527   5.569   0.490
30165WAT      O90736   1.852   6.330   1.611
30165WAT     H190737   1.817   6.306   1.521
30165WAT     H290738   1.907   6.255   1.647
30166WAT      O90739   6.619   3.648   4.255
30166WAT     H190740   6.548   3.718   4.245
30166WAT     H290741   6.690   3.682   4.317
30167WAT      O90742   6.482   3.393   6.957
30167WAT     H190743   6.547   3.332   7.002
30167WAT     H290744   6.531   3.460   6.902
30168WAT      O90745   9.470   0.806   1.122
30168WAT     H190746   9.487   0.750   1.041
30168WAT     H290747   9.554   0.814   1.176
30169WAT      O90748   5.693   3.760   9.214
30169WAT     H190749   5.662   3.750   9.120
30169WAT     H290750   5.781   3.806   9.216
30170WAT      O90751   3.204   1.744   1.735
30170WAT     H190752   3.182   1.787   1.647
30170WAT     H290753   3.120   1.716   1.781
30171WAT      O90754   2.387   8.896   9.619
30171WAT     H190755   2.430   8.806   9.629
30171WAT     H290756   2.406   8.951   9.700
30172WAT      O90757   4.861   1.923   6.655
30172WAT     H190758   4.832   1.827   6.652
30172WAT     H290759   4.855   1.963   6.564
30173WAT      O90760   9.229   2.096   1.273
30173WAT     H190761   9.320   2.127   1.245
30173WAT     H290762   9.223   2.096   1.373
30174WAT      O90763   4.355   5.856   6.160
30174WAT     H190764   4.279   5.917   6.182
30174WAT     H290765   4.405   5.893   6.081
30175WAT      O90766   5.584   4.361   7.483
30175WAT     H190767   5.646   4.283   7.486
30175WAT     H290768   5.502   4.335   7.432
30176WAT      O90769   5.838   9.525   8.307
30176WAT     H190770   5.910   9.474   8.261
30176WAT     H290771   5.859   9.534   8.404
30177WAT      O90772   4.539   5.123   3.716
30177WAT     H190773   4.605   5.065   3.666
30177WAT     H290774   4.563   5.125   3.813
30178WAT      O90775   1.667   1.135   4.733
30178WAT     H190776   1.591   1.075   4.711
30178WAT     H290777   1.639   1.230   4.719
30179WAT      O90778   5.577   5.898   6.505
30179WAT     H190779   5.642   5.955   6.455
30179WAT     H290780   5.502   5.955   6.539
30180WAT      O90781   4.357   9.669   6.235
30180WAT     H190782   4.374   9.753   6.184
30180WAT     H290783   4.296   9.610   6.182
30181WAT      O90784   4.611   9.608   7.890
30181WAT     H190785   4.589   9.590   7.794
30181WAT     H290786   4.679   9.680   7.896
30182WAT      O90787   7.804   3.427   5.722
30182WAT     H190788   7.735   3.420   5.794
30182WAT     H290789   7.861   3.345   5.721
30183WAT      O90790   5.148   6.938   9.399
30183WAT     H190791   5.092   6.870   9.445
30183WAT     H290792   5.240   6.938   9.438
30184WAT      O90793   4.701   7.165   2.041
30184WAT     H190794   4.654   7.078   2.029
30184WAT     H290795   4.779   7.153   2.102
30185WAT      O90796   2.572   0.109   6.101
30185WAT     H190797   2.542   0.197   6.137
30185WAT     H290798   2.492   0.053   6.079
30186WAT      O90799   8.585   6.258   8.857
30186WAT     H190800   8.570   6.330   8.925
30186WAT     H290801   8.550   6.288   8.768
30187WAT      O90802   3.910   9.542   2.930
30187WAT     H190803   3.888   9.472   2.863
30187WAT     H290804   3.974   9.608   2.890
30188WAT      O90805   0.381   0.364   7.736
30188WAT     H190806   0.389   0.352   7.835
30188WAT     H290807   0.285   0.364   7.710
30189WAT      O90808   9.851   8.906   6.775
30189WAT     H190809   9.854   8.807   6.791
30189WAT     H290810   9.890   8.954   6.854
30190WAT      O90811   2.564   5.196   9.207
30190WAT     H190812   2.527   5.106   9.183
30190WAT     H290813   2.648   5.213   9.156
30191WAT      O90814   2.163   3.445   9.892
30191WAT     H190815   2.185   3.408   9.802
30191WAT     H290816   2.142   3.371   9.955
30192WAT      O90817   9.403   3.966   9.119
30192WAT     H190818   9.457   4.000   9.042
30192WAT     H290819   9.355   4.042   9.163
30193WAT      O90820   6.184   5.397   4.331
30193WAT     H190821   6.158   5.344   4.411
30193WAT     H290822   6.120   5.380   4.256
30194WAT      O90823   5.552   6.860   0.921
30194WAT     H190824   5.468   6.913   0.910
30194WAT     H290825   5.627   6.920   0.949
30195WAT      O90826   8.658   3.322   8.514
30195WAT     H190827   8.731   3.272   8.467
30195WAT     H290828   8.584   3.259   8.536
30196WAT      O90829   1.720   1.171   6.136
30196WAT     H190830   1.797   1.221   6.175
30196WAT     H290831   1.637   1.226   6.146
30197WAT      O90832   4.391   6.377   2.722
30197WAT     H190833   4.466   6.428   2.678
30197WAT     H290834   4.320   6.358   2.654
30198WAT      O90835   2.364   4.176   5.474
30198WAT     H190836   2.331   4.257   5.425
30198WAT     H290837   2.295   4.104   5.468
30199WAT      O90838   2.252   2.337   4.358
30199WAT     H190839   2.155   2.313   4.367
30199WAT     H290840   2.306   2.278   4.417
30200WAT      O90841   4.045   2.224   1.238
30200WAT     H190842   4.000   2.283   1.171
30200WAT     H290843   3.979   2.157   1.271
30201WAT      O90844   1.074   2.766   9.579
30201WAT     H190845   1.095   2.671   9.556
30201WAT     H290846   1.003   2.768   9.650
30202WAT      O90847   1.826   3.686   3.488
30202WAT     H190848   1.859   3.780   3.484
30202WAT     H290849   1.805   3.662   3.582
30203WAT      O90850   4.849   7.033   4.075
30203WAT     H190851   4.866   7.081   3.990
30203WAT     H290852   4.867   6.935   4.062
30204WAT      O90853   5.635   6.148   2.452
30204WAT     H190854   5.636   6.155   2.552
30204WAT     H290855   5.690   6.222   2.413
30205WAT      O90856   1.922   7.350   7.137
30205WAT     H190857   1.918   7.286   7.060
30205WAT     H290858   1.833   7.394   7.149
30206WAT      O90859   8.683   3.921   3.232
30206WAT     H190860   8.688   3.822   3.217
30206WAT     H290861   8.751   3.947   3.301
30207WAT      O90862   5.960   8.349   8.229
30207WAT     H190863   5.933   8.436   8.272
30207WAT     H290864   5.998   8.289   8.299
30208WAT      O90865   1.119   7.288   4.773
30208WAT     H190866   1.174   7.362   4.813
30208WAT     H290867   1.090   7.314   4.681
30209WAT      O90868   5.993   4.024   0.250
30209WAT     H190869   5.953   4.063   0.166
30209WAT     H290870   5.953   3.935   0.267
30210WAT      O90871   1.607   3.859   5.236
30210WAT     H190872   1.567   3.804   5.310
30210WAT     H290873   1.601   3.956   5.259
30211WAT      O90874   1.758   6.238   4.712
30211WAT     H190875   1.853   6.230   4.684
30211WAT     H290876   1.698   6.201   4.641
30212WAT      O90877   3.908   9.774   1.808
30212WAT     H190878   3.821   9.735   1.835
30212WAT     H290879   3.974   9.701   1.790
30213WAT      O90880   0.256   6.447   7.216
30213WAT     H190881   0.321   6.386   7.262
30213WAT     H290882   0.163   6.412   7.229
30214WAT      O90883   3.314   2.950   3.210
30214WAT     H190884   3.324   2.905   3.121
30214WAT     H290885   3.272   3.040   3.198
30215WAT      O90886   0.581   8.682   0.761
30215WAT     H190887   0.528   8.669   0.845
30215WAT     H290888   0.646   8.607   0.752
30216WAT      O90889   1.319   0.362   7.303
30216WAT     H190890   1.338   0.264   7.291
30216WAT     H290891   1.260   0.393   7.229
30217WAT      O90892   4.862   3.050   5.163
30217WAT     H190893   4.880   3.137   5.118
30217WAT     H290894   4.832   2.983   5.095
30218WAT      O90895   0.961   8.596   8.534
30218WAT     H190896   0.966   8.505   8.575
30218WAT     H290897   0.890   8.649   8.579
30219WAT      O90898   3.164   2.575   0.396
30219WAT     H190899   3.136   2.567   0.300
30219WAT     H290900   3.181   2.485   0.434
30220WAT      O90901   7.059   5.980   7.358
30220WAT     H190902   7.107   6.063   7.386
30220WAT     H290903   6.998   6.001   7.281
30221WAT      O90904   1.545   9.609   7.992
30221WAT     H190905   1.599   9.692   8.006
30221WAT     H290906   1.505   9.610   7.901
30222WAT      O90907   0.865   1.713   7.576
30222WAT     H190908   0.814   1.715   7.490
30222WAT     H290909   0.855   1.622   7.618
30223WAT      O90910   7.139   9.460   9.781
30223WAT     H190911   7.071   9.391   9.804
30223WAT     H290912   7.231   9.423   9.795
30224WAT      O90913   4.513   6.224   8.894
30224WAT     H190914   4.472   6.309   8.861
30224WAT     H290915   4.556   6.239   8.983
30225WAT      O90916   1.570   0.031   0.523
30225WAT     H190917   1.478  -0.002   0.546
30225WAT     H290918   1.564   0.098   0.449
30226WAT      O90919   8.679   6.567   0.029
30226WAT     H190920   8.755   6.503   0.040
30226WAT     H290921   8.715   6.659   0.013
30227WAT      O90922   4.498   3.679   0.045
30227WAT     H190923   4.533   3.643  -0.041
30227WAT     H290924   4.428   3.616   0.081
30228WAT      O90925   9.555   2.622   1.068
30228WAT     H190926   9.540   2.701   1.128
30228WAT     H290927   9.591   2.654   0.980
30229WAT      O90928   2.365   0.888   7.808
30229WAT     H190929   2.380   0.885   7.906
30229WAT     H290930   2.290   0.951   7.787
30230WAT      O90931   8.873   9.026   3.864
30230WAT     H190932   8.824   9.100   3.910
30230WAT     H290933   8.970   9.049   3.860
30231WAT      O90934   3.913   8.215   8.431
30231WAT     H190935   3.981   8.142   8.435
30231WAT     H290936   3.956   8.300   8.399
30232WAT      O90937   6.601   0.351   1.765
30232WAT     H190938   6.670   0.410   1.723
30232WAT     H290939   6.587   0.270   1.708
30233WAT      O90940   6.935   5.820   9.690
30233WAT     H190941   6.952   5.917   9.680
30233WAT     H290942   6.843   5.798   9.655
30234WAT      O90943   3.079   5.580   4.745
30234WAT     H190944   3.082   5.674   4.778
30234WAT     H290945   3.148   5.567   4.674
30235WAT      O90946   5.822   3.439   6.399
30235WAT     H190947   5.886   3.385   6.453
30235WAT     H290948   5.741   3.460   6.454
30236WAT      O90949   1.869   6.041   5.681
30236WAT     H190950   1.960   6.079   5.699
30236WAT     H290951   1.820   6.028   5.767
30237WAT      O90952   9.085   1.017   0.297
30237WAT     H190953   8.999   0.970   0.319
30237WAT     H290954   9.150   1.004   0.372
30238WAT      O90955   5.011   4.175   4.577
30238WAT     H190956   4.995   4.247   4.645
30238WAT     H290957   4.995   4.212   4.485
30239WAT      O90958   9.321   1.510   0.000
30239WAT     H190959   9.322   1.571   0.079
30239WAT     H290960   9.362   1.557  -0.078
30240WAT      O90961   1.796   7.577   3.976
30240WAT     H190962   1.858   7.543   4.046
30240WAT     H290963   1.740   7.651   4.015
30241WAT      O90964   1.533   4.615   0.341
30241WAT     H190965   1.518   4.569   0.253
30241WAT     H290966   1.620   4.585   0.380
30242WAT      O90967   4.067   2.912   2.322
30242WAT     H190968   4.150   2.914   2.265
30242WAT     H290969   4.020   2.824   2.308
30243WAT      O90970   5.728   1.085   8.256
30243WAT     H190971   5.712   1.080   8.157
30243WAT     H290972   5.712   1.178   8.288
30244WAT      O90973   1.821   1.499   8.422
30244WAT     H190974   1.789   1.409   8.392
30244WAT     H290975   1.862   1.491   8.513
30245WAT      O90976   2.457   8.255   4.957
30245WAT     H190977   2.478   8.330   4.895
30245WAT     H290978   2.532   8.189   4.957
30246WAT      O90979   7.142   0.445   5.436
30246WAT     H190980   7.150   0.522   5.499
30246WAT     H290981   7.227   0.392   5.437
30247WAT      O90982   4.805   1.321   6.255
30247WAT     H190983   4.875   1.364   6.313
30247WAT     H290984   4.773   1.387   6.188
30248WAT      O90985   5.419   3.173   1.158
30248WAT     H190986   5.519   3.167   1.166
30248WAT     H290987   5.394   3.202   1.066
30249WAT      O90988   6.841   2.144   7.835
30249WAT     H190989   6.808   2.121   7.926
30249WAT     H290990   6.836   2.243   7.821
30250WAT      O90991   6.334   0.518   5.872
30250WAT     H190992   6.251   0.529   5.926
30250WAT     H290993   6.338   0.590   5.802
30251WAT      O90994   3.484   5.940   0.983
30251WAT     H190995   3.420   5.926   1.058
30251WAT     H290996   3.455   6.019   0.929
30252WAT      O90997   2.146   5.108   2.608
30252WAT     H190998   2.219   5.125   2.542
30252WAT     H290999   2.103   5.019   2.588
30253WAT      O91000   7.794   5.814   9.744
30253WAT     H191001   7.745   5.901   9.750
30253WAT     H291002   7.812   5.779   9.836
30254WAT      O91003   8.095   0.689   0.432
30254WAT     H191004   8.045   0.709   0.517
30254WAT     H291005   8.193   0.680   0.453
30255WAT      O91006   2.526   7.747   9.736
30255WAT     H191007   2.549   7.685   9.812
30255WAT     H291008   2.514   7.694   9.652
30256WAT      O91009   8.001   7.756   8.003
30256WAT     H191010   7.929   7.756   7.934
30256WAT     H291011   8.027   7.850   8.024
30257WAT      O91012   6.175   7.823   4.893
30257WAT     H191013   6.127   7.883   4.957
30257WAT     H291014   6.269   7.857   4.880
30258WAT      O91015   2.805   1.195   8.313
30258WAT     H191016   2.716   1.150   8.318
30258WAT     H291017   2.810   1.267   8.383
30259WAT      O91018   9.196   6.505   6.609
30259WAT     H191019   9.216   6.507   6.707
30259WAT     H291020   9.261   6.444   6.563
30260WAT      O91021   1.175   1.024   5.856
30260WAT     H191022   1.108   1.027   5.930
30260WAT     H291023   1.158   1.100   5.793
30261WAT      O91024   1.738   1.166   5.881
30261WAT     H191025   1.833   1.185   5.857
30261WAT     H291026   1.728   1.166   5.980
30262WAT      O91027   0.362   2.399   4.007
30262WAT     H191028   0.340   2.461   3.932
30262WAT     H291029   0.456   2.417   4.038
30263WAT      O91030   2.746   3.369   7.660
30263WAT     H191031   2.664   3.313   7.646
30263WAT     H291032   2.761   3.426   7.578
30264WAT      O91033   5.070   4.853   5.687
30264WAT     H191034   5.145   4.789   5.704
30264WAT     H291035   5.102   4.946   5.703
30265WAT      O91036   5.274   7.534   6.203
30265WAT     H191037   5.311   7.455   6.253
30265WAT     H291038   5.348   7.598   6.183
30266WAT      O91039   7.131   8.505   2.727
30266WAT     H191040   7.060   8.541   2.666
30266WAT     H291041   7.089   8.441   2.792
30267WAT      O91042   4.668   0.102   9.381
30267WAT     H191043   4.708   0.014   9.357
30267WAT     H291044   4.678   0.166   9.305
30268WAT      O91045   9.592   0.967   4.014
30268WAT     H191046   9.572   0.871   3.996
30268WAT     H291047   9.526   1.004   4.080
30269WAT      O91048   4.443   6.750   0.604
30269WAT     H191049   4.398   6.824   0.553
30269WAT     H291050   4.389   6.728   0.685
30270WAT      O91051   6.021   8.029   8.790
30270WAT     H191052   5.935   7.998   8.750
30270WAT     H291053   6.029   8.128   8.779
30271WAT      O91054   0.914   6.849   5.388
30271WAT     H191055   0.849   6.874   5.316
30271WAT     H291056   0.882   6.767   5.435
30272WAT      O91057   7.385   3.439   7.053
30272WAT     H191058   7.364   3.395   7.140
30272WAT     H291059   7.301   3.450   7.000
30273WAT      O91060   3.514   4.751   3.108
30273WAT     H191061   3.508   4.776   3.012
30273WAT     H291062   3.464   4.666   3.124
30274WAT      O91063   1.593   8.248   1.950
30274WAT     H191064   1.519   8.288   1.897
30274WAT     H291065   1.594   8.288   2.042
30275WAT      O91066   8.083   6.970   3.686
30275WAT     H191067   7.985   6.956   3.674
30275WAT     H291068   8.116   7.035   3.616
30276WAT      O91069   1.224   4.335   3.817
30276WAT     H191070   1.219   4.432   3.797
30276WAT     H291071   1.313   4.313   3.856
30277WAT      O91072   0.261   5.183   5.310
30277WAT     H191073   0.209   5.167   5.225
30277WAT     H291074   0.198   5.207   5.384
30278WAT      O91075   3.115   5.864   4.763
30278WAT     H191076   3.213   5.848   4.755
30278WAT     H291077   3.097   5.921   4.844
30279WAT      O91078   3.724   9.424   0.054
30279WAT     H191079   3.821   9.434   0.076
30279WAT     H291080   3.709   9.339   0.004
30280WAT      O91081   6.972   3.984   6.889
30280WAT     H191082   6.902   3.954   6.954
30280WAT     H291083   7.046   4.029   6.939
30281WAT      O91084   9.311   9.720   6.193
30281WAT     H191085   9.352   9.791   6.251
30281WAT     H291086   9.221   9.751   6.163
30282WAT      O91087   9.107   6.267   4.465
30282WAT     H191088   9.127   6.357   4.425
30282WAT     H291089   9.166   6.198   4.424
30283WAT      O91090   3.678   6.963   1.667
30283WAT     H191091   3.688   7.036   1.734
30283WAT     H291092   3.581   6.949   1.647
30284WAT      O91093   3.539   1.608   2.014
30284WAT     H191094   3.632   1.572   2.023
30284WAT     H291095   3.512   1.608   1.917
30285WAT      O91096   3.176   0.262   3.808
30285WAT     H191097   3.273   0.258   3.829
30285WAT     H291098   3.157   0.341   3.750
30286WAT      O91099   7.650   3.476   7.100
30286WAT     H191100   7.554   3.474   7.073
30286WAT     H291101   7.667   3.554   7.159
30287WAT      O91102   2.302   8.542   7.531
30287WAT     H191103   2.355   8.603   7.472
30287WAT     H291104   2.342   8.450   7.528
30288WAT      O91105   1.010   0.367   4.226
30288WAT     H191106   1.043   0.310   4.151
30288WAT     H291107   1.078   0.436   4.248
30289WAT      O91108   9.770   1.939   3.329
30289WAT     H191109   9.827   1.878   3.273
30289WAT     H291110   9.799   1.931   3.425
30290WAT      O91111   7.770   6.570   7.634
30290WAT     H191112   7.769   6.657   7.683
30290WAT     H291113   7.781   6.496   7.700
30291WAT      O91114   3.185   8.426   0.322
30291WAT     H191115   3.192   8.524   0.341
30291WAT     H291116   3.236   8.375   0.391
30292WAT      O91117   5.841   3.734   1.689
30292WAT     H191118   5.864   3.722   1.592
30292WAT     H291119   5.869   3.652   1.740
30293WAT      O91120   8.693   4.132   3.705
30293WAT     H191121   8.768   4.080   3.747
30293WAT     H291122   8.611   4.075   3.704
30294WAT      O91123   1.616   3.153   2.876
30294WAT     H191124   1.564   3.074   2.845
30294WAT     H291125   1.571   3.194   2.955
30295WAT      O91126   7.403   2.460   0.668
30295WAT     H191127   7.358   2.541   0.707
30295WAT     H291128   7.338   2.412   0.609
30296WAT      O91129   3.682   4.265   4.683
30296WAT     H191130   3.738   4.332   4.634
30296WAT     H291131   3.586   4.294   4.682
30297WAT      O91132   4.335   0.145   6.281
30297WAT     H191133   4.269   0.163   6.209
30297WAT     H291134   4.303   0.185   6.367
30298WAT      O91135   7.685   0.154   7.029
30298WAT     H191136   7.722   0.204   7.107
30298WAT     H291137   7.710   0.057   7.037
30299WAT      O91138   4.137   9.293   8.139
30299WAT     H191139   4.163   9.233   8.064
30299WAT     H291140   4.065   9.249   8.194
30300WAT      O91141   3.699   5.684   9.877
30300WAT     H191142   3.773   5.740   9.840
30300WAT     H291143   3.723   5.652   9.969
30301WAT      O91144   4.882   7.590   3.916
30301WAT     H191145   4.943   7.554   3.988
30301WAT     H291146   4.923   7.573   3.826
30302WAT      O91147   5.706   7.547   1.925
30302WAT     H191148   5.630   7.555   1.990
30302WAT     H291149   5.699   7.619   1.856
30303WAT      O91150   7.909   3.807   8.861
30303WAT     H191151   7.974   3.732   8.872
30303WAT     H291152   7.905   3.834   8.765
30304WAT      O91153   4.011   2.983   1.881
30304WAT     H191154   4.068   2.914   1.926
30304WAT     H291155   3.932   3.004   1.938
30305WAT      O91156   2.626   4.120   6.852
30305WAT     H191157   2.637   4.034   6.802
30305WAT     H291158   2.530   4.148   6.850
30306WAT      O91159   5.195   9.551   1.449
30306WAT     H191160   5.132   9.625   1.468
30306WAT     H291161   5.274   9.586   1.398
30307WAT      O91162   8.461   6.001   1.981
30307WAT     H191163   8.415   5.985   2.068
30307WAT     H291164   8.554   5.964   1.985
30308WAT      O91165   6.951   6.858   8.390
30308WAT     H191166   7.007   6.780   8.421
30308WAT     H291167   6.857   6.827   8.377
30309WAT      O91168   9.546   5.062   5.219
30309WAT     H191169   9.614   5.061   5.293
30309WAT     H291170   9.533   4.969   5.185
30310WAT      O91171   9.077   1.239   2.506
30310WAT     H191172   9.076   1.146   2.543
30310WAT     H291173   9.086   1.235   2.407
30311WAT      O91174   7.464   3.108   8.079
30311WAT     H191175   7.437   3.204   8.077
30311WAT     H291176   7.413   3.061   8.151
30312WAT      O91177   9.777   7.318   8.409
30312WAT     H191178   9.745   7.397   8.462
30312WAT     H291179   9.719   7.306   8.329
30313WAT      O91180   1.339   2.554   3.131
30313WAT     H191181   1.264   2.614   3.159
30313WAT     H291182   1.334   2.539   3.032
30314WAT      O91183   4.816   4.444   9.029
30314WAT     H191184   4.909   4.415   9.053
30314WAT     H291185   4.752   4.408   9.097
30315WAT      O91186   0.388   3.224   3.149
30315WAT     H191187   0.417   3.270   3.065
30315WAT     H291188   0.466   3.176   3.189
30316WAT      O91189   8.759   7.940   5.399
30316WAT     H191190   8.792   8.033   5.379
30316WAT     H291191   8.817   7.899   5.469
30317WAT      O91192   0.443   1.606   4.074
30317WAT     H191193   0.364   1.665   4.059
30317WAT     H291194   0.487   1.632   4.160
30318WAT      O91195   1.400   1.065   7.609
30318WAT     H191196   1.368   1.008   7.533
30318WAT     H291197   1.328   1.128   7.636
30319WAT      O91198   4.158   8.408   3.432
30319WAT     H191199   4.205   8.473   3.492
30319WAT     H291200   4.097   8.350   3.487
30320WAT      O91201   3.141   8.055   7.577
30320WAT     H191202   3.182   7.976   7.532
30320WAT     H291203   3.194   8.079   7.658
30321WAT      O91204   0.326   2.866   1.850
30321WAT     H191205   0.238   2.913   1.844
30321WAT     H291206   0.332   2.798   1.777
30322WAT      O91207   8.962   3.764   6.492
30322WAT     H191208   9.043   3.710   6.512
30322WAT     H291209   8.905   3.770   6.574
30323WAT      O91210   8.650   8.152   2.944
30323WAT     H191211   8.716   8.162   3.019
30323WAT     H291212   8.661   8.062   2.902
30324WAT      O91213   9.210   3.821   1.255
30324WAT     H191214   9.199   3.872   1.341
30324WAT     H291215   9.184   3.725   1.270
30325WAT      O91216   9.414   8.716   3.448
30325WAT     H191217   9.512   8.723   3.470
30325WAT     H291218   9.397   8.757   3.358
30326WAT      O91219   8.285   2.742   0.624
30326WAT     H191220   8.198   2.700   0.598
30326WAT     H291221   8.304   2.819   0.563
30327WAT      O91222   4.813   0.496   6.638
30327WAT     H191223   4.819   0.573   6.574
30327WAT     H291224   4.885   0.504   6.706
30328WAT      O91225   5.030   3.417   2.076
30328WAT     H191226   4.963   3.368   2.132
30328WAT     H291227   5.057   3.501   2.123
30329WAT      O91228   4.899   9.784   1.754
30329WAT     H191229   4.880   9.768   1.657
30329WAT     H291230   4.873   9.877   1.778
30330WAT      O91231   9.234   3.512   9.586
30330WAT     H191232   9.304   3.583   9.593
30330WAT     H291233   9.246   3.463   9.499
30331WAT      O91234   2.340   1.561   9.215
30331WAT     H191235   2.352   1.527   9.308
30331WAT     H291236   2.243   1.579   9.198
30332WAT      O91237   2.008   7.471   4.893
30332WAT     H191238   2.095   7.499   4.851
30332WAT     H291239   2.025   7.404   4.965
30333WAT      O91240   8.622   0.070   8.669
30333WAT     H191241   8.713   0.033   8.688
30333WAT     H291242   8.568   0.069   8.752
30334WAT      O91243   5.300   0.312   9.553
30334WAT     H191244   5.230   0.309   9.625
30334WAT     H291245   5.279   0.244   9.483
30335WAT      O91246   1.441   4.792   0.728
30335WAT     H191247   1.526   4.815   0.681
30335WAT     H291248   1.461   4.737   0.809
30336WAT      O91249   5.491   0.921   3.270
30336WAT     H191250   5.512   0.894   3.176
30336WAT     H291251   5.400   0.889   3.295
30337WAT      O91252   8.740   2.429   1.283
30337WAT     H191253   8.641   2.432   1.296
30337WAT     H291254   8.781   2.513   1.319
30338WAT      O91255   7.206   5.783   2.697
30338WAT     H191256   7.216   5.715   2.770
30338WAT     H291257   7.118   5.771   2.651
30339WAT      O91258   2.181   9.727   2.452
30339WAT     H191259   2.255   9.667   2.420
30339WAT     H291260   2.116   9.741   2.377
30340WAT      O91261   5.687   6.210   5.672
30340WAT     H191262   5.711   6.240   5.765
30340WAT     H291263   5.767   6.219   5.613
30341WAT      O91264   6.383   6.645   0.170
30341WAT     H191265   6.286   6.626   0.185
30341WAT     H291266   6.393   6.733   0.123
30342WAT      O91267   0.453   1.034   8.868
30342WAT     H191268   0.360   1.034   8.831
30342WAT     H291269   0.460   0.967   8.941
30343WAT      O91270   2.891   4.615   9.339
30343WAT     H191271   2.840   4.699   9.325
30343WAT     H291272   2.829   4.536   9.332
30344WAT      O91273   0.792   0.934   9.338
30344WAT     H191274   0.873   0.889   9.301
30344WAT     H291275   0.811   1.031   9.352
30345WAT      O91276   3.038   4.235   1.734
30345WAT     H191277   3.081   4.277   1.814
30345WAT     H291278   2.960   4.180   1.764
30346WAT      O91279   7.568   0.524   4.363
30346WAT     H191280   7.568   0.475   4.276
30346WAT     H291281   7.636   0.598   4.360
30347WAT      O91282   0.899   4.556   4.115
30347WAT     H191283   0.973   4.624   4.113
30347WAT     H291284   0.873   4.539   4.209
30348WAT      O91285   8.233   0.159   9.506
30348WAT     H191286   8.265   0.210   9.586
30348WAT     H291287   8.296   0.171   9.430
30349WAT      O91288   2.590   9.401   2.470
30349WAT     H191289   2.601   9.309   2.433
30349WAT     H291290   2.594   9.397   2.570
30350WAT      O91291   2.275   8.542   9.619
30350WAT     H191292   2.366   8.573   9.591
30350WAT     H291293   2.206   8.579   9.557
30351WAT      O91294   5.837   3.925   9.469
30351WAT     H191295   5.807   3.950   9.377
30351WAT     H291296   5.758   3.912   9.528
30352WAT      O91297   0.750   6.515   7.778
30352WAT     H191298   0.754   6.613   7.795
30352WAT     H291299   0.724   6.499   7.683
30353WAT      O91300   7.891   2.415   7.889
30353WAT     H191301   7.906   2.411   7.790
30353WAT     H291302   7.964   2.470   7.932
30354WAT      O91303   0.615   8.311   1.108
30354WAT     H191304   0.638   8.404   1.136
30354WAT     H291305   0.582   8.259   1.187
30355WAT      O91306   8.202   1.115   6.346
30355WAT     H191307   8.169   1.056   6.420
30355WAT     H291308   8.266   1.183   6.383
30356WAT      O91309   3.314   3.137   1.114
30356WAT     H191310   3.227   3.160   1.070
30356WAT     H291311   3.367   3.220   1.129
30357WAT      O91312   4.975   4.055   5.232
30357WAT     H191313   5.027   4.131   5.270
30357WAT     H291314   4.952   3.990   5.305
30358WAT      O91315   3.981   7.609   6.016
30358WAT     H191316   3.928   7.624   5.933
30358WAT     H291317   4.061   7.669   6.016
30359WAT      O91318   3.258   8.605   5.691
30359WAT     H191319   3.214   8.657   5.764
30359WAT     H291320   3.224   8.636   5.602
30360WAT      O91321   3.899   3.368   3.218
30360WAT     H191322   3.997   3.362   3.232
30360WAT     H291323   3.864   3.453   3.258
30361WAT      O91324   1.290   4.329   7.575
30361WAT     H191325   1.320   4.280   7.494
30361WAT     H291326   1.314   4.277   7.657
30362WAT      O91327   5.927   0.095   1.285
30362WAT     H191328   5.911   0.055   1.195
30362WAT     H291329   6.011   0.149   1.283
30363WAT      O91330   4.540   0.753   3.844
30363WAT     H191331   4.501   0.665   3.870
30363WAT     H291332   4.638   0.753   3.863
30364WAT      O91333   0.006   7.847   6.634
30364WAT     H191334   0.071   7.915   6.666
30364WAT     H291335  -0.087   7.877   6.657
30365WAT      O91336   8.786   7.410   7.611
30365WAT     H191337   8.838   7.375   7.689
30365WAT     H291338   8.724   7.339   7.578
30366WAT      O91339   0.685   1.104   5.129
30366WAT     H191340   0.678   1.048   5.211
30366WAT     H291341   0.610   1.082   5.066
30367WAT      O91342   2.867   1.503   5.313
30367WAT     H191343   2.913   1.429   5.264
30367WAT     H291344   2.768   1.487   5.312
30368WAT      O91345   5.852   2.990   5.679
30368WAT     H191346   5.945   3.006   5.646
30368WAT     H291347   5.836   3.046   5.760
30369WAT      O91348   6.771   1.985   6.497
30369WAT     H191349   6.690   2.029   6.536
30369WAT     H291350   6.812   1.923   6.564
30370WAT      O91351   5.671   9.703   8.978
30370WAT     H191352   5.645   9.755   8.896
30370WAT     H291353   5.612   9.729   9.054
30371WAT      O91354   3.329   6.195   8.087
30371WAT     H191355   3.426   6.219   8.086
30371WAT     H291356   3.274   6.278   8.096
30372WAT      O91357   1.401   0.567   0.315
30372WAT     H191358   1.471   0.631   0.286
30372WAT     H291359   1.386   0.576   0.414
30373WAT      O91360   7.550   6.396   2.035
30373WAT     H191361   7.500   6.407   2.120
30373WAT     H291362   7.648   6.386   2.054
30374WAT      O91363   8.667   9.525   2.934
30374WAT     H191364   8.569   9.510   2.915
30374WAT     H291365   8.704   9.590   2.868
30375WAT      O91366   2.319   1.810   8.011
30375WAT     H191367   2.323   1.780   7.916
30375WAT     H291368   2.245   1.877   8.022
30376WAT      O91369   3.018   0.568   9.812
30376WAT     H191370   2.989   0.654   9.852
30376WAT     H291371   3.079   0.520   9.875
30377WAT      O91372   5.493   0.478   3.253
30377WAT     H191373   5.410   0.525   3.222
30377WAT     H291374   5.568   0.499   3.190
30378WAT      O91375   7.262   2.578   4.800
30378WAT     H191376   7.344   2.615   4.842
30378WAT     H291377   7.262   2.478   4.809
30379WAT      O91378   7.581   4.444   5.410
30379WAT     H191379   7.561   4.372   5.476
30379WAT     H291380   7.680   4.460   5.406
30380WAT      O91381   3.308   4.243   0.574
30380WAT     H191382   3.403   4.264   0.599
30380WAT     H291383   3.269   4.321   0.525
30381WAT      O91384   8.021   5.128   1.648
30381WAT     H191385   7.935   5.129   1.698
30381WAT     H291386   8.096   5.150   1.711
30382WAT      O91387   8.687   7.928   8.409
30382WAT     H191388   8.681   7.843   8.462
30382WAT     H291389   8.766   7.924   8.349
30383WAT      O91390   0.325   4.371   5.648
30383WAT     H191391   0.281   4.309   5.713
30383WAT     H291392   0.316   4.465   5.680
30384WAT      O91393   1.796   6.542   7.469
30384WAT     H191394   1.837   6.500   7.388
30384WAT     H291395   1.849   6.515   7.550
30385WAT      O91396   0.306   4.330   5.351
30385WAT     H191397   0.319   4.366   5.444
30385WAT     H291398   0.391   4.335   5.300
30386WAT      O91399   1.890   8.099   8.747
30386WAT     H191400   1.827   8.138   8.681
30386WAT     H291401   1.858   8.008   8.775
30387WAT      O91402   7.799   1.593   7.950
30387WAT     H191403   7.828   1.603   7.855
30387WAT     H291404   7.756   1.677   7.981
30388WAT      O91405   9.116   2.980   0.570
30388WAT     H191406   9.045   2.997   0.501
30388WAT     H291407   9.157   3.066   0.599
30389WAT      O91408   4.250   7.849   6.542
30389WAT     H191409   4.249   7.871   6.444
30389WAT     H291410   4.166   7.882   6.584
30390WAT      O91411   5.641   1.010   7.107
30390WAT     H191412   5.731   1.053   7.098
30390WAT     H291413   5.626   0.950   7.029
30391WAT      O91414   2.603   1.981   7.522
30391WAT     H191415   2.640   1.985   7.429
30391WAT     H291416   2.574   1.888   7.543
30392WAT      O91417   5.065   1.787   5.127
30392WAT     H191418   4.970   1.814   5.107
30392WAT     H291419   5.070   1.753   5.221
30393WAT      O91420   2.428   7.763   7.108
30393WAT     H191421   2.515   7.811   7.110
30393WAT     H291422   2.390   7.758   7.200
30394WAT      O91423   6.142   4.697   3.664
30394WAT     H191424   6.185   4.607   3.655
30394WAT     H291425   6.053   4.697   3.620
30395WAT      O91426   7.059   2.422   3.645
30395WAT     H191427   7.053   2.357   3.569
30395WAT     H291428   7.077   2.514   3.609
30396WAT      O91429   4.336   5.587   6.053
30396WAT     H191430   4.302   5.678   6.075
30396WAT     H291431   4.405   5.594   5.980
30397WAT      O91432   9.123   2.876   0.976
30397WAT     H191433   9.097   2.809   1.046
30397WAT     H291434   9.043   2.900   0.922
30398WAT      O91435   9.455   7.573   9.697
30398WAT     H191436   9.377   7.604   9.752
30398WAT     H291437   9.493   7.491   9.740
30399WAT      O91438   1.613   6.230   5.669
30399WAT     H191439   1.524   6.217   5.625
30399WAT     H291440   1.624   6.163   5.743
30400WAT      O91441   2.282   6.448   0.536
30400WAT     H191442   2.380   6.435   0.552
30400WAT     H291443   2.269   6.499   0.451
30401WAT      O91444   9.836   5.021   3.276
30401WAT     H191445   9.823   5.058   3.184
30401WAT     H291446   9.755   4.968   3.302
30402WAT      O91447   0.147   2.295   7.818
30402WAT     H191448   0.086   2.282   7.740
30402WAT     H291449   0.235   2.250   7.799
30403WAT      O91450   7.783   8.218   1.213
30403WAT     H191451   7.843   8.186   1.286
30403WAT     H291452   7.689   8.189   1.232
30404WAT      O91453   2.873   2.152   2.574
30404WAT     H191454   2.929   2.225   2.535
30404WAT     H291455   2.930   2.094   2.632
30405WAT      O91456   5.791   8.514   4.934
30405WAT     H191457   5.743   8.594   4.972
30405WAT     H291458   5.763   8.432   4.984
30406WAT      O91459   3.639   3.757   8.837
30406WAT     H191460   3.606   3.843   8.799
30406WAT     H291461   3.689   3.775   8.922
30407WAT      O91462   0.619   5.257   3.149
30407WAT     H191463   0.568   5.327   3.098
30407WAT     H291464   0.665   5.299   3.227
30408WAT      O91465   0.506   6.168   1.119
30408WAT     H191466   0.428   6.213   1.161
30408WAT     H291467   0.549   6.230   1.052
30409WAT      O91468   7.921   8.457   6.540
30409WAT     H191469   7.942   8.400   6.460
30409WAT     H291470   7.855   8.528   6.514
30410WAT      O91471   6.102   2.000   1.213
30410WAT     H191472   6.131   2.048   1.296
30410WAT     H291473   6.082   2.066   1.141
30411WAT      O91474   1.801   6.238   6.868
30411WAT     H191475   1.724   6.201   6.816
30411WAT     H291476   1.771   6.317   6.921
30412WAT      O91477   3.488   3.000   8.809
30412WAT     H191478   3.564   3.020   8.748
30412WAT     H291479   3.478   3.074   8.876
30413WAT      O91480   9.323   1.101   9.300
30413WAT     H191481   9.347   1.165   9.373
30413WAT     H291482   9.405   1.080   9.246
30414WAT      O91483   9.272   0.498   6.628
30414WAT     H191484   9.231   0.512   6.538
30414WAT     H291485   9.202   0.505   6.699
30415WAT      O91486   6.511   3.843   3.945
30415WAT     H191487   6.586   3.871   3.885
30415WAT     H291488   6.527   3.879   4.037
30416WAT      O91489   1.304   9.772   8.709
30416WAT     H191490   1.292   9.687   8.658
30416WAT     H291491   1.323   9.847   8.645
30417WAT      O91492   9.162   1.789   8.052
30417WAT     H191493   9.223   1.710   8.045
30417WAT     H291494   9.208   1.863   8.101
30418WAT      O91495   0.514   0.421   1.361
30418WAT     H191496   0.603   0.468   1.365
30418WAT     H291497   0.456   0.453   1.436
30419WAT      O91498   3.373   3.947   4.539
30419WAT     H191499   3.366   4.004   4.621
30419WAT     H291500   3.429   3.994   4.470
30420WAT      O91501   6.523   8.787   1.000
30420WAT     H191502   6.427   8.805   0.980
30420WAT     H291503   6.545   8.819   1.092
30421WAT      O91504   9.349   8.261   4.654
30421WAT     H191505   9.253   8.272   4.626
30421WAT     H291506   9.363   8.168   4.687
30422WAT      O91507   4.057   4.018   2.321
30422WAT     H191508   4.146   4.022   2.368
30422WAT     H291509   4.063   4.069   2.235
30423WAT      O91510   2.858   4.838   3.091
30423WAT     H191511   2.945   4.887   3.100
30423WAT     H291512   2.869   4.763   3.026
30424WAT      O91513   0.473   5.464   0.807
30424WAT     H191514   0.457   5.468   0.708
30424WAT     H291515   0.406   5.403   0.849
30425WAT      O91516   0.582   1.657   6.420
30425WAT     H191517   0.562   1.721   6.347
30425WAT     H291518   0.670   1.612   6.402
30426WAT      O91519   0.497   9.165   4.451
30426WAT     H191520   0.442   9.247   4.462
30426WAT     H291521   0.457   9.107   4.380
30427WAT      O91522   4.663   4.607   9.300
30427WAT     H191523   4.697   4.623   9.392
30427WAT     H291524   4.645   4.510   9.286
30428WAT      O91525   4.248   2.819   4.071
30428WAT     H191526   4.288   2.745   4.124
30428WAT     H291527   4.239   2.791   3.975
30429WAT      O91528   2.846   3.263   0.308
30429WAT     H191529   2.779   3.315   0.361
30429WAT     H291530   2.864   3.311   0.222
30430WAT      O91531   7.050   4.121   9.034
30430WAT     H191532   6.982   4.106   8.962
30430WAT     H291533   7.120   4.049   9.030
30431WAT      O91534   1.539   0.921   1.195
30431WAT     H191535   1.452   0.872   1.198
30431WAT     H291536   1.561   0.942   1.100
30432WAT      O91537   9.690   5.997   1.050
30432WAT     H191538   9.773   5.943   1.067
30432WAT     H291539   9.617   5.965   1.110
30433WAT      O91540   9.481   4.742   9.535
30433WAT     H191541   9.393   4.778   9.565
30433WAT     H291542   9.527   4.698   9.611
30434WAT      O91543   9.051   7.101   3.885
30434WAT     H191544   9.029   7.199   3.879
30434WAT     H291545   8.979   7.054   3.936
30435WAT      O91546   1.197   7.191   7.979
30435WAT     H191547   1.245   7.167   8.064
30435WAT     H291548   1.264   7.218   7.910
30436WAT      O91549   1.877   5.424   1.494
30436WAT     H191550   1.821   5.342   1.484
30436WAT     H291551   1.859   5.486   1.417
30437WAT      O91552   7.518   2.073   8.195
30437WAT     H191553   7.576   1.999   8.229
30437WAT     H291554   7.459   2.106   8.269
30438WAT      O91555   0.348   2.331   9.789
30438WAT     H191556   0.340   2.236   9.759
30438WAT     H291557   0.260   2.363   9.824
30439WAT      O91558   0.407   0.249   5.019
30439WAT     H191559   0.370   0.185   5.086
30439WAT     H291560   0.394   0.212   4.927
30440WAT      O91561   1.429   3.723   5.423
30440WAT     H191562   1.386   3.636   5.446
30440WAT     H291563   1.472   3.761   5.505
30441WAT      O91564   9.780   3.982   3.922
30441WAT     H191565   9.766   3.913   3.852
30441WAT     H291566   9.758   4.072   3.884
30442WAT      O91567   7.471   2.232   3.848
30442WAT     H191568   7.373   2.211   3.853
30442WAT     H291569   7.484   2.314   3.792
30443WAT      O91570   6.013   1.490   5.494
30443WAT     H191571   5.987   1.576   5.537
30443WAT     H291572   5.935   1.452   5.444
30444WAT      O91573   7.712   7.529   1.764
30444WAT     H191574   7.699   7.627   1.750
30444WAT     H291575   7.755   7.489   1.683
30445WAT      O91576   9.462   5.862   5.407
30445WAT     H191577   9.485   5.787   5.345
30445WAT     H291578   9.402   5.927   5.361
30446WAT      O91579   4.033   6.140   5.790
30446WAT     H191580   4.080   6.185   5.714
30446WAT     H291581   4.027   6.203   5.867
30447WAT      O91582   4.222   6.839   7.083
30447WAT     H191583   4.275   6.755   7.069
30447WAT     H291584   4.154   6.848   7.011
30448WAT      O91585   5.785   3.714   8.262
30448WAT     H191586   5.780   3.752   8.354
30448WAT     H291587   5.757   3.618   8.264
30449WAT      O91588   7.684   7.184   0.054
30449WAT     H191589   7.645   7.195   0.145
30449WAT     H291590   7.776   7.146   0.061
30450WAT      O91591   8.361   6.604   4.817
30450WAT     H191592   8.362   6.653   4.730
30450WAT     H291593   8.447   6.554   4.829
30451WAT      O91594   8.241   0.179   5.918
30451WAT     H191595   8.329   0.210   5.881
30451WAT     H291596   8.208   0.101   5.864
30452WAT      O91597   3.502   1.197   5.861
30452WAT     H191598   3.523   1.247   5.777
30452WAT     H291599   3.480   1.102   5.838
30453WAT      O91600   8.289   5.361   0.188
30453WAT     H191601   8.355   5.287   0.183
30453WAT     H291602   8.246   5.375   0.099
30454WAT      O91603   8.865   4.347   1.411
30454WAT     H191604   8.950   4.359   1.360
30454WAT     H291605   8.848   4.249   1.424
30455WAT      O91606   2.072   5.358   8.088
30455WAT     H191607   2.032   5.303   8.015
30455WAT     H291608   2.096   5.448   8.052
30456WAT      O91609   5.341   7.230   4.345
30456WAT     H191610   5.288   7.186   4.418
30456WAT     H291611   5.428   7.182   4.333
30457WAT      O91612   9.584   3.196   4.671
30457WAT     H191613   9.593   3.155   4.579
30457WAT     H291614   9.510   3.263   4.670
30458WAT      O91615   1.165   4.446   9.039
30458WAT     H191616   1.207   4.405   9.120
30458WAT     H291617   1.236   4.489   8.982
30459WAT      O91618   3.475   2.989   7.549
30459WAT     H191619   3.431   3.074   7.578
30459WAT     H291620   3.531   2.953   7.623
30460WAT      O91621   4.825   9.655   3.144
30460WAT     H191622   4.925   9.654   3.142
30460WAT     H291623   4.792   9.614   3.228
30461WAT      O91624   9.176   0.152   8.828
30461WAT     H191625   9.156   0.129   8.733
30461WAT     H291626   9.192   0.068   8.880
30462WAT      O91627   9.252   9.088   2.994
30462WAT     H191628   9.272   9.048   3.083
30462WAT     H291629   9.245   9.188   3.002
30463WAT      O91630   3.778   3.776   8.031
30463WAT     H191631   3.739   3.818   7.949
30463WAT     H291632   3.852   3.714   8.004
30464WAT      O91633   6.597   1.317   7.899
30464WAT     H191634   6.675   1.277   7.850
30464WAT     H291635   6.607   1.416   7.901
30465WAT      O91636   1.737   4.341   8.459
30465WAT     H191637   1.645   4.371   8.432
30465WAT     H291638   1.805   4.381   8.397
30466WAT      O91639   5.104   3.213   2.953
30466WAT     H191640   5.116   3.114   2.964
30466WAT     H291641   5.006   3.235   2.955
30467WAT      O91642   2.284   0.507   8.684
30467WAT     H191643   2.263   0.586   8.626
30467WAT     H291644   2.359   0.530   8.745
30468WAT      O91645   9.830   4.179   2.118
30468WAT     H191646   9.882   4.173   2.033
30468WAT     H291647   9.830   4.090   2.163
30469WAT      O91648   6.940   1.171   8.101
30469WAT     H191649   6.922   1.189   8.198
30469WAT     H291650   7.035   1.197   8.080
30470WAT      O91651   7.043   2.274   2.161
30470WAT     H191652   6.948   2.248   2.178
30470WAT     H291653   7.102   2.194   2.172
30471WAT      O91654   7.267   1.758   0.031
30471WAT     H191655   7.307   1.699   0.101
30471WAT     H291656   7.273   1.713  -0.058
30472WAT      O91657   4.186   1.306   7.881
30472WAT     H191658   4.197   1.400   7.914
30472WAT     H291659   4.221   1.299   7.788
30473WAT      O91660   9.829   3.232   8.712
30473WAT     H191661   9.730   3.248   8.712
30473WAT     H291662   9.851   3.164   8.642
30474WAT      O91663   7.738   6.903   3.982
30474WAT     H191664   7.646   6.883   4.015
30474WAT     H291665   7.756   6.851   3.898
30475WAT      O91666   3.980   1.642   0.476
30475WAT     H191667   4.019   1.596   0.397
30475WAT     H291668   4.045   1.640   0.552
30476WAT      O91669   0.841   9.317   3.769
30476WAT     H191670   0.898   9.251   3.720
30476WAT     H291671   0.879   9.331   3.860
30477WAT      O91672   2.501   4.349   8.550
30477WAT     H191673   2.438   4.308   8.617
30477WAT     H291674   2.505   4.448   8.564
30478WAT      O91675   8.712   7.775   0.556
30478WAT     H191676   8.735   7.850   0.618
30478WAT     H291677   8.708   7.689   0.607
30479WAT      O91678   4.603   2.618   9.589
30479WAT     H191679   4.595   2.708   9.631
30479WAT     H291680   4.616   2.549   9.660
30480WAT      O91681   0.157   1.233   6.211
30480WAT     H191682   0.255   1.229   6.193
30480WAT     H291683   0.138   1.303   6.279
30481WAT      O91684   0.888   1.688   6.777
30481WAT     H191685   0.851   1.674   6.868
30481WAT     H291686   0.859   1.613   6.717
30482WAT      O91687   2.812   5.586   6.579
30482WAT     H191688   2.735   5.649   6.590
30482WAT     H291689   2.865   5.613   6.499
30483WAT      O91690   6.089   2.188   5.873
30483WAT     H191691   6.189   2.197   5.873
30483WAT     H291692   6.053   2.225   5.788
30484WAT      O91693   6.467   1.577   0.811
30484WAT     H191694   6.473   1.676   0.818
30484WAT     H291695   6.542   1.542   0.755
30485WAT      O91696   3.490   4.617   1.057
30485WAT     H191697   3.494   4.705   1.011
30485WAT     H291698   3.582   4.576   1.059
30486WAT      O91699   8.151   3.364   6.292
30486WAT     H191700   8.116   3.305   6.219
30486WAT     H291701   8.242   3.397   6.268
30487WAT      O91702   5.488   2.857   0.660
30487WAT     H191703   5.445   2.788   0.602
30487WAT     H291704   5.449   2.851   0.752
30488WAT      O91705   1.469   6.125   6.120
30488WAT     H191706   1.382   6.157   6.083
30488WAT     H291707   1.545   6.166   6.069
30489WAT      O91708   7.993   7.352   0.661
30489WAT     H191709   8.019   7.389   0.572
30489WAT     H291710   8.006   7.422   0.731
30490WAT      O91711   7.363   8.377   9.780
30490WAT     H191712   7.395   8.460   9.733
30490WAT     H291713   7.281   8.398   9.833
30491WAT      O91714   8.599   3.619   7.499
30491WAT     H191715   8.599   3.667   7.587
30491WAT     H291716   8.594   3.521   7.515
30492WAT      O91717   3.019   6.557   3.217
30492WAT     H191718   2.980   6.466   3.207
30492WAT     H291719   3.117   6.554   3.196
30493WAT      O91720   9.383   3.860   2.851
30493WAT     H191721   9.384   3.763   2.827
30493WAT     H291722   9.330   3.911   2.784
30494WAT      O91723   3.083   4.108   1.005
30494WAT     H191724   3.125   4.133   0.918
30494WAT     H291725   3.116   4.170   1.076
30495WAT      O91726   2.304   9.001   7.481
30495WAT     H191727   2.208   8.984   7.464
30495WAT     H291728   2.341   9.060   7.409
30496WAT      O91729   6.837   1.727   2.584
30496WAT     H191730   6.762   1.751   2.646
30496WAT     H291731   6.835   1.787   2.504
30497WAT      O91732   0.894   1.125   2.691
30497WAT     H191733   0.801   1.111   2.658
30497WAT     H291734   0.893   1.128   2.791
30498WAT      O91735   5.341   2.100   8.747
30498WAT     H191736   5.260   2.096   8.688
30498WAT     H291737   5.422   2.122   8.693
30499WAT      O91738   9.730   0.026   1.655
30499WAT     H191739   9.699   0.078   1.735
30499WAT     H291740   9.738   0.088   1.577
30500WAT      O91741   1.575   7.480   1.071
30500WAT     H191742   1.479   7.500   1.049
30500WAT     H291743   1.590   7.494   1.169
30501WAT      O91744   0.566   2.254   9.121
30501WAT     H191745   0.644   2.308   9.090
30501WAT     H291746   0.511   2.307   9.185
30502WAT      O91747   4.398   5.720   7.497
30502WAT     H191748   4.338   5.773   7.557
30502WAT     H291749   4.484   5.768   7.484
30503WAT      O91750   7.574   5.501   6.009
30503WAT     H191751   7.640   5.526   5.938
30503WAT     H291752   7.498   5.452   5.968
30504WAT      O91753   5.690   6.748   0.048
30504WAT     H191754   5.637   6.791   0.121
30504WAT     H291755   5.785   6.778   0.052
30505WAT      O91756   0.078   5.453   6.832
30505WAT     H191757   0.113   5.542   6.802
30505WAT     H291758   0.079   5.448   6.932
30506WAT      O91759   7.265   8.159   2.210
30506WAT     H191760   7.254   8.132   2.306
30506WAT     H291761   7.362   8.176   2.192
30507WAT      O91762   7.598   9.119   3.497
30507WAT     H191763   7.631   9.029   3.524
30507WAT     H291764   7.561   9.166   3.578
30508WAT      O91765   4.352   4.801   7.402
30508WAT     H191766   4.275   4.739   7.388
30508WAT     H291767   4.430   4.771   7.347
30509WAT      O91768   0.911   4.704   1.308
30509WAT     H191769   0.916   4.612   1.346
30509WAT     H291770   0.873   4.700   1.216
30510WAT      O91771   0.011   0.354   1.842
30510WAT     H191772   0.048   0.447   1.848
30510WAT     H291773  -0.087   0.358   1.824
30511WAT      O91774   9.438   8.760   0.615
30511WAT     H191775   9.427   8.734   0.519
30511WAT     H291776   9.460   8.858   0.620
30512WAT      O91777   1.773   3.651   6.126
30512WAT     H191778   1.785   3.735   6.180
30512WAT     H291779   1.687   3.657   6.075
30513WAT      O91780   0.581   7.218   0.711
30513WAT     H191781   0.562   7.169   0.796
30513WAT     H291782   0.638   7.162   0.652
30514WAT      O91783   5.189   5.420   1.658
30514WAT     H191784   5.210   5.475   1.577
30514WAT     H291785   5.246   5.338   1.658
30515WAT      O91786   2.157   2.077   0.314
30515WAT     H191787   2.144   2.057   0.412
30515WAT     H291788   2.068   2.073   0.268
30516WAT      O91789   6.215   5.855   6.402
30516WAT     H191790   6.281   5.797   6.355
30516WAT     H291791   6.127   5.808   6.407
30517WAT      O91792   8.381   4.561   9.740
30517WAT     H191793   8.459   4.530   9.685
30517WAT     H291794   8.307   4.494   9.732
30518WAT      O91795   5.626   1.053   4.815
30518WAT     H191796   5.643   0.958   4.789
30518WAT     H291797   5.680   1.114   4.756
30519WAT      O91798   5.527   7.575   3.935
30519WAT     H191799   5.456   7.507   3.952
30519WAT     H291800   5.609   7.529   3.900
30520WAT      O91801   9.540   4.353   3.915
30520WAT     H191802   9.621   4.294   3.920
30520WAT     H291803   9.567   4.444   3.886
30521WAT      O91804   3.374   5.521   8.462
30521WAT     H191805   3.396   5.619   8.464
30521WAT     H291806   3.289   5.505   8.512
30522WAT      O91807   9.507   1.095   1.551
30522WAT     H191808   9.528   1.183   1.593
30522WAT     H291809   9.425   1.103   1.495
30523WAT      O91810   4.947   5.090   4.927
30523WAT     H191811   4.953   5.182   4.888
30523WAT     H291812   4.886   5.091   5.006
30524WAT      O91813   5.341   2.793   6.697
30524WAT     H191814   5.251   2.837   6.695
30524WAT     H291815   5.344   2.727   6.772
30525WAT      O91816   2.100   7.437   6.321
30525WAT     H191817   2.005   7.404   6.325
30525WAT     H291818   2.116   7.480   6.232
30526WAT      O91819   1.638   4.956   7.633
30526WAT     H191820   1.635   4.926   7.537
30526WAT     H291821   1.624   5.055   7.638
30527WAT      O91822   4.660   0.272   9.171
30527WAT     H191823   4.746   0.304   9.133
30527WAT     H291824   4.589   0.275   9.101
30528WAT      O91825   1.836   4.683   3.446
30528WAT     H191826   1.905   4.618   3.415
30528WAT     H291827   1.868   4.776   3.430
30529WAT      O91828   5.569   5.189   8.459
30529WAT     H191829   5.570   5.153   8.366
30529WAT     H291830   5.520   5.125   8.519
30530WAT      O91831   3.735   0.448   4.135
30530WAT     H191832   3.705   0.534   4.176
30530WAT     H291833   3.775   0.466   4.045
30531WAT      O91834   5.323   3.776   6.395
30531WAT     H191835   5.418   3.746   6.392
30531WAT     H291836   5.264   3.698   6.413
30532WAT      O91837   4.649   8.117   2.568
30532WAT     H191838   4.688   8.184   2.630
30532WAT     H291839   4.571   8.072   2.611
30533WAT      O91840   3.420   2.097   3.869
30533WAT     H191841   3.437   2.191   3.899
30533WAT     H291842   3.410   2.038   3.949
30534WAT      O91843   4.575   7.260   2.709
30534WAT     H191844   4.530   7.195   2.771
30534WAT     H291845   4.655   7.216   2.668
30535WAT      O91846   0.078   2.977   1.868
30535WAT     H191847   0.010   2.916   1.827
30535WAT     H291848   0.034   3.038   1.934
30536WAT      O91849   7.214   5.338   0.016
30536WAT     H191850   7.164   5.328   0.102
30536WAT     H291851   7.184   5.420  -0.032
30537WAT      O91852   6.796   5.460   1.721
30537WAT     H191853   6.730   5.413   1.778
30537WAT     H291854   6.863   5.507   1.779
30538WAT      O91855   4.989   1.801   5.873
30538WAT     H191856   4.973   1.718   5.927
30538WAT     H291857   4.903   1.849   5.858
30539WAT      O91858   1.788   6.931   9.065
30539WAT     H191859   1.707   6.945   9.122
30539WAT     H291860   1.771   6.968   8.973
30540WAT      O91861   7.487   6.602   5.574
30540WAT     H191862   7.552   6.667   5.536
30540WAT     H291863   7.474   6.620   5.671
30541WAT      O91864   0.207   1.708   3.920
30541WAT     H191865   0.125   1.662   3.954
30541WAT     H291866   0.246   1.655   3.845
30542WAT      O91867   2.032   7.909   4.419
30542WAT     H191868   2.112   7.892   4.363
30542WAT     H291869   2.041   7.998   4.465
30543WAT      O91870   1.055   2.967   0.764
30543WAT     H191871   1.004   3.026   0.827
30543WAT     H291872   1.152   2.969   0.788
30544WAT      O91873   5.332   2.505   7.372
30544WAT     H191874   5.392   2.435   7.333
30544WAT     H291875   5.387   2.583   7.400
30545WAT      O91876   4.495   9.263   1.368
30545WAT     H191877   4.535   9.176   1.399
30545WAT     H291878   4.545   9.339   1.409
30546WAT      O91879   7.047   1.220   5.639
30546WAT     H191880   7.096   1.210   5.725
30546WAT     H291881   7.094   1.287   5.581
30547WAT      O91882   5.415   1.284   7.680
30547WAT     H191883   5.381   1.356   7.740
30547WAT     H291884   5.367   1.198   7.699
30548WAT      O91885   1.813   0.810   2.817
30548WAT     H191886   1.778   0.898   2.785
30548WAT     H291887   1.841   0.755   2.739
30549WAT      O91888   0.784   1.817   5.012
30549WAT     H191889   0.758   1.721   5.028
30549WAT     H291890   0.816   1.857   5.098
30550WAT      O91891   6.265   5.125   1.755
30550WAT     H191892   6.315   5.111   1.841
30550WAT     H291893   6.190   5.059   1.748
30551WAT      O91894   8.066   8.470   9.563
30551WAT     H191895   8.005   8.504   9.492
30551WAT     H291896   8.026   8.388   9.604
30552WAT      O91897   9.094   6.409   7.620
30552WAT     H191898   9.183   6.417   7.664
30552WAT     H291899   9.105   6.370   7.529
30553WAT      O91900   3.818   5.209   8.331
30553WAT     H191901   3.899   5.257   8.365
30553WAT     H291902   3.827   5.196   8.232
30554WAT      O91903   2.132   8.146   2.368
30554WAT     H191904   2.103   8.218   2.431
30554WAT     H291905   2.175   8.071   2.419
30555WAT      O91906   7.382   4.386   2.003
30555WAT     H191907   7.476   4.420   2.013
30555WAT     H291908   7.352   4.401   1.909
30556WAT      O91909   5.665   7.364   0.591
30556WAT     H191910   5.599   7.312   0.645
30556WAT     H291911   5.623   7.392   0.504
30557WAT      O91912   0.255   4.839   0.587
30557WAT     H191913   0.313   4.796   0.518
30557WAT     H291914   0.160   4.839   0.555
30558WAT      O91915   5.323   7.838   8.759
30558WAT     H191916   5.256   7.885   8.701
30558WAT     H291917   5.314   7.740   8.746
30559WAT      O91918   0.392   2.183   0.150
30559WAT     H191919   0.409   2.106   0.089
30559WAT     H291920   0.464   2.251   0.139
30560WAT      O91921   7.292   2.468   7.335
30560WAT     H191922   7.230   2.516   7.397
30560WAT     H291923   7.282   2.369   7.348
30561WAT      O91924   1.104   5.916   7.221
30561WAT     H191925   1.004   5.912   7.215
30561WAT     H291926   1.144   5.860   7.149
30562WAT      O91927   1.113   5.155   8.662
30562WAT     H191928   1.108   5.098   8.580
30562WAT     H291929   1.061   5.112   8.736
30563WAT      O91930   1.223   8.347   8.026
30563WAT     H191931   1.180   8.297   8.102
30563WAT     H291932   1.169   8.335   7.943
30564WAT      O91933   8.275   4.693   3.896
30564WAT     H191934   8.373   4.675   3.904
30564WAT     H291935   8.250   4.699   3.799
30565WAT      O91936   9.320   9.175   1.032
30565WAT     H191937   9.288   9.083   1.054
30565WAT     H291938   9.316   9.232   1.114
30566WAT      O91939   0.610   4.965   4.856
30566WAT     H191940   0.542   5.038   4.856
30566WAT     H291941   0.701   5.004   4.847
30567WAT      O91942   2.910   1.611   3.770
30567WAT     H191943   2.978   1.589   3.699
30567WAT     H291944   2.873   1.702   3.753
30568WAT      O91945   6.723   6.391   2.554
30568WAT     H191946   6.803   6.426   2.504
30568WAT     H291947   6.726   6.291   2.555
30569WAT      O91948   6.900   7.636   6.300
30569WAT     H191949   6.928   7.703   6.231
30569WAT     H291950   6.834   7.678   6.362
30570WAT      O91951   8.639   7.987   3.656
30570WAT     H191952   8.672   7.933   3.734
30570WAT     H291953   8.653   8.084   3.675
30571WAT      O91954   6.919   9.678   9.521
30571WAT     H191955   7.014   9.650   9.538
30571WAT     H291956   6.917   9.748   9.450
30572WAT      O91957   6.247   5.943   1.608
30572WAT     H191958   6.194   5.913   1.528
30572WAT     H291959   6.338   5.901   1.604
30573WAT      O91960   1.711   1.287   6.449
30573WAT     H191961   1.631   1.270   6.392
30573WAT     H291962   1.750   1.200   6.478
30574WAT      O91963   9.176   6.139   4.021
30574WAT     H191964   9.205   6.085   3.942
30574WAT     H291965   9.113   6.086   4.077
30575WAT      O91966   5.542   3.510   8.469
30575WAT     H191967   5.507   3.570   8.541
30575WAT     H291968   5.494   3.530   8.383
30576WAT      O91969   2.542   1.268   0.315
30576WAT     H191970   2.624   1.287   0.260
30576WAT     H291971   2.495   1.188   0.277
30577WAT      O91972   6.054   3.778   3.721
30577WAT     H191973   5.994   3.751   3.797
30577WAT     H291974   6.144   3.802   3.756
30578WAT      O91975   9.253   3.052   9.441
30578WAT     H191976   9.218   2.966   9.403
30578WAT     H291977   9.322   3.090   9.380
30579WAT      O91978   9.437   1.529   9.247
30579WAT     H191979   9.339   1.522   9.260
30579WAT     H291980   9.457   1.548   9.151
30580WAT      O91981   0.441   3.445   1.428
30580WAT     H191982   0.420   3.383   1.504
30580WAT     H291983   0.406   3.537   1.449
30581WAT      O91984   6.528   2.699   0.796
30581WAT     H191985   6.479   2.761   0.858
30581WAT     H291986   6.607   2.660   0.843
30582WAT      O91987   6.773   8.212   1.254
30582WAT     H191988   6.725   8.241   1.337
30582WAT     H291989   6.862   8.257   1.250
30583WAT      O91990   6.684   3.798   6.058
30583WAT     H191991   6.773   3.774   6.098
30583WAT     H291992   6.680   3.897   6.044
30584WAT      O91993   9.656   1.595   5.879
30584WAT     H191994   9.727   1.666   5.883
30584WAT     H291995   9.577   1.624   5.933
30585WAT      O91996   3.863   0.856   0.921
30585WAT     H191997   3.772   0.897   0.923
30585WAT     H291998   3.918   0.901   0.850
30586WAT      O91999   2.666   3.102   2.338
30586WAT     H192000   2.681   3.161   2.259
30586WAT     H292001   2.589   3.040   2.321
30587WAT      O92002   0.721   8.067   5.701
30587WAT     H192003   0.752   7.993   5.761
30587WAT     H292004   0.629   8.045   5.667
30588WAT      O92005   5.685   7.777   7.799
30588WAT     H192006   5.769   7.733   7.832
30588WAT     H292007   5.708   7.848   7.733
30589WAT      O92008   5.720   1.886   5.981
30589WAT     H192009   5.798   1.843   5.935
30589WAT     H292010   5.665   1.815   6.025
30590WAT      O92011   0.776   0.546   9.433
30590WAT     H192012   0.796   0.562   9.336
30590WAT     H292013   0.843   0.595   9.489
30591WAT      O92014   8.549   6.670   4.484
30591WAT     H192015   8.455   6.661   4.516
30591WAT     H292016   8.597   6.738   4.541
30592WAT      O92017   3.134   3.806   9.211
30592WAT     H192018   3.094   3.716   9.192
30592WAT     H292019   3.120   3.866   9.133
30593WAT      O92020   7.887   5.108   4.675
30593WAT     H192021   7.849   5.072   4.590
30593WAT     H292022   7.987   5.099   4.674
30594WAT      O92023   7.467   2.892   5.112
30594WAT     H192024   7.412   2.965   5.150
30594WAT     H292025   7.481   2.820   5.180
30595WAT      O92026   1.374   2.234   3.610
30595WAT     H192027   1.420   2.169   3.549
30595WAT     H292028   1.336   2.309   3.556
30596WAT      O92029   1.014   1.418   3.762
30596WAT     H192030   0.917   1.427   3.741
30596WAT     H292031   1.028   1.342   3.825
30597WAT      O92032   8.977   4.395   2.457
30597WAT     H192033   9.056   4.359   2.508
30597WAT     H292034   8.998   4.393   2.360
30598WAT      O92035   7.603   1.347   2.381
30598WAT     H192036   7.625   1.312   2.290
30598WAT     H292037   7.531   1.292   2.422
30599WAT      O92038   6.862   9.762   3.046
30599WAT     H192039   6.916   9.799   3.122
30599WAT     H292040   6.918   9.764   2.963
30600WAT      O92041   8.332   1.352   8.420
30600WAT     H192042   8.248   1.404   8.410
30600WAT     H292043   8.402   1.388   8.358
30601WAT      O92044   6.269   8.562   1.761
30601WAT     H192045   6.333   8.578   1.837
30601WAT     H292046   6.178   8.596   1.786
30602WAT      O92047   0.964   7.814   5.714
30602WAT     H192048   0.968   7.818   5.614
30602WAT     H292049   0.903   7.739   5.742
30603WAT      O92050   9.631   0.638   3.111
30603WAT     H192051   9.581   0.659   3.195
30603WAT     H292052   9.592   0.556   3.068
30604WAT      O92053   6.554   1.374   2.946
30604WAT     H192054   6.546   1.304   3.017
30604WAT     H292055   6.573   1.331   2.858
30605WAT      O92056   9.782   0.408   6.839
30605WAT     H192057   9.849   0.371   6.903
30605WAT     H292058   9.696   0.428   6.887
30606WAT      O92059   3.725   5.844   3.986
30606WAT     H192060   3.644   5.888   3.947
30606WAT     H292061   3.787   5.818   3.912
30607WAT      O92062   8.408   8.508   3.433
30607WAT     H192063   8.470   8.472   3.363
30607WAT     H292064   8.462   8.539   3.512
30608WAT      O92065   7.802   2.299   1.169
30608WAT     H192066   7.710   2.327   1.195
30608WAT     H292067   7.868   2.333   1.237
30609WAT      O92068   7.757   3.515   3.798
30609WAT     H192069   7.754   3.512   3.898
30609WAT     H292070   7.674   3.475   3.761
30610WAT      O92071   4.130   8.656   8.261
30610WAT     H192072   4.139   8.742   8.211
30610WAT     H292073   4.210   8.642   8.320
30611WAT      O92074   1.161   3.746   5.352
30611WAT     H192075   1.257   3.773   5.351
30611WAT     H292076   1.113   3.788   5.275
30612WAT      O92077   7.380   7.027   8.765
30612WAT     H192078   7.320   7.057   8.692
30612WAT     H292079   7.366   7.084   8.846
30613WAT      O92080   4.038   0.486   1.119
30613WAT     H192081   4.083   0.456   1.203
30613WAT     H292082   4.093   0.556   1.074
30614WAT      O92083   1.537   8.042   0.281
30614WAT     H192084   1.562   8.135   0.255
30614WAT     H292085   1.439   8.029   0.267
30615WAT      O92086   4.753   9.252   3.796
30615WAT     H192087   4.704   9.275   3.880
30615WAT     H292088   4.687   9.233   3.723
30616WAT      O92089   2.564   5.586   5.465
30616WAT     H192090   2.659   5.564   5.440
30616WAT     H292091   2.502   5.544   5.399
30617WAT      O92092   8.688   9.339   8.419
30617WAT     H192093   8.761   9.351   8.486
30617WAT     H292094   8.610   9.293   8.462
30618WAT      O92095   0.876   2.072   3.224
30618WAT     H192096   0.958   2.114   3.263
30618WAT     H292097   0.860   1.984   3.268
30619WAT      O92098   0.761   6.628   5.520
30619WAT     H192099   0.795   6.549   5.468
30619WAT     H292100   0.661   6.625   5.524
30620WAT      O92101   5.866   9.311   9.324
30620WAT     H192102   5.870   9.353   9.234
30620WAT     H292103   5.958   9.310   9.365
30621WAT      O92104   5.713   5.194   6.916
30621WAT     H192105   5.682   5.284   6.886
30621WAT     H292106   5.750   5.201   7.008
30622WAT      O92107   9.460   4.776   2.486
30622WAT     H192108   9.484   4.861   2.532
30622WAT     H292109   9.543   4.734   2.449
30623WAT      O92110   3.684   5.322   1.927
30623WAT     H192111   3.753   5.311   1.998
30623WAT     H292112   3.670   5.419   1.909
30624WAT      O92113   9.116   3.788   5.753
30624WAT     H192114   9.185   3.717   5.743
30624WAT     H292115   9.030   3.748   5.783
30625WAT      O92116   6.308   0.974   6.634
30625WAT     H192117   6.280   1.068   6.652
30625WAT     H292118   6.381   0.973   6.565
30626WAT      O92119   4.910   2.346   2.033
30626WAT     H192120   4.825   2.297   2.013
30626WAT     H292121   4.930   2.339   2.131
30627WAT      O92122   0.340   0.644   0.808
30627WAT     H192123   0.389   0.729   0.828
30627WAT     H292124   0.351   0.580   0.884
30628WAT      O92125   7.942   7.763   5.896
30628WAT     H192126   7.860   7.760   5.952
30628WAT     H292127   7.949   7.853   5.852
30629WAT      O92128   3.760   5.663   2.523
30629WAT     H192129   3.741   5.671   2.425
30629WAT     H292130   3.694   5.717   2.575
30630WAT      O92131   1.444   2.750   2.592
30630WAT     H192132   1.476   2.746   2.497
30630WAT     H292133   1.346   2.731   2.594
30631WAT      O92134   2.727   2.051   7.277
30631WAT     H192135   2.824   2.034   7.262
30631WAT     H292136   2.691   2.110   7.204
30632WAT      O92137   2.504   4.862   3.528
30632WAT     H192138   2.575   4.901   3.470
30632WAT     H292139   2.418   4.859   3.477
30633WAT      O92140   0.304   4.617   8.736
30633WAT     H192141   0.283   4.601   8.832
30633WAT     H292142   0.403   4.614   8.723
30634WAT      O92143   5.087   8.847   4.180
30634WAT     H192144   5.049   8.937   4.204
30634WAT     H292145   5.118   8.801   4.264
30635WAT      O92146   4.466   5.087   7.874
30635WAT     H192147   4.444   5.013   7.810
30635WAT     H292148   4.398   5.159   7.866
30636WAT      O92149   2.977   3.767   2.098
30636WAT     H192150   3.054   3.746   2.158
30636WAT     H292151   2.923   3.684   2.084
30637WAT      O92152   4.131   2.378   6.797
30637WAT     H192153   4.220   2.363   6.754
30637WAT     H292154   4.103   2.473   6.783
30638WAT      O92155   8.794   5.916   7.582
30638WAT     H192156   8.852   5.922   7.663
30638WAT     H292157   8.712   5.970   7.595
30639WAT      O92158   3.978   7.336   6.797
30639WAT     H192159   4.064   7.346   6.748
30639WAT     H292160   3.919   7.271   6.748
30640WAT      O92161   3.104   2.093   0.157
30640WAT     H192162   3.070   2.154   0.229
30640WAT     H292163   3.107   1.999   0.192
30641WAT      O92164   0.631   8.227   8.020
30641WAT     H192165   0.596   8.143   7.979
30641WAT     H292166   0.713   8.258   7.970
30642WAT      O92167   1.711   0.630   3.023
30642WAT     H192168   1.748   0.710   2.976
30642WAT     H292169   1.781   0.590   3.081
30643WAT      O92170   2.497   0.027   2.355
30643WAT     H192171   2.570   0.095   2.356
30643WAT     H292172   2.445   0.033   2.440
30644WAT      O92173   7.809   1.896   4.575
30644WAT     H192174   7.902   1.896   4.611
30644WAT     H292175   7.799   1.968   4.507
30645WAT      O92176   2.531   6.062   3.874
30645WAT     H192177   2.625   6.066   3.908
30645WAT     H292178   2.476   6.132   3.921
30646WAT      O92179   8.797   5.989   0.478
30646WAT     H192180   8.745   5.916   0.434
30646WAT     H292181   8.749   6.076   0.465
30647WAT      O92182   2.494   2.597   0.063
30647WAT     H192183   2.569   2.532   0.046
30647WAT     H292184   2.445   2.614  -0.022
30648WAT      O92185   6.546   2.960   8.397
30648WAT     H192186   6.583   2.887   8.455
30648WAT     H292187   6.451   2.939   8.374
30649WAT      O92188   8.813   1.929   9.177
30649WAT     H192189   8.830   1.916   9.079
30649WAT     H292190   8.900   1.928   9.227
30650WAT      O92191   5.371   6.398   7.424
30650WAT     H192192   5.462   6.435   7.406
30650WAT     H292193   5.357   6.390   7.522
30651WAT      O92194   3.857   7.960   9.409
30651WAT     H192195   3.827   7.944   9.315
30651WAT     H292196   3.810   8.039   9.446
30652WAT      O92197   6.692   7.306   6.952
30652WAT     H192198   6.739   7.394   6.965
30652WAT     H292199   6.614   7.320   6.891
30653WAT      O92200   7.010   1.163   4.278
30653WAT     H192201   7.029   1.251   4.323
30653WAT     H292202   7.032   1.169   4.181
30654WAT      O92203   4.121   2.204   7.009
30654WAT     H192204   4.050   2.243   7.068
30654WAT     H292205   4.146   2.270   6.938
30655WAT      O92206   6.503   4.447   5.830
30655WAT     H192207   6.590   4.451   5.878
30655WAT     H292208   6.516   4.469   5.734
30656WAT      O92209   3.904   6.026   1.232
30656WAT     H192210   3.978   6.088   1.205
30656WAT     H292211   3.936   5.967   1.307
30657WAT      O92212   7.421   1.993   8.895
30657WAT     H192213   7.339   1.940   8.874
30657WAT     H292214   7.441   2.055   8.820
30658WAT      O92215   9.075   4.791   8.674
30658WAT     H192216   9.059   4.887   8.697
30658WAT     H292217   9.133   4.786   8.592
30659WAT      O92218   8.653   9.141   0.434
30659WAT     H192219   8.733   9.086   0.406
30659WAT     H292220   8.588   9.083   0.482
30660WAT      O92221   2.963   8.254   0.294
30660WAT     H192222   3.043   8.313   0.306
30660WAT     H292223   2.979   8.166   0.339
30661WAT      O92224   6.416   5.768   2.244
30661WAT     H192225   6.396   5.865   2.263
30661WAT     H292226   6.506   5.760   2.202
30662WAT      O92227   9.511   5.548   1.964
30662WAT     H192228   9.474   5.612   2.031
30662WAT     H292229   9.610   5.562   1.957
30663WAT      O92230   1.277   7.383   1.999
30663WAT     H192231   1.186   7.421   1.982
30663WAT     H292232   1.297   7.386   2.097
30664WAT      O92233   9.398   5.361   7.726
30664WAT     H192234   9.363   5.450   7.696
30664WAT     H292235   9.392   5.296   7.651
30665WAT      O92236   5.707   9.481   3.544
30665WAT     H192237   5.637   9.480   3.472
30665WAT     H292238   5.792   9.520   3.507
30666WAT      O92239   5.635   8.553   3.080
30666WAT     H192240   5.683   8.506   3.154
30666WAT     H292241   5.542   8.574   3.109
30667WAT      O92242   9.297   7.925   4.607
30667WAT     H192243   9.380   7.945   4.659
30667WAT     H292244   9.237   7.867   4.662
30668WAT      O92245   8.547   5.495   2.787
30668WAT     H192246   8.516   5.427   2.720
30668WAT     H292247   8.644   5.514   2.772
30669WAT      O92248   5.107   8.620   8.624
30669WAT     H192249   5.054   8.701   8.601
30669WAT     H292250   5.061   8.539   8.588
30670WAT      O92251   4.021   4.974   7.482
30670WAT     H192252   3.954   5.004   7.414
30670WAT     H292253   4.077   5.052   7.509
30671WAT      O92254   9.745   0.160   2.953
30671WAT     H192255   9.765   0.249   2.993
30671WAT     H292256   9.696   0.103   3.019
30672WAT      O92257   0.561   5.486   5.397
30672WAT     H192258   0.504   5.466   5.477
30672WAT     H292259   0.594   5.580   5.403
30673WAT      O92260   4.162   0.217   8.956
30673WAT     H192261   4.212   0.275   9.021
30673WAT     H292262   4.085   0.268   8.919
30674WAT      O92263   1.659   2.005   6.138
30674WAT     H192264   1.720   2.069   6.185
30674WAT     H292265   1.711   1.958   6.066
30675WAT      O92266   6.973   6.171   1.705
30675WAT     H192267   6.909   6.096   1.686
30675WAT     H292268   6.922   6.250   1.738
30676WAT      O92269   6.092   2.347   2.964
30676WAT     H192270   6.033   2.278   2.923
30676WAT     H292271   6.085   2.343   3.063
30677WAT      O92272   5.514   9.395   4.998
30677WAT     H192273   5.520   9.492   5.022
30677WAT     H292274   5.570   9.341   5.061
30678WAT      O92275   3.171   1.075   2.896
30678WAT     H192276   3.147   1.172   2.888
30678WAT     H292277   3.150   1.043   2.989
30679WAT      O92278   1.196   3.423   3.010
30679WAT     H192279   1.163   3.329   3.016
30679WAT     H292280   1.257   3.432   2.932
30680WAT      O92281   0.969   0.767   7.188
30680WAT     H192282   0.988   0.758   7.091
30680WAT     H292283   1.050   0.742   7.241
30681WAT      O92284   0.192   9.297   1.400
30681WAT     H192285   0.286   9.330   1.387
30681WAT     H292286   0.171   9.226   1.332
30682WAT      O92287   8.972   9.785   1.702
30682WAT     H192288   8.975   9.783   1.602
30682WAT     H292289   9.058   9.824   1.737
30683WAT      O92290   2.189   2.840   1.749
30683WAT     H192291   2.159   2.751   1.712
30683WAT     H292292   2.225   2.897   1.675
30684WAT      O92293   5.467   8.784   0.724
30684WAT     H192294   5.444   8.845   0.648
30684WAT     H292295   5.505   8.699   0.689
30685WAT      O92296   0.650   4.641   1.477
30685WAT     H192297   0.735   4.691   1.495
30685WAT     H292298   0.573   4.705   1.477
30686WAT      O92299   5.272   2.831   0.854
30686WAT     H192300   5.250   2.733   0.854
30686WAT     H292301   5.232   2.874   0.774
30687WAT      O92302   6.383   0.717   1.455
30687WAT     H192303   6.467   0.771   1.457
30687WAT     H292304   6.307   0.775   1.425
30688WAT      O92305   4.268   1.115   2.622
30688WAT     H192306   4.360   1.082   2.647
30688WAT     H292307   4.260   1.119   2.523
30689WAT      O92308   8.335   5.009   4.226
30689WAT     H192309   8.264   5.046   4.286
30689WAT     H292310   8.362   4.918   4.258
30690WAT      O92311   3.914   7.408   2.847
30690WAT     H192312   3.878   7.460   2.770
30690WAT     H292313   3.878   7.315   2.845
30691WAT      O92314   7.553   8.077   0.249
30691WAT     H192315   7.563   8.015   0.326
30691WAT     H292316   7.572   8.171   0.279
30692WAT      O92317   3.597   4.662   5.086
30692WAT     H192318   3.604   4.729   5.012
30692WAT     H292319   3.688   4.641   5.121
30693WAT      O92320   3.570   5.312   0.756
30693WAT     H192321   3.572   5.257   0.839
30693WAT     H292322   3.644   5.378   0.757
30694WAT      O92323   0.901   2.583   1.251
30694WAT     H192324   0.854   2.568   1.163
30694WAT     H292325   0.842   2.552   1.325
30695WAT      O92326   2.112   9.811   1.634
30695WAT     H192327   2.060   9.859   1.704
30695WAT     H292328   2.196   9.775   1.673
30696WAT      O92329   0.044   5.928   2.925
30696WAT     H192330   0.140   5.923   2.950
30696WAT     H292331  -0.003   5.845   2.955
30697WAT      O92332   9.387   5.857   7.052
30697WAT     H192333   9.418   5.880   7.144
30697WAT     H292334   9.412   5.763   7.030
30698WAT      O92335   6.438   5.776   3.313
30698WAT     H192336   6.518   5.835   3.302
30698WAT     H292337   6.383   5.808   3.390
30699WAT      O92338   8.258   9.001   5.624
30699WAT     H192339   8.335   8.939   5.632
30699WAT     H292340   8.188   8.977   5.692
30700WAT      O92341   7.408   7.123   6.322
30700WAT     H192342   7.417   7.089   6.415
30700WAT     H292343   7.455   7.061   6.259
30701WAT      O92344   7.422   9.830   2.379
30701WAT     H192345   7.482   9.778   2.319
30701WAT     H292346   7.429   9.794   2.472
30702WAT      O92347   4.925   3.989   2.681
30702WAT     H192348   4.923   4.011   2.779
30702WAT     H292349   4.993   4.047   2.636
30703WAT      O92350   9.817   6.600   9.735
30703WAT     H192351   9.904   6.640   9.703
30703WAT     H292352   9.834   6.541   9.814
30704WAT      O92353   1.920   8.155   4.643
30704WAT     H192354   1.948   8.079   4.701
30704WAT     H292355   1.825   8.179   4.661
30705WAT      O92356   2.770   4.120   2.475
30705WAT     H192357   2.688   4.063   2.477
30705WAT     H292358   2.816   4.109   2.386
30706WAT      O92359   4.046   0.631   4.539
30706WAT     H192360   3.987   0.616   4.459
30706WAT     H292361   4.141   0.615   4.514
30707WAT      O92362   6.439   5.307   4.108
30707WAT     H192363   6.356   5.288   4.056
30707WAT     H292364   6.476   5.396   4.080
30708WAT      O92365   7.500   4.661   7.875
30708WAT     H192366   7.591   4.646   7.835
30708WAT     H292367   7.493   4.756   7.906
30709WAT      O92368   8.088   9.358   7.504
30709WAT     H192369   8.149   9.422   7.550
30709WAT     H292370   8.139   9.275   7.479
30710WAT      O92371   5.779   9.252   2.962
30710WAT     H192372   5.731   9.269   2.876
30710WAT     H292373   5.718   9.274   3.039
30711WAT      O92374   6.251   6.716   4.563
30711WAT     H192375   6.330   6.662   4.533
30711WAT     H292376   6.259   6.736   4.660
30712WAT      O92377   4.490   7.195   4.400
30712WAT     H192378   4.517   7.189   4.304
30712WAT     H292379   4.484   7.291   4.427
30713WAT      O92380   1.073   4.144   0.656
30713WAT     H192381   1.103   4.213   0.589
30713WAT     H292382   1.139   4.069   0.658
30714WAT      O92383   1.500   8.411   8.296
30714WAT     H192384   1.481   8.481   8.365
30714WAT     H292385   1.592   8.376   8.310
30715WAT      O92386   1.270   2.727   7.769
30715WAT     H192387   1.233   2.805   7.720
30715WAT     H292388   1.288   2.754   7.864
30716WAT      O92389   2.128   3.570   6.688
30716WAT     H192390   2.223   3.596   6.678
30716WAT     H292391   2.081   3.578   6.600
30717WAT      O92392   0.010   4.807   7.985
30717WAT     H192393   0.072   4.875   8.023
30717WAT     H292394  -0.085   4.838   7.997
30718WAT      O92395   5.213   4.754   6.148
30718WAT     H192396   5.270   4.762   6.066
30718WAT     H292397   5.232   4.830   6.209
30719WAT      O92398   7.335   8.561   7.135
30719WAT     H192399   7.296   8.499   7.204
30719WAT     H292400   7.289   8.650   7.141
30720WAT      O92401   8.949   3.556   0.838
30720WAT     H192402   8.952   3.481   0.772
30720WAT     H292403   9.023   3.620   0.820
30721WAT      O92404   2.287   7.936   1.965
30721WAT     H192405   2.250   7.896   2.049
30721WAT     H292406   2.240   8.023   1.946
30722WAT      O92407   9.055   7.203   6.817
30722WAT     H192408   8.985   7.213   6.888
30722WAT     H292409   9.134   7.155   6.855
30723WAT      O92410   6.289   4.931   2.509
30723WAT     H192411   6.249   4.857   2.562
30723WAT     H292412   6.366   4.971   2.559
30724WAT      O92413   1.163   1.322   6.688
30724WAT     H192414   1.175   1.420   6.669
30724WAT     H292415   1.215   1.297   6.769
30725WAT      O92416   3.975   1.265   0.755
30725WAT     H192417   3.882   1.263   0.790
30725WAT     H292418   4.025   1.341   0.797
30726WAT      O92419   4.661   5.978   6.980
30726WAT     H192420   4.721   6.058   6.972
30726WAT     H292421   4.686   5.912   6.909
30727WAT      O92422   2.122   1.919   8.362
30727WAT     H192423   2.068   1.944   8.282
30727WAT     H292424   2.085   1.834   8.401
30728WAT      O92425   6.311   6.203   3.354
30728WAT     H192426   6.239   6.135   3.339
30728WAT     H292427   6.299   6.279   3.291
30729WAT      O92428   6.390   1.730   8.722
30729WAT     H192429   6.437   1.816   8.740
30729WAT     H292430   6.393   1.672   8.804
30730WAT      O92431   0.339   4.455   1.658
30730WAT     H192432   0.340   4.440   1.560
30730WAT     H292433   0.336   4.553   1.677
30731WAT      O92434   0.048   6.144   5.892
30731WAT     H192435   0.094   6.157   5.804
30731WAT     H292436  -0.051   6.143   5.877
30732WAT      O92437   0.171   5.529   0.363
30732WAT     H192438   0.102   5.597   0.338
30732WAT     H292439   0.201   5.545   0.457
30733WAT      O92440   7.455   3.370   4.490
30733WAT     H192441   7.535   3.381   4.431
30733WAT     H292442   7.379   3.422   4.453
30734WAT      O92443   8.767   9.206   8.165
30734WAT     H192444   8.810   9.117   8.154
30734WAT     H292445   8.755   9.226   8.262
30735WAT      O92446   8.310   0.415   4.816
30735WAT     H192447   8.285   0.346   4.884
30735WAT     H292448   8.351   0.494   4.862
30736WAT      O92449   8.478   6.579   3.890
30736WAT     H192450   8.533   6.661   3.905
30736WAT     H292451   8.396   6.603   3.837
30737WAT      O92452   6.518   3.737   8.736
30737WAT     H192453   6.477   3.795   8.807
30737WAT     H292454   6.617   3.747   8.738
30738WAT      O92455   5.387   4.201   0.180
30738WAT     H192456   5.439   4.272   0.132
30738WAT     H292457   5.448   4.146   0.236
30739WAT      O92458   7.390   0.530   9.381
30739WAT     H192459   7.388   0.627   9.403
30739WAT     H292460   7.484   0.496   9.386
30740WAT      O92461   8.130   2.232   4.103
30740WAT     H192462   8.216   2.186   4.126
30740WAT     H292463   8.145   2.331   4.101
30741WAT      O92464   7.226   1.169   2.228
30741WAT     H192465   7.196   1.239   2.294
30741WAT     H292466   7.286   1.104   2.274
30742WAT      O92467   6.409   3.191   7.907
30742WAT     H192468   6.463   3.172   7.989
30742WAT     H292469   6.471   3.202   7.829
30743WAT      O92470   8.776   6.527   5.419
30743WAT     H192471   8.871   6.549   5.396
30743WAT     H292472   8.717   6.604   5.397
30744WAT      O92473   8.880   0.946   6.448
30744WAT     H192474   8.801   0.886   6.434
30744WAT     H292475   8.955   0.916   6.389
30745WAT      O92476   3.857   2.563   0.716
30745WAT     H192477   3.855   2.663   0.711
30745WAT     H292478   3.950   2.530   0.699
30746WAT      O92479   2.940   3.867   8.205
30746WAT     H192480   2.848   3.847   8.170
30746WAT     H292481   2.932   3.927   8.285
30747WAT      O92482   5.387   0.011   3.769
30747WAT     H192483   5.325   0.034   3.844
30747WAT     H292484   5.465  -0.039   3.805
30748WAT      O92485   3.649   7.720   0.277
30748WAT     H192486   3.736   7.769   0.287
30748WAT     H292487   3.590   7.743   0.354
30749WAT      O92488   3.949   8.523   7.804
30749WAT     H192489   3.934   8.430   7.837
30749WAT     H292490   4.044   8.549   7.820
30750WAT      O92491   9.274   1.280   3.777
30750WAT     H192492   9.347   1.222   3.740
30750WAT     H292493   9.252   1.250   3.870
30751WAT      O92494   3.741   4.274   6.556
30751WAT     H192495   3.743   4.258   6.655
30751WAT     H292496   3.821   4.329   6.530
30752WAT      O92497   0.329   2.120   6.818
30752WAT     H192498   0.266   2.097   6.892
30752WAT     H292499   0.280   2.117   6.731
30753WAT      O92500   9.167   0.642   0.943
30753WAT     H192501   9.101   0.591   0.889
30753WAT     H292502   9.186   0.594   1.028
30754WAT      O92503   8.941   2.672   5.822
30754WAT     H192504   8.857   2.722   5.845
30754WAT     H292505   8.919   2.588   5.774
30755WAT      O92506   6.960   2.503   1.164
30755WAT     H192507   7.051   2.491   1.203
30755WAT     H292508   6.960   2.475   1.068
30756WAT      O92509   8.348   6.144   4.118
30756WAT     H192510   8.308   6.063   4.075
30756WAT     H292511   8.333   6.139   4.217
30757WAT      O92512   8.298   4.466   0.604
30757WAT     H192513   8.381   4.502   0.562
30757WAT     H292514   8.219   4.484   0.545
30758WAT      O92515   1.220   5.998   4.650
30758WAT     H192516   1.290   6.046   4.596
30758WAT     H292517   1.214   5.903   4.619
30759WAT      O92518   4.316   4.290   5.636
30759WAT     H192519   4.401   4.313   5.589
30759WAT     H292520   4.269   4.375   5.662
30760WAT      O92521   9.230   5.682   3.172
30760WAT     H192522   9.250   5.758   3.110
30760WAT     H292523   9.177   5.715   3.250
30761WAT      O92524   2.623   4.912   5.763
30761WAT     H192525   2.599   4.820   5.731
30761WAT     H292526   2.702   4.906   5.824
30762WAT      O92527   4.166   9.597   8.375
30762WAT     H192528   4.070   9.614   8.396
30762WAT     H292529   4.214   9.569   8.459
30763WAT      O92530   5.661   6.739   1.536
30763WAT     H192531   5.634   6.651   1.497
30763WAT     H292532   5.614   6.813   1.487
30764WAT      O92533   1.180   9.447   0.184
30764WAT     H192534   1.150   9.515   0.117
30764WAT     H292535   1.280   9.437   0.180
30765WAT      O92536   1.885   9.008   7.697
30765WAT     H192537   1.822   9.015   7.620
30765WAT     H292538   1.919   9.099   7.721
30766WAT      O92539   0.300   1.828   3.225
30766WAT     H192540   0.356   1.746   3.209
30766WAT     H292541   0.205   1.808   3.200
30767WAT      O92542   3.306   3.905   3.303
30767WAT     H192543   3.368   3.952   3.240
30767WAT     H292544   3.292   3.962   3.384
30768WAT      O92545   2.320   8.654   4.245
30768WAT     H192546   2.313   8.559   4.276
30768WAT     H292547   2.416   8.681   4.243
30769WAT      O92548   1.838   6.364   3.606
30769WAT     H192549   1.922   6.418   3.614
30769WAT     H292550   1.861   6.267   3.603
30770WAT      O92551   4.469   6.063   9.869
30770WAT     H192552   4.498   5.968   9.856
30770WAT     H292553   4.542   6.113   9.916
30771WAT      O92554   1.070   2.447   5.246
30771WAT     H192555   0.976   2.463   5.217
30771WAT     H292556   1.125   2.419   5.168
30772WAT      O92557   3.393   9.745   3.751
30772WAT     H192558   3.300   9.781   3.743
30772WAT     H292559   3.421   9.705   3.663
30773WAT      O92560   7.268   6.277   9.290
30773WAT     H192561   7.306   6.189   9.317
30773WAT     H292562   7.339   6.347   9.294
30774WAT      O92563   3.674   4.002   0.050
30774WAT     H192564   3.617   3.921   0.054
30774WAT     H292565   3.646   4.059  -0.028
30775WAT      O92566   8.334   2.945   0.403
30775WAT     H192567   8.283   2.949   0.317
30775WAT     H292568   8.318   3.029   0.455
30776WAT      O92569   5.285   3.433   7.360
30776WAT     H192570   5.226   3.354   7.343
30776WAT     H292571   5.230   3.516   7.365
30777WAT      O92572   9.099   8.505   5.431
30777WAT     H192573   9.037   8.499   5.510
30777WAT     H292574   9.049   8.543   5.353
30778WAT      O92575   6.058   3.530   9.113
30778WAT     H192576   6.133   3.507   9.052
30778WAT     H292577   5.971   3.511   9.068
30779WAT      O92578   3.988   1.165   8.528
30779WAT     H192579   4.036   1.089   8.484
30779WAT     H292580   3.911   1.129   8.581
30780WAT      O92581   3.177   8.736   2.362
30780WAT     H192582   3.212   8.646   2.335
30780WAT     H292583   3.129   8.728   2.449
30781WAT      O92584   1.416   0.224   8.024
30781WAT     H192585   1.349   0.217   8.098
30781WAT     H292586   1.385   0.292   7.958
30782WAT      O92587   6.968   3.900   9.738
30782WAT     H192588   7.065   3.877   9.750
30782WAT     H292589   6.940   3.877   9.645
30783WAT      O92590   9.575   8.711   1.251
30783WAT     H192591   9.561   8.735   1.155
30783WAT     H292592   9.624   8.624   1.256
30784WAT      O92593   8.220   9.720   7.725
30784WAT     H192594   8.260   9.713   7.816
30784WAT     H292595   8.281   9.772   7.665
30785WAT      O92596   0.948   3.573   5.415
30785WAT     H192597   1.029   3.630   5.402
30785WAT     H292598   0.903   3.558   5.327
30786WAT      O92599   5.495   1.632   8.299
30786WAT     H192600   5.400   1.605   8.317
30786WAT     H292601   5.520   1.608   8.206
30787WAT      O92602   4.372   0.018   9.275
30787WAT     H192603   4.389  -0.039   9.194
30787WAT     H292604   4.306   0.090   9.252
30788WAT      O92605   6.647   4.699   2.415
30788WAT     H192606   6.551   4.708   2.386
30788WAT     H292607   6.705   4.693   2.334
30789WAT      O92608   1.556   8.767   1.165
30789WAT     H192609   1.497   8.841   1.131
30789WAT     H292610   1.625   8.804   1.226
30790WAT      O92611   3.424   6.134   3.293
30790WAT     H192612   3.475   6.216   3.320
30790WAT     H292613   3.329   6.143   3.322
30791WAT      O92614   7.582   9.524   5.855
30791WAT     H192615   7.588   9.427   5.875
30791WAT     H292616   7.650   9.548   5.785
30792WAT      O92617   6.854   1.922   1.950
30792WAT     H192618   6.767   1.971   1.943
30792WAT     H292619   6.892   1.935   2.042
30793WAT      O92620   9.112   0.874   0.835
30793WAT     H192621   9.149   0.799   0.890
30793WAT     H292622   9.012   0.868   0.835
30794WAT      O92623   3.320   6.412   6.777
30794WAT     H192624   3.336   6.313   6.783
30794WAT     H292625   3.310   6.449   6.869
30795WAT      O92626   3.304   2.360   5.829
30795WAT     H192627   3.338   2.358   5.923
30795WAT     H292628   3.344   2.283   5.778
30796WAT      O92629   0.217   1.724   0.064
30796WAT     H192630   0.198   1.659   0.138
30796WAT     H292631   0.159   1.805   0.075
30797WAT      O92632   5.767   0.925   8.629
30797WAT     H192633   5.732   0.903   8.538
30797WAT     H292634   5.867   0.916   8.630
30798WAT      O92635   3.798   3.678   3.066
30798WAT     H192636   3.781   3.649   3.160
30798WAT     H292637   3.726   3.740   3.037
30799WAT      O92638   0.091   8.060   6.433
30799WAT     H192639   0.124   8.056   6.339
30799WAT     H292640   0.004   8.107   6.436
30800WAT      O92641   5.183   8.403   9.712
30800WAT     H192642   5.183   8.308   9.741
30800WAT     H292643   5.241   8.457   9.772
30801WAT      O92644   9.346   5.312   1.123
30801WAT     H192645   9.381   5.227   1.162
30801WAT     H292646   9.334   5.380   1.196
30802WAT      O92647   6.768   5.009   3.311
30802WAT     H192648   6.700   5.078   3.287
30802WAT     H292649   6.814   4.977   3.228
30803WAT      O92650   3.486   5.040   9.584
30803WAT     H192651   3.467   5.138   9.588
30803WAT     H292652   3.575   5.022   9.626
30804WAT      O92653   5.502   2.903   8.595
30804WAT     H192654   5.525   2.806   8.590
30804WAT     H292655   5.542   2.943   8.678
30805WAT      O92656   2.583   4.034   4.580
30805WAT     H192657   2.495   3.986   4.576
30805WAT     H292658   2.645   3.996   4.511
30806WAT      O92659   6.321   8.183   5.191
30806WAT     H192660   6.321   8.175   5.091
30806WAT     H292661   6.319   8.280   5.216
30807WAT      O92662   2.073   7.743   3.989
30807WAT     H192663   2.027   7.686   3.921
30807WAT     H292664   2.005   7.800   4.035
30808WAT      O92665   5.258   0.926   8.922
30808WAT     H192666   5.185   0.990   8.946
30808WAT     H292667   5.262   0.917   8.822
30809WAT      O92668   9.356   4.049   7.661
30809WAT     H192669   9.372   3.954   7.688
30809WAT     H292670   9.367   4.109   7.740
30810WAT      O92671   7.377   9.647   2.929
30810WAT     H192672   7.401   9.564   2.979
30810WAT     H292673   7.291   9.633   2.880
30811WAT      O92674   7.432   0.194   1.250
30811WAT     H192675   7.454   0.144   1.334
30811WAT     H292676   7.359   0.146   1.201
30812WAT      O92677   4.718   6.024   6.374
30812WAT     H192678   4.641   6.020   6.438
30812WAT     H292679   4.712   5.948   6.310
30813WAT      O92680   9.081   0.417   8.224
30813WAT     H192681   9.030   0.341   8.183
30813WAT     H292682   9.067   0.416   8.323
30814WAT      O92683   5.744   6.933   2.227
30814WAT     H192684   5.708   6.839   2.227
30814WAT     H292685   5.693   6.988   2.293
30815WAT      O92686   8.705   1.263   5.843
30815WAT     H192687   8.729   1.237   5.750
30815WAT     H292688   8.787   1.265   5.900
30816WAT      O92689   4.463   2.836   9.828
30816WAT     H192690   4.428   2.900   9.760
30816WAT     H292691   4.541   2.877   9.876
30817WAT      O92692   2.739   0.933   2.059
30817WAT     H192693   2.760   0.915   1.963
30817WAT     H292694   2.659   0.992   2.066
30818WAT      O92695   0.057   8.107   2.648
30818WAT     H192696   0.079   8.106   2.550
30818WAT     H292697  -0.037   8.139   2.661
30819WAT      O92698   4.728   8.265   4.296
30819WAT     H192699   4.777   8.206   4.360
30819WAT     H292700   4.693   8.210   4.220
30820WAT      O92701   9.144   7.097   7.684
30820WAT     H192702   9.119   7.142   7.599
30820WAT     H292703   9.124   6.999   7.677
30821WAT      O92704   2.727   5.882   2.756
30821WAT     H192705   2.697   5.805   2.699
30821WAT     H292706   2.772   5.950   2.698
30822WAT      O92707   7.923   7.518   5.798
30822WAT     H192708   7.893   7.602   5.842
30822WAT     H292709   7.939   7.448   5.868
30823WAT      O92710   9.109   5.625   4.904
30823WAT     H192711   9.052   5.677   4.967
30823WAT     H292712   9.106   5.668   4.814
30824WAT      O92713   6.521   2.414   1.036
30824WAT     H192714   6.567   2.349   1.097
30824WAT     H292715   6.453   2.365   0.982
30825WAT      O92716   8.664   2.282   2.650
30825WAT     H192717   8.715   2.305   2.567
30825WAT     H292718   8.717   2.311   2.730
30826WAT      O92719   2.922   6.679   2.528
30826WAT     H192720   2.915   6.695   2.430
30826WAT     H292721   2.846   6.622   2.558
30827WAT      O92722   1.352   5.183   9.297
30827WAT     H192723   1.326   5.214   9.206
30827WAT     H292724   1.358   5.083   9.298
30828WAT      O92725   0.476   7.993   6.326
30828WAT     H192726   0.400   7.976   6.389
30828WAT     H292727   0.530   8.070   6.359
30829WAT      O92728   5.787   7.373   7.266
30829WAT     H192729   5.766   7.440   7.195
30829WAT     H292730   5.885   7.351   7.263
30830WAT      O92731   4.319   7.047   3.112
30830WAT     H192732   4.300   7.073   3.207
30830WAT     H292733   4.365   6.958   3.111
30831WAT      O92734   7.248   7.487   1.209
30831WAT     H192735   7.203   7.561   1.258
30831WAT     H292736   7.216   7.485   1.115
30832WAT      O92737   7.117   4.477   0.964
30832WAT     H192738   7.092   4.566   0.926
30832WAT     H292739   7.169   4.426   0.896
30833WAT      O92740   9.801   1.929   3.618
30833WAT     H192741   9.744   1.848   3.625
30833WAT     H292742   9.898   1.903   3.623
30834WAT      O92743   1.521   0.339   8.628
30834WAT     H192744   1.425   0.314   8.626
30834WAT     H292745   1.577   0.256   8.622
30835WAT      O92746   6.070   0.503   7.486
30835WAT     H192747   6.030   0.585   7.445
30835WAT     H292748   6.163   0.523   7.517
30836WAT      O92749   9.484   8.390   9.420
30836WAT     H192750   9.429   8.345   9.490
30836WAT     H292751   9.542   8.459   9.463
30837WAT      O92752   9.088   9.203   7.952
30837WAT     H192753   9.167   9.164   8.001
30837WAT     H292754   9.079   9.158   7.863
30838WAT      O92755   5.891   4.009   1.303
30838WAT     H192756   5.870   4.043   1.212
30838WAT     H292757   5.990   3.998   1.312
30839WAT      O92758   5.932   8.410   0.329
30839WAT     H192759   5.947   8.468   0.249
30839WAT     H292760   6.021   8.380   0.364
30840WAT      O92761   0.166   5.802   0.813
30840WAT     H192762   0.228   5.881   0.820
30840WAT     H292763   0.173   5.746   0.895
30841WAT      O92764   3.671   2.430   2.354
30841WAT     H192765   3.666   2.338   2.393
30841WAT     H292766   3.753   2.438   2.298
30842WAT      O92767   0.365   9.200   5.927
30842WAT     H192768   0.377   9.106   5.960
30842WAT     H292769   0.316   9.199   5.840
30843WAT      O92770   4.131   6.091   8.578
30843WAT     H192771   4.161   5.998   8.598
30843WAT     H292772   4.212   6.150   8.569
30844WAT      O92773   6.929   8.007   4.187
30844WAT     H192774   6.945   7.963   4.098
30844WAT     H292775   7.016   8.034   4.227
30845WAT      O92776   6.905   4.162   0.306
30845WAT     H192777   6.815   4.131   0.337
30845WAT     H292778   6.931   4.244   0.356
30846WAT      O92779   2.514   2.901   2.085
30846WAT     H192780   2.592   2.963   2.077
30846WAT     H292781   2.456   2.930   2.161
30847WAT      O92782   6.387   4.217   2.184
30847WAT     H192783   6.428   4.303   2.155
30847WAT     H292784   6.430   4.185   2.268
30848WAT      O92785   6.267   8.096   4.405
30848WAT     H192786   6.270   8.114   4.306
30848WAT     H292787   6.351   8.050   4.433
30849WAT      O92788   0.326   6.105   7.193
30849WAT     H192789   0.377   6.186   7.163
30849WAT     H292790   0.277   6.066   7.115
30850WAT      O92791   6.720   2.772   6.820
30850WAT     H192792   6.788   2.703   6.795
30850WAT     H292793   6.651   2.778   6.748
30851WAT      O92794   9.581   6.300   0.668
30851WAT     H192795   9.624   6.229   0.612
30851WAT     H292796   9.630   6.310   0.754
30852WAT      O92797   8.118   1.597   8.778
30852WAT     H192798   8.058   1.581   8.856
30852WAT     H292799   8.134   1.696   8.767
30853WAT      O92800   0.357   6.761   2.862
30853WAT     H192801   0.291   6.818   2.911
30853WAT     H292802   0.367   6.794   2.768
30854WAT      O92803   7.473   0.456   0.668
30854WAT     H192804   7.412   0.476   0.591
30854WAT     H292805   7.422   0.461   0.753
30855WAT      O92806   4.873   2.420   4.332
30855WAT     H192807   4.795   2.365   4.301
30855WAT     H292808   4.841   2.510   4.360
30856WAT      O92809   7.136   3.515   6.171
30856WAT     H192810   7.227   3.476   6.185
30856WAT     H292811   7.081   3.453   6.116
30857WAT      O92812   5.974   5.566   9.334
30857WAT     H192813   5.921   5.628   9.393
30857WAT     H292814   6.061   5.545   9.378
30858WAT      O92815   0.168   3.938   7.970
30858WAT     H192816   0.227   3.859   7.991
30858WAT     H292817   0.160   3.949   7.871
30859WAT      O92818   6.456   5.987   6.954
30859WAT     H192819   6.441   6.081   6.922
30859WAT     H292820   6.438   5.923   6.880
30860WAT      O92821   4.848   2.640   8.589
30860WAT     H192822   4.773   2.602   8.644
30860WAT     H292823   4.895   2.711   8.642
30861WAT      O92824   8.030   9.627   4.199
30861WAT     H192825   8.075   9.713   4.224
30861WAT     H292826   7.974   9.642   4.117
30862WAT      O92827   8.060   0.750   8.285
30862WAT     H192828   8.002   0.769   8.205
30862WAT     H292829   8.130   0.683   8.260
30863WAT      O92830   8.867   1.706   0.865
30863WAT     H192831   8.815   1.784   0.832
30863WAT     H292832   8.869   1.635   0.794
30864WAT      O92833   6.841   8.921   2.629
30864WAT     H192834   6.901   8.958   2.701
30864WAT     H292835   6.816   8.995   2.566
30865WAT      O92836   3.703   1.226   2.871
30865WAT     H192837   3.768   1.242   2.946
30865WAT     H292838   3.743   1.162   2.805
30866WAT      O92839   7.479   3.929   4.952
30866WAT     H192840   7.565   3.978   4.937
30866WAT     H292841   7.474   3.850   4.891
30867WAT      O92842   4.678   8.883   1.972
30867WAT     H192843   4.615   8.831   1.916
30867WAT     H292844   4.767   8.888   1.927
30868WAT      O92845   7.354   1.965   6.948
30868WAT     H192846   7.401   2.001   6.868
30868WAT     H292847   7.331   1.869   6.933
30869WAT      O92848   1.723   9.784   0.161
30869WAT     H192849   1.802   9.844   0.174
30869WAT     H292850   1.730   9.708   0.226
30870WAT      O92851   3.532   3.713   9.308
30870WAT     H192852   3.488   3.772   9.241
30870WAT     H292853   3.471   3.637   9.330
30871WAT      O92854   5.288   0.464   7.064
30871WAT     H192855   5.232   0.538   7.102
30871WAT     H292856   5.287   0.469   6.964
30872WAT      O92857   4.426   1.023   1.218
30872WAT     H192858   4.464   1.022   1.125
30872WAT     H292859   4.389   1.114   1.238
30873WAT      O92860   0.857   9.672   9.728
30873WAT     H192861   0.821   9.735   9.659
30873WAT     H292862   0.897   9.592   9.682
30874WAT      O92863   4.734   6.997   0.876
30874WAT     H192864   4.795   6.988   0.797
30874WAT     H292865   4.657   7.056   0.853
30875WAT      O92866   4.453   0.150   0.842
30875WAT     H192867   4.364   0.188   0.816
30875WAT     H292868   4.461   0.057   0.806
30876WAT      O92869   9.489   5.049   2.518
30876WAT     H192870   9.540   5.064   2.434
30876WAT     H292871   9.453   5.136   2.552
30877WAT      O92872   4.964   7.345   5.773
30877WAT     H192873   5.011   7.331   5.685
30877WAT     H292874   5.022   7.399   5.834
30878WAT      O92875   2.884   5.243   2.824
30878WAT     H192876   2.911   5.164   2.769
30878WAT     H292877   2.786   5.237   2.845
30879WAT      O92878   1.907   9.190   8.513
30879WAT     H192879   2.004   9.197   8.490
30879WAT     H292880   1.858   9.146   8.438
30880WAT      O92881   3.395   1.890   3.127
30880WAT     H192882   3.315   1.950   3.129
30880WAT     H292883   3.462   1.923   3.195
30881WAT      O92884   3.695   2.775   9.343
30881WAT     H192885   3.623   2.711   9.370
30881WAT     H292886   3.690   2.790   9.244
30882WAT      O92887   6.406   0.106   1.215
30882WAT     H192888   6.476   0.126   1.146
30882WAT     H292889   6.320   0.149   1.189
30883WAT      O92890   1.110   8.737   5.618
30883WAT     H192891   1.043   8.663   5.622
30883WAT     H292892   1.128   8.770   5.711
30884WAT      O92893   8.025   3.384   2.311
30884WAT     H192894   8.008   3.390   2.212
30884WAT     H292895   8.071   3.297   2.331
30885WAT      O92896   2.103   6.139   4.121
30885WAT     H192897   2.045   6.086   4.059
30885WAT     H292898   2.102   6.235   4.094
30886WAT      O92899   8.915   2.218   4.793
30886WAT     H192900   8.978   2.271   4.737
30886WAT     H292901   8.828   2.267   4.803
30887WAT      O92902   7.448   1.587   4.949
30887WAT     H192903   7.386   1.594   4.871
30887WAT     H292904   7.527   1.531   4.925
30888WAT      O92905   1.673   4.453   5.740
30888WAT     H192906   1.713   4.543   5.724
30888WAT     H292907   1.594   4.440   5.679
30889WAT      O92908   8.985   0.174   8.099
30889WAT     H192909   8.940   0.237   8.035
30889WAT     H292910   8.930   0.091   8.107
30890WAT      O92911   9.706   3.411   6.279
30890WAT     H192912   9.653   3.416   6.195
30890WAT     H292913   9.727   3.315   6.300
30891WAT      O92914   7.983   8.489   7.945
30891WAT     H192915   8.056   8.491   7.876
30891WAT     H292916   8.022   8.506   8.035
30892WAT      O92917   0.914   3.886   3.513
30892WAT     H192918   0.962   3.815   3.564
30892WAT     H292919   0.978   3.959   3.489
30893WAT      O92920   5.377   5.150   1.348
30893WAT     H192921   5.405   5.055   1.341
30893WAT     H292922   5.336   5.180   1.262
30894WAT      O92923   1.777   8.745   9.005
30894WAT     H192924   1.771   8.686   9.085
30894WAT     H292925   1.853   8.808   9.015
30895WAT      O92926   8.624   1.580   6.570
30895WAT     H192927   8.569   1.589   6.488
30895WAT     H292928   8.719   1.605   6.549
30896WAT      O92929   5.125   8.380   1.671
30896WAT     H192930   5.178   8.425   1.598
30896WAT     H292931   5.058   8.445   1.708
30897WAT      O92932   8.828   6.746   7.755
30897WAT     H192933   8.815   6.702   7.666
30897WAT     H292934   8.783   6.692   7.826
30898WAT      O92935   6.944   7.356   4.603
30898WAT     H192936   6.995   7.271   4.588
30898WAT     H292937   6.985   7.406   4.679
30899WAT      O92938   2.034   8.020   3.644
30899WAT     H192939   1.948   7.970   3.634
30899WAT     H292940   2.015   8.116   3.664
30900WAT      O92941   8.578   6.351   2.529
30900WAT     H192942   8.569   6.413   2.451
30900WAT     H292943   8.553   6.258   2.501
30901WAT      O92944   9.453   2.470   4.613
30901WAT     H192945   9.463   2.525   4.530
30901WAT     H292946   9.518   2.503   4.682
30902WAT      O92947   4.435   9.183   2.194
30902WAT     H192948   4.390   9.150   2.277
30902WAT     H292949   4.467   9.277   2.208
30903WAT      O92950   3.083   4.743   5.244
30903WAT     H192951   3.083   4.736   5.344
30903WAT     H292952   3.177   4.740   5.211
30904WAT      O92953   7.270   8.722   5.168
30904WAT     H192954   7.176   8.737   5.198
30904WAT     H292955   7.311   8.649   5.223
30905WAT      O92956   0.385   0.967   6.747
30905WAT     H192957   0.422   1.060   6.752
30905WAT     H292958   0.396   0.922   6.836
30906WAT      O92959   7.350   3.802   9.455
30906WAT     H192960   7.411   3.725   9.471
30906WAT     H292961   7.291   3.783   9.377
30907WAT      O92962   9.548   9.022   4.970
30907WAT     H192963   9.481   9.009   4.898
30907WAT     H292964   9.639   9.034   4.930
30908WAT      O92965   7.611   5.668   0.447
30908WAT     H192966   7.587   5.703   0.357
30908WAT     H292967   7.690   5.718   0.482
30909WAT      O92968   0.982   0.999   8.879
30909WAT     H192969   1.008   1.093   8.902
30909WAT     H292970   1.012   0.978   8.786
30910WAT      O92971   0.185   0.440   4.197
30910WAT     H192972   0.182   0.528   4.149
30910WAT     H292973   0.280   0.413   4.212
30911WAT      O92974   3.421   2.607   9.881
30911WAT     H192975   3.502   2.554   9.907
30911WAT     H292976   3.411   2.606   9.781
30912WAT      O92977   3.860   7.832   6.740
30912WAT     H192978   3.927   7.847   6.667
30912WAT     H292979   3.771   7.865   6.711
30913WAT      O92980   8.158   1.356   6.805
30913WAT     H192981   8.168   1.451   6.835
30913WAT     H292982   8.247   1.318   6.782
30914WAT      O92983   2.250   8.099   0.260
30914WAT     H192984   2.300   8.120   0.344
30914WAT     H292985   2.298   8.140   0.182
30915WAT      O92986   8.363   3.218   0.559
30915WAT     H192987   8.311   3.302   0.572
30915WAT     H292988   8.403   3.190   0.647
30916WAT      O92989   9.489   0.914   2.657
30916WAT     H192990   9.541   0.875   2.581
30916WAT     H292991   9.520   0.873   2.743
30917WAT      O92992   1.746   0.641   3.389
30917WAT     H192993   1.714   0.703   3.317
30917WAT     H292994   1.755   0.691   3.475
30918WAT      O92995   8.414   2.719   8.180
30918WAT     H192996   8.479   2.770   8.236
30918WAT     H292997   8.394   2.632   8.225
30919WAT      O92998   0.227   0.810   8.002
30919WAT     H192999   0.174   0.761   7.934
30919WAT     H293000   0.211   0.908   7.992
30920WAT      O93001   9.294   2.177   1.676
30920WAT     H193002   9.232   2.123   1.618
30920WAT     H293003   9.283   2.274   1.655
30921WAT      O93004   5.317   0.680   5.747
30921WAT     H193005   5.287   0.637   5.662
30921WAT     H293006   5.416   0.673   5.755
30922WAT      O93007   1.296   9.565   5.256
30922WAT     H193008   1.351   9.512   5.320
30922WAT     H293009   1.202   9.530   5.256
30923WAT      O93010   4.146   8.469   3.859
30923WAT     H193011   4.069   8.471   3.923
30923WAT     H293012   4.134   8.541   3.791
30924WAT      O93013   0.099   1.508   1.039
30924WAT     H193014   0.085   1.426   0.984
30924WAT     H293015   0.103   1.588   0.979
30925WAT      O93016   6.242   7.252   2.456
30925WAT     H193017   6.216   7.202   2.373
30925WAT     H293018   6.208   7.346   2.450
30926WAT      O93019   2.438   1.371   4.373
30926WAT     H193020   2.449   1.276   4.342
30926WAT     H293021   2.345   1.385   4.406
30927WAT      O93022   3.759   4.407   8.425
30927WAT     H193023   3.744   4.331   8.361
30927WAT     H293024   3.690   4.402   8.498
30928WAT      O93025   1.046   5.328   5.492
30928WAT     H193026   1.138   5.360   5.514
30928WAT     H293027   1.025   5.246   5.545
30929WAT      O93028   7.279   1.615   1.640
30929WAT     H193029   7.344   1.586   1.570
30929WAT     H293030   7.281   1.714   1.649
30930WAT      O93031   8.643   1.828   5.685
30930WAT     H193032   8.724   1.854   5.631
30930WAT     H293033   8.567   1.807   5.624
30931WAT      O93034   7.088   6.519   3.995
30931WAT     H193035   7.010   6.568   4.034
30931WAT     H293036   7.061   6.477   3.908
30932WAT      O93037   1.282   4.531   7.231
30932WAT     H193038   1.371   4.540   7.275
30932WAT     H293039   1.210   4.522   7.300
30933WAT      O93040   7.488   9.387   6.574
30933WAT     H193041   7.531   9.360   6.660
30933WAT     H293042   7.545   9.357   6.497
30934WAT      O93043   9.331   1.498   5.228
30934WAT     H193044   9.366   1.405   5.225
30934WAT     H293045   9.304   1.520   5.322
30935WAT      O93046   0.013   0.445   8.779
30935WAT     H193047  -0.020   0.472   8.870
30935WAT     H293048  -0.059   0.396   8.731
30936WAT      O93049   3.664   4.844   1.042
30936WAT     H193050   3.721   4.876   0.966
30936WAT     H293051   3.719   4.845   1.126
30937WAT      O93052   0.547   3.717   4.696
30937WAT     H193053   0.552   3.753   4.790
30937WAT     H293054   0.559   3.792   4.631
30938WAT      O93055   0.886   7.277   3.766
30938WAT     H193056   0.882   7.295   3.864
30938WAT     H293057   0.981   7.286   3.734
30939WAT      O93058   5.505   1.320   3.662
30939WAT     H193059   5.500   1.394   3.595
30939WAT     H293060   5.566   1.249   3.629
30940WAT      O93061   8.108   0.286   3.742
30940WAT     H193062   8.185   0.251   3.688
30940WAT     H293063   8.025   0.284   3.687
30941WAT      O93064   2.325   6.626   6.064
30941WAT     H193065   2.311   6.645   5.967
30941WAT     H293066   2.422   6.632   6.086
30942WAT      O93067   6.933   1.914   9.383
30942WAT     H193068   6.866   1.989   9.379
30942WAT     H293069   6.884   1.827   9.396
30943WAT      O93070   6.099   1.057   8.875
30943WAT     H193071   6.077   1.003   8.793
30943WAT     H293072   6.195   1.045   8.898
30944WAT      O93073   3.891   7.250   8.857
30944WAT     H193074   3.881   7.175   8.792
30944WAT     H293075   3.984   7.251   8.894
30945WAT      O93076   9.410   0.967   0.606
30945WAT     H193077   9.461   0.901   0.660
30945WAT     H293078   9.319   0.930   0.585
30946WAT      O93079   4.910   6.565   7.587
30946WAT     H193080   4.868   6.649   7.553
30946WAT     H293081   5.003   6.584   7.618
30947WAT      O93082   5.953   8.319   2.288
30947WAT     H193083   5.859   8.342   2.262
30947WAT     H293084   6.009   8.403   2.290
30948WAT      O93085   3.548   2.948   6.603
30948WAT     H193086   3.500   3.031   6.631
30948WAT     H293087   3.563   2.889   6.683
30949WAT      O93088   0.849   4.406   7.364
30949WAT     H193089   0.802   4.436   7.447
30949WAT     H293090   0.788   4.416   7.286
30950WAT      O93091   0.554   2.642   2.316
30950WAT     H193092   0.524   2.691   2.234
30950WAT     H293093   0.589   2.553   2.290
30951WAT      O93094   6.778   7.596   7.088
30951WAT     H193095   6.860   7.559   7.131
30951WAT     H293096   6.706   7.607   7.157
30952WAT      O93097   2.018   7.422   0.864
30952WAT     H193098   1.967   7.377   0.790
30952WAT     H293099   1.980   7.396   0.952
30953WAT      O93100   2.260   4.510   7.398
30953WAT     H193101   2.204   4.563   7.334
30953WAT     H293102   2.281   4.567   7.478
30954WAT      O93103   4.331   2.179   4.782
30954WAT     H193104   4.390   2.129   4.719
30954WAT     H293105   4.370   2.175   4.874
30955WAT      O93106   5.120   6.388   1.480
30955WAT     H193107   5.038   6.406   1.427
30955WAT     H293108   5.118   6.295   1.516
30956WAT      O93109   4.507   1.727   5.988
30956WAT     H193110   4.460   1.806   6.027
30956WAT     H293111   4.468   1.643   6.027
30957WAT      O93112   8.577   3.586   6.518
30957WAT     H193113   8.622   3.651   6.579
30957WAT     H293114   8.544   3.634   6.436
30958WAT      O93115   5.755   1.363   2.455
30958WAT     H193116   5.729   1.437   2.518
30958WAT     H293117   5.674   1.326   2.412
30959WAT      O93118   0.542   5.470   4.662
30959WAT     H193119   0.619   5.449   4.722
30959WAT     H293120   0.575   5.497   4.572
30960WAT      O93121   2.543   1.190   5.184
30960WAT     H193122   2.553   1.147   5.274
30960WAT     H293123   2.467   1.148   5.135
30961WAT      O93124   1.606   0.576   1.740
30961WAT     H193125   1.553   0.496   1.766
30961WAT     H293126   1.567   0.658   1.782
30962WAT      O93127   7.063   6.365   7.932
30962WAT     H193128   7.080   6.463   7.919
30962WAT     H293129   7.043   6.323   7.843
30963WAT      O93130   2.477   0.108   7.129
30963WAT     H193131   2.458   0.114   7.227
30963WAT     H293132   2.535   0.028   7.111
30964WAT      O93133   8.186   2.661   8.843
30964WAT     H193134   8.107   2.607   8.872
30964WAT     H293135   8.235   2.695   8.923
30965WAT      O93136   1.819   7.166   8.483
30965WAT     H193137   1.833   7.115   8.568
30965WAT     H293138   1.731   7.139   8.443
30966WAT      O93139   0.102   3.898   5.809
30966WAT     H193140   0.007   3.901   5.779
30966WAT     H293141   0.136   3.804   5.806
30967WAT      O93142   6.623   7.295   3.652
30967WAT     H193143   6.675   7.271   3.570
30967WAT     H293144   6.575   7.381   3.636
30968WAT      O93145   8.656   9.211   4.976
30968WAT     H193146   8.689   9.267   4.899
30968WAT     H293147   8.730   9.151   5.007
30969WAT      O93148   3.344   1.133   4.404
30969WAT     H193149   3.296   1.168   4.323
30969WAT     H293150   3.297   1.051   4.438
30970WAT      O93151   8.812   8.091   3.159
30970WAT     H193152   8.794   8.056   3.251
30970WAT     H293153   8.891   8.152   3.161
30971WAT      O93154   2.607   9.324   2.931
30971WAT     H193155   2.683   9.295   2.990
30971WAT     H293156   2.608   9.270   2.847
30972WAT      O93157   0.565   8.891   7.347
30972WAT     H193158   0.585   8.969   7.288
30972WAT     H293159   0.561   8.922   7.442
30973WAT      O93160   1.670   9.216   5.692
30973WAT     H193161   1.591   9.262   5.732
30973WAT     H293162   1.650   9.191   5.598
30974WAT      O93163   7.838   7.436   5.051
30974WAT     H193164   7.850   7.527   5.091
30974WAT     H293165   7.915   7.377   5.076
30975WAT      O93166   8.179   2.339   0.735
30975WAT     H193167   8.127   2.359   0.818
30975WAT     H293168   8.276   2.333   0.758
30976WAT      O93169   3.570   1.156   5.093
30976WAT     H193170   3.537   1.212   5.169
30976WAT     H293171   3.569   1.210   5.009
30977WAT      O93172   8.021   6.337   7.600
30977WAT     H193173   7.945   6.326   7.536
30977WAT     H293174   8.054   6.432   7.596
30978WAT      O93175   7.908   7.778   1.161
30978WAT     H193176   7.847   7.789   1.240
30978WAT     H293177   8.002   7.800   1.188
30979WAT      O93178   7.115   3.843   5.590
30979WAT     H193179   7.096   3.860   5.494
30979WAT     H293180   7.106   3.745   5.610
30980WAT      O93181   9.103   3.582   0.497
30980WAT     H193182   9.052   3.518   0.555
30980WAT     H293183   9.067   3.578   0.404
30981WAT      O93184   1.721   6.992   3.850
30981WAT     H193185   1.693   7.043   3.931
30981WAT     H293186   1.678   7.032   3.769
30982WAT      O93187   3.774   1.134   2.410
30982WAT     H193188   3.873   1.143   2.415
30982WAT     H293189   3.731   1.217   2.445
30983WAT      O93190   6.760   4.931   9.198
30983WAT     H193191   6.819   4.987   9.256
30983WAT     H293192   6.805   4.844   9.180
30984WAT      O93193   8.546   3.251   5.411
30984WAT     H193194   8.447   3.262   5.418
30984WAT     H293195   8.570   3.156   5.428
30985WAT      O93196   3.567   8.420   0.575
30985WAT     H193197   3.533   8.513   0.567
30985WAT     H293198   3.611   8.393   0.490
30986WAT      O93199   3.130   1.114   0.127
30986WAT     H193200   3.069   1.067   0.191
30986WAT     H293201   3.154   1.053   0.052
30987WAT      O93202   1.489   4.545   3.074
30987WAT     H193203   1.580   4.551   3.114
30987WAT     H293204   1.480   4.460   3.023
30988WAT      O93205   2.914   8.586   8.526
30988WAT     H193206   2.895   8.499   8.571
30988WAT     H293207   2.993   8.630   8.569
30989WAT      O93208   9.304   5.685   5.623
30989WAT     H193209   9.388   5.680   5.570
30989WAT     H293210   9.253   5.766   5.598
30990WAT      O93211   7.194   2.243   4.609
30990WAT     H193212   7.209   2.337   4.579
30990WAT     H293213   7.196   2.182   4.529
30991WAT      O93214   5.267   7.310   6.623
30991WAT     H193215   5.283   7.407   6.610
30991WAT     H293216   5.187   7.282   6.569
30992WAT      O93217   4.203   0.096   1.914
30992WAT     H193218   4.285   0.154   1.920
30992WAT     H293219   4.124   0.154   1.896
30993WAT      O93220   1.845   1.330   3.771
30993WAT     H193221   1.934   1.283   3.774
30993WAT     H293222   1.822   1.362   3.863
30994WAT      O93223   2.332   2.734   7.567
30994WAT     H193224   2.354   2.693   7.656
30994WAT     H293225   2.263   2.679   7.521
30995WAT      O93226   5.242   6.512   4.958
30995WAT     H193227   5.240   6.563   5.044
30995WAT     H293228   5.213   6.417   4.974
30996WAT      O93229   5.475   2.811   5.875
30996WAT     H193230   5.454   2.800   5.972
30996WAT     H293231   5.390   2.814   5.823
30997WAT      O93232   7.840   4.291   7.379
30997WAT     H193233   7.845   4.193   7.400
30997WAT     H293234   7.871   4.306   7.285
30998WAT      O93235   3.010   3.813   5.898
30998WAT     H193236   3.029   3.788   5.803
30998WAT     H293237   3.069   3.888   5.925
30999WAT      O93238   3.091   4.292   3.383
30999WAT     H193239   2.993   4.310   3.380
30999WAT     H293240   3.128   4.325   3.470
31000WAT      O93241   4.652   7.215   8.963
31000WAT     H193242   4.609   7.179   8.880
31000WAT     H293243   4.736   7.263   8.939
31001WAT      O93244   5.681   0.819   4.601
31001WAT     H193245   5.708   0.737   4.551
31001WAT     H293246   5.723   0.899   4.558
31002WAT      O93247   5.024   9.680   2.455
31002WAT     H193248   5.028   9.747   2.530
31002WAT     H293249   4.933   9.682   2.415
31003WAT      O93250   0.541   7.009   0.241
31003WAT     H193251   0.487   7.089   0.266
31003WAT     H293252   0.553   7.006   0.142
31004WAT      O93253   1.418   0.984   6.453
31004WAT     H193254   1.335   0.937   6.484
31004WAT     H293255   1.426   0.976   6.354
31005WAT      O93256   0.476   7.261   0.332
31005WAT     H193257   0.510   7.340   0.281
31005WAT     H293258   0.486   7.278   0.430
31006WAT      O93259   2.881   5.524   1.225
31006WAT     H193260   2.845   5.476   1.306
31006WAT     H293261   2.936   5.602   1.254
31007WAT      O93262   1.049   0.280   8.801
31007WAT     H193263   1.079   0.337   8.877
31007WAT     H293264   1.047   0.184   8.830
31008WAT      O93265   4.963   9.125   7.412
31008WAT     H193266   4.901   9.154   7.485
31008WAT     H293267   5.034   9.065   7.449
31009WAT      O93268   0.996   3.827   9.442
31009WAT     H193269   0.902   3.839   9.409
31009WAT     H293270   1.020   3.902   9.504
31010WAT      O93271   1.596   3.024   9.283
31010WAT     H193272   1.661   2.974   9.340
31010WAT     H293273   1.502   2.999   9.309
31011WAT      O93274   5.912   2.876   7.437
31011WAT     H193275   5.881   2.781   7.432
31011WAT     H293276   5.990   2.889   7.376
31012WAT      O93277   2.635   8.146   7.630
31012WAT     H193278   2.715   8.099   7.668
31012WAT     H293279   2.557   8.084   7.629
31013WAT      O93280   9.293   5.532   1.292
31013WAT     H193281   9.236   5.531   1.374
31013WAT     H293282   9.389   5.534   1.319
31014WAT      O93283   1.834   1.443   7.624
31014WAT     H193284   1.882   1.530   7.628
31014WAT     H293285   1.737   1.457   7.645
31015WAT      O93286   3.293   3.018   1.403
31015WAT     H193287   3.294   3.116   1.417
31015WAT     H293288   3.276   2.998   1.306
31016WAT      O93289   5.747   5.225   4.012
31016WAT     H193290   5.709   5.132   4.020
31016WAT     H293291   5.734   5.274   4.099
31017WAT      O93292   5.444   7.814   4.515
31017WAT     H193293   5.359   7.820   4.567
31017WAT     H293294   5.474   7.906   4.488
31018WAT      O93295   3.405   2.454   6.802
31018WAT     H193296   3.436   2.490   6.714
31018WAT     H293297   3.308   2.432   6.796
31019WAT      O93298   2.252   3.421   2.882
31019WAT     H193299   2.277   3.508   2.840
31019WAT     H293300   2.192   3.438   2.960
31020WAT      O93301   2.963   0.535   4.728
31020WAT     H193302   2.912   0.450   4.717
31020WAT     H293303   3.001   0.540   4.820
31021WAT      O93304   1.328   6.057   2.427
31021WAT     H193305   1.265   6.021   2.358
31021WAT     H293306   1.409   6.095   2.381
31022WAT      O93307   7.598   2.671   7.708
31022WAT     H193308   7.589   2.614   7.626
31022WAT     H293309   7.533   2.640   7.777
31023WAT      O93310   7.703   3.508   5.151
31023WAT     H193311   7.764   3.504   5.230
31023WAT     H293312   7.756   3.530   5.069
31024WAT      O93313   1.630   7.529   6.344
31024WAT     H193314   1.609   7.433   6.365
31024WAT     H293315   1.553   7.569   6.293
31025WAT      O93316   0.190   0.869   3.083
31025WAT     H193317   0.266   0.847   3.021
31025WAT     H293318   0.226   0.884   3.175
31026WAT      O93319   3.251   2.738   4.907
31026WAT     H193320   3.220   2.730   4.813
31026WAT     H293321   3.172   2.750   4.967
31027WAT      O93322   5.421   1.922   0.477
31027WAT     H193323   5.332   1.889   0.507
31027WAT     H293324   5.493   1.867   0.519
31028WAT      O93325   9.657   5.326   2.614
31028WAT     H193326   9.727   5.264   2.579
31028WAT     H293327   9.575   5.318   2.559
31029WAT      O93328   8.944   3.532   6.035
31029WAT     H193329   8.945   3.621   5.989
31029WAT     H293330   8.959   3.545   6.133
31030WAT      O93331   8.366   4.854   6.911
31030WAT     H193332   8.437   4.896   6.968
31030WAT     H293333   8.329   4.774   6.957
31031WAT      O93334   7.309   2.150   0.913
31031WAT     H193335   7.274   2.140   1.006
31031WAT     H293336   7.254   2.095   0.850
31032WAT      O93337   6.338   1.998   3.071
31032WAT     H193338   6.247   2.016   3.033
31032WAT     H293339   6.329   1.948   3.157
31033WAT      O93340   3.148   1.534   5.350
31033WAT     H193341   3.196   1.600   5.293
31033WAT     H293342   3.050   1.537   5.331
31034WAT      O93343   6.581   0.905   7.810
31034WAT     H193344   6.512   0.974   7.789
31034WAT     H293345   6.653   0.945   7.867
31035WAT      O93346   1.275   6.652   5.079
31035WAT     H193347   1.181   6.626   5.059
31035WAT     H293348   1.338   6.603   5.019
31036WAT      O93349   3.549   0.732   4.009
31036WAT     H193350   3.495   0.812   4.034
31036WAT     H293351   3.590   0.692   4.092
31037WAT      O93352   5.782   7.404   2.532
31037WAT     H193353   5.818   7.399   2.439
31037WAT     H293354   5.754   7.498   2.552
31038WAT      O93355   0.206   8.826   9.604
31038WAT     H193356   0.140   8.795   9.672
31038WAT     H293357   0.287   8.769   9.607
31039WAT      O93358   9.818   9.171   2.603
31039WAT     H193359   9.887   9.226   2.650
31039WAT     H293360   9.735   9.226   2.589
31040WAT      O93361   5.046   7.444   2.410
31040WAT     H193362   5.029   7.533   2.368
31040WAT     H293363   5.099   7.387   2.346
31041WAT      O93364   6.336   4.634   5.965
31041WAT     H193365   6.358   4.544   5.927
31041WAT     H293366   6.294   4.623   6.055
31042WAT      O93367   1.996   9.815   7.525
31042WAT     H193368   2.047   9.730   7.513
31042WAT     H293369   2.040   9.889   7.474
31043WAT      O93370   2.339   6.167   1.665
31043WAT     H193371   2.299   6.106   1.734
31043WAT     H293372   2.412   6.119   1.616
31044WAT      O93373   6.254   7.638   5.544
31044WAT     H193374   6.264   7.628   5.445
31044WAT     H293375   6.174   7.586   5.575
31045WAT      O93376   8.369   3.482   9.432
31045WAT     H193377   8.293   3.423   9.459
31045WAT     H293378   8.448   3.426   9.407
31046WAT      O93379   4.204   6.325   4.827
31046WAT     H193380   4.246   6.253   4.884
31046WAT     H293381   4.158   6.283   4.749
31047WAT      O93382   2.907   8.555   3.184
31047WAT     H193383   2.830   8.535   3.245
31047WAT     H293384   2.968   8.622   3.228
31048WAT      O93385   6.215   0.202   1.432
31048WAT     H193386   6.310   0.175   1.422
31048WAT     H293387   6.210   0.300   1.454
31049WAT      O93388   2.899   6.816   1.920
31049WAT     H193389   2.917   6.722   1.893
31049WAT     H293390   2.802   6.836   1.912
31050WAT      O93391   8.989   4.820   0.338
31050WAT     H193392   8.988   4.838   0.240
31050WAT     H293393   8.929   4.742   0.358
31051WAT      O93394   9.482   0.416   5.546
31051WAT     H193395   9.429   0.373   5.473
31051WAT     H293396   9.438   0.501   5.574
31052WAT      O93397   0.132   8.563   3.594
31052WAT     H193398   0.121   8.532   3.688
31052WAT     H293399   0.105   8.490   3.531
31053WAT      O93400   5.617   2.765   5.434
31053WAT     H193401   5.603   2.782   5.532
31053WAT     H293402   5.629   2.852   5.387
31054WAT      O93403   2.502   8.133   5.506
31054WAT     H193404   2.517   8.046   5.553
31054WAT     H293405   2.463   8.116   5.416
31055WAT      O93406   0.380   4.493   4.318
31055WAT     H193407   0.472   4.456   4.329
31055WAT     H293408   0.371   4.534   4.228
31056WAT      O93409   0.911   7.557   2.254
31056WAT     H193410   0.969   7.613   2.313
31056WAT     H293411   0.846   7.615   2.206
31057WAT      O93412   8.521   4.986   1.278
31057WAT     H193413   8.421   4.980   1.278
31057WAT     H293414   8.558   4.910   1.331
31058WAT      O93415   7.588   0.111   6.393
31058WAT     H193416   7.511   0.091   6.332
31058WAT     H293417   7.663   0.152   6.341
31059WAT      O93418   0.303   6.539   6.947
31059WAT     H193419   0.274   6.513   7.039
31059WAT     H293420   0.287   6.463   6.884
31060WAT      O93421   7.263   5.718   5.274
31060WAT     H193422   7.309   5.734   5.361
31060WAT     H293423   7.307   5.773   5.203
31061WAT      O93424   8.825   6.150   8.411
31061WAT     H193425   8.904   6.153   8.349
31061WAT     H293426   8.823   6.062   8.459
31062WAT      O93427   3.726   0.733   3.350
31062WAT     H193428   3.769   0.798   3.286
31062WAT     H293429   3.782   0.724   3.432
31063WAT      O93430   0.712   4.229   2.153
31063WAT     H193431   0.736   4.135   2.128
31063WAT     H293432   0.793   4.287   2.148
31064WAT      O93433   1.924   1.771   4.902
31064WAT     H193434   2.016   1.807   4.918
31064WAT     H293435   1.859   1.819   4.961
31065WAT      O93436   6.833   7.531   5.046
31065WAT     H193437   6.745   7.490   5.021
31065WAT     H293438   6.903   7.502   4.980
31066WAT      O93439   9.852   1.607   6.624
31066WAT     H193440   9.883   1.672   6.555
31066WAT     H293441   9.925   1.541   6.643
31067WAT      O93442   1.560   6.584   1.506
31067WAT     H193443   1.604   6.670   1.532
31067WAT     H293444   1.537   6.532   1.588
31068WAT      O93445   1.479   6.453   1.713
31068WAT     H193446   1.506   6.482   1.805
31068WAT     H293447   1.517   6.362   1.695
31069WAT      O93448   8.598   9.491   9.433
31069WAT     H193449   8.622   9.463   9.526
31069WAT     H293450   8.675   9.539   9.391
31070WAT      O93451   9.821   3.299   5.343
31070WAT     H193452   9.771   3.247   5.412
31070WAT     H293453   9.816   3.252   5.255
31071WAT      O93454   7.387   7.684   9.710
31071WAT     H193455   7.390   7.783   9.695
31071WAT     H293456   7.404   7.665   9.807
31072WAT      O93457   1.456   4.956   6.379
31072WAT     H193458   1.497   4.918   6.461
31072WAT     H293459   1.425   4.881   6.320
31073WAT      O93460   7.505   8.469   4.825
31073WAT     H193461   7.513   8.493   4.921
31073WAT     H293462   7.567   8.525   4.771
31074WAT      O93463   4.391   1.320   9.491
31074WAT     H193464   4.293   1.314   9.470
31074WAT     H293465   4.405   1.300   9.588
31075WAT      O93466   5.935   8.179   9.214
31075WAT     H193467   5.852   8.227   9.239
31075WAT     H293468   5.931   8.085   9.247
31076WAT      O93469   9.459   4.421   0.863
31076WAT     H193470   9.503   4.494   0.812
31076WAT     H293471   9.528   4.365   0.908
31077WAT      O93472   6.062   3.254   5.727
31077WAT     H193473   6.133   3.255   5.797
31077WAT     H293474   5.997   3.328   5.744
31078WAT      O93475   7.989   0.431   7.737
31078WAT     H193476   7.890   0.437   7.728
31078WAT     H293477   8.027   0.382   7.658
31079WAT      O93478   4.561   7.246   2.336
31079WAT     H193479   4.529   7.328   2.384
31079WAT     H293480   4.632   7.271   2.271
31080WAT      O93481   5.459   0.402   1.214
31080WAT     H193482   5.509   0.323   1.249
31080WAT     H293483   5.361   0.390   1.233
31081WAT      O93484   4.766   8.189   9.524
31081WAT     H193485   4.719   8.102   9.508
31081WAT     H293486   4.734   8.228   9.611
31082WAT      O93487   1.327   7.858   5.854
31082WAT     H193488   1.313   7.857   5.755
31082WAT     H293489   1.425   7.850   5.873
31083WAT      O93490   1.005   6.704   8.052
31083WAT     H193491   1.092   6.717   8.005
31083WAT     H293492   0.989   6.607   8.069
31084WAT      O93493   4.045   1.781   6.339
31084WAT     H193494   4.075   1.686   6.344
31084WAT     H293495   3.965   1.795   6.397
31085WAT      O93496   9.612   3.021   2.711
31085WAT     H193497   9.663   2.974   2.783
31085WAT     H293498   9.566   2.953   2.653
31086WAT      O93499   8.312   4.571   7.614
31086WAT     H193500   8.381   4.637   7.583
31086WAT     H293501   8.330   4.482   7.572
31087WAT      O93502   8.295   1.265   0.297
31087WAT     H193503   8.311   1.314   0.211
31087WAT     H293504   8.285   1.167   0.278
31088WAT      O93505   8.131   9.572   3.166
31088WAT     H193506   8.131   9.500   3.235
31088WAT     H293507   8.114   9.533   3.075
31089WAT      O93508   4.256   6.961   0.133
31089WAT     H193509   4.230   7.028   0.201
31089WAT     H293510   4.214   6.873   0.154
31090WAT      O93511   1.501   2.827   3.354
31090WAT     H193512   1.418   2.805   3.406
31090WAT     H293513   1.530   2.746   3.304
31091WAT      O93514   6.321   0.846   2.335
31091WAT     H193515   6.321   0.773   2.404
31091WAT     H293516   6.245   0.832   2.272
31092WAT      O93517   4.404   1.714   8.395
31092WAT     H193518   4.335   1.726   8.466
31092WAT     H293519   4.492   1.749   8.427
31093WAT      O93520   8.992   5.483   9.129
31093WAT     H193521   8.928   5.559   9.115
31093WAT     H293522   9.008   5.471   9.227
31094WAT      O93523   2.618   6.207   2.821
31094WAT     H193524   2.646   6.283   2.879
31094WAT     H293525   2.699   6.168   2.777
31095WAT      O93526   0.349   2.314   1.790
31095WAT     H193527   0.381   2.346   1.879
31095WAT     H293528   0.408   2.240   1.758
31096WAT      O93529   8.846   7.564   5.237
31096WAT     H193530   8.903   7.534   5.161
31096WAT     H293531   8.779   7.493   5.259
31097WAT      O93532   5.609   7.854   7.250
31097WAT     H193533   5.621   7.900   7.162
31097WAT     H293534   5.699   7.836   7.290
31098WAT      O93535   2.080   3.417   8.281
31098WAT     H193536   2.025   3.344   8.320
31098WAT     H293537   2.081   3.408   8.181
31099WAT      O93538   2.168   1.277   5.514
31099WAT     H193539   2.162   1.376   5.509
31099WAT     H293540   2.180   1.239   5.422
31100WAT      O93541   6.383   7.110   3.152
31100WAT     H193542   6.312   7.051   3.114
31100WAT     H293543   6.462   7.109   3.091
31101WAT      O93544   9.031   6.831   0.149
31101WAT     H193545   9.079   6.918   0.139
31101WAT     H293546   9.044   6.776   0.067
31102WAT      O93547   4.775   8.578   9.542
31102WAT     H193548   4.798   8.547   9.634
31102WAT     H293549   4.860   8.597   9.492
31103WAT      O93550   5.180   7.069   6.054
31103WAT     H193551   5.085   7.087   6.081
31103WAT     H293552   5.195   6.970   6.048
31104WAT      O93553   6.070   0.823   8.211
31104WAT     H193554   6.169   0.816   8.221
31104WAT     H293555   6.040   0.915   8.238
31105WAT      O93556   4.766   3.269   5.508
31105WAT     H193557   4.825   3.206   5.559
31105WAT     H293558   4.729   3.223   5.427
31106WAT      O93559   0.139   5.879   3.815
31106WAT     H193560   0.123   5.822   3.896
31106WAT     H293561   0.119   5.825   3.733
31107WAT      O93562   1.036   9.208   5.425
31107WAT     H193563   1.015   9.115   5.453
31107WAT     H293564   1.064   9.262   5.505
31108WAT      O93565   6.022   0.816   6.858
31108WAT     H193566   6.038   0.798   6.956
31108WAT     H293567   6.109   0.838   6.814
31109WAT      O93568   1.726   7.171   1.283
31109WAT     H193569   1.672   7.182   1.367
31109WAT     H293570   1.820   7.147   1.308
31110WAT      O93571   6.717   6.952   2.704
31110WAT     H193572   6.689   6.891   2.778
31110WAT     H293573   6.747   6.897   2.626
31111WAT      O93574   6.597   5.232   0.469
31111WAT     H193575   6.565   5.144   0.504
31111WAT     H293576   6.543   5.305   0.511
31112WAT      O93577   9.061   4.203   6.410
31112WAT     H193578   9.019   4.132   6.353
31112WAT     H293579   8.999   4.281   6.418
31113WAT      O93580   2.043   6.192   0.172
31113WAT     H193581   2.073   6.245   0.093
31113WAT     H293582   1.948   6.215   0.194
31114WAT      O93583   6.107   7.903   5.886
31114WAT     H193584   6.058   7.959   5.954
31114WAT     H293585   6.045   7.881   5.810
31115WAT      O93586   4.386   0.262   4.436
31115WAT     H193587   4.373   0.163   4.429
31115WAT     H293588   4.424   0.285   4.525
31116WAT      O93589   0.611   2.089   8.774
31116WAT     H193590   0.613   2.175   8.825
31116WAT     H293591   0.704   2.068   8.742
31117WAT      O93592   4.092   1.144   8.078
31117WAT     H193593   3.994   1.122   8.072
31117WAT     H293594   4.112   1.225   8.022
31118WAT      O93595   3.061   8.762   8.887
31118WAT     H193596   2.979   8.724   8.929
31118WAT     H293597   3.105   8.824   8.951
31119WAT      O93598   5.228   3.916   1.971
31119WAT     H193599   5.324   3.936   1.993
31119WAT     H293600   5.211   3.818   1.984
31120WAT      O93601   1.712   7.428   2.914
31120WAT     H193602   1.647   7.386   2.978
31120WAT     H293603   1.791   7.461   2.964
31121WAT      O93604   0.723   8.826   6.927
31121WAT     H193605   0.766   8.781   7.005
31121WAT     H293606   0.793   8.863   6.866
31122WAT      O93607   7.668   5.123   9.610
31122WAT     H193608   7.755   5.140   9.657
31122WAT     H293609   7.653   5.025   9.601
31123WAT      O93610   8.179   2.091   4.716
31123WAT     H193611   8.246   2.033   4.668
31123WAT     H293612   8.144   2.042   4.795
31124WAT      O93613   4.578   7.600   5.685
31124WAT     H193614   4.636   7.595   5.766
31124WAT     H293615   4.604   7.529   5.620
31125WAT      O93616   6.477   4.194   6.938
31125WAT     H193617   6.387   4.162   6.908
31125WAT     H293618   6.501   4.150   7.025
31126WAT      O93619   1.038   2.100   0.783
31126WAT     H193620   0.959   2.075   0.839
31126WAT     H293621   1.040   2.199   0.771
31127WAT      O93622   0.766   0.325   3.280
31127WAT     H193623   0.733   0.383   3.356
31127WAT     H293624   0.691   0.310   3.216
31128WAT      O93625   4.798   3.676   9.397
31128WAT     H193626   4.779   3.725   9.482
31128WAT     H293627   4.823   3.582   9.418
31129WAT      O93628   6.214   3.348   9.635
31129WAT     H193629   6.195   3.445   9.620
31129WAT     H293630   6.233   3.304   9.547
31130WAT      O93631   0.354   8.560   2.876
31130WAT     H193632   0.393   8.526   2.791
31130WAT     H293633   0.421   8.617   2.923
31131WAT      O93634   7.818   6.586   8.006
31131WAT     H193635   7.880   6.554   7.934
31131WAT     H293636   7.855   6.561   8.095
31132WAT      O93637   6.304   7.375   1.691
31132WAT     H193638   6.230   7.412   1.747
31132WAT     H293639   6.374   7.445   1.677
31133WAT      O93640   4.808   0.318   8.409
31133WAT     H193641   4.827   0.241   8.349
31133WAT     H293642   4.834   0.294   8.503
31134WAT      O93643   1.783   4.243   3.043
31134WAT     H193644   1.873   4.276   3.015
31134WAT     H293645   1.729   4.320   3.078
31135WAT      O93646   2.878   8.126   9.689
31135WAT     H193647   2.808   8.198   9.681
31135WAT     H293648   2.843   8.052   9.746
31136WAT      O93649   4.694   3.884   2.563
31136WAT     H193650   4.784   3.925   2.579
31136WAT     H293651   4.648   3.869   2.650
31137WAT      O93652   0.813   9.099   3.186
31137WAT     H193653   0.851   9.183   3.147
31137WAT     H293654   0.877   9.062   3.253
31138WAT      O93655   1.985   7.932   2.096
31138WAT     H193656   2.025   8.018   2.065
31138WAT     H293657   2.055   7.878   2.143
31139WAT      O93658   2.356   9.220   0.329
31139WAT     H193659   2.317   9.139   0.285
31139WAT     H293660   2.296   9.250   0.403
31140WAT      O93661   3.735   6.412   0.766
31140WAT     H193662   3.741   6.350   0.844
31140WAT     H293663   3.778   6.499   0.789
31141WAT      O93664   1.792   8.644   5.787
31141WAT     H193665   1.816   8.631   5.883
31141WAT     H293666   1.735   8.568   5.756
31142WAT      O93667   7.652   2.343   2.721
31142WAT     H193668   7.630   2.365   2.626
31142WAT     H293669   7.748   2.317   2.728
31143WAT      O93670   2.828   4.312   9.535
31143WAT     H193671   2.921   4.348   9.529
31143WAT     H293672   2.779   4.331   9.450
31144WAT      O93673   5.434   9.312   0.299
31144WAT     H193674   5.525   9.306   0.259
31144WAT     H293675   5.369   9.261   0.244
31145WAT      O93676   1.382   7.206   5.766
31145WAT     H193677   1.303   7.226   5.708
31145WAT     H293678   1.444   7.145   5.717
31146WAT      O93679   0.195   7.079   8.638
31146WAT     H193680   0.220   7.137   8.715
31146WAT     H293681   0.234   7.117   8.554
31147WAT      O93682   3.706   3.195   6.237
31147WAT     H193683   3.752   3.192   6.148
31147WAT     H293684   3.722   3.110   6.286
31148WAT      O93685   3.751   9.816   7.512
31148WAT     H193686   3.746   9.910   7.547
31148WAT     H293687   3.678   9.801   7.445
31149WAT      O93688   3.775   6.444   2.753
31149WAT     H193689   3.723   6.411   2.674
31149WAT     H293690   3.714   6.492   2.816
31150WAT      O93691   3.901   4.909   1.255
31150WAT     H193692   3.997   4.934   1.246
31150WAT     H293693   3.893   4.811   1.269
31151WAT      O93694   7.225   4.272   4.822
31151WAT     H193695   7.253   4.218   4.742
31151WAT     H293696   7.302   4.280   4.885
31152WAT      O93697   8.905   1.021   3.506
31152WAT     H193698   8.869   0.948   3.563
31152WAT     H293699   9.001   1.001   3.484
31153WAT      O93700   7.185   4.040   3.109
31153WAT     H193701   7.219   3.946   3.107
31153WAT     H293702   7.086   4.040   3.119
31154WAT      O93703   8.298   3.577   7.521
31154WAT     H193704   8.317   3.597   7.425
31154WAT     H293705   8.381   3.544   7.565
31155WAT      O93706   5.587   2.968   8.852
31155WAT     H193707   5.535   3.029   8.912
31155WAT     H293708   5.642   2.905   8.908
31156WAT      O93709   4.202   7.215   7.731
31156WAT     H193710   4.227   7.218   7.828
31156WAT     H293711   4.284   7.197   7.677
31157WAT      O93712   2.363   4.238   1.972
31157WAT     H193713   2.323   4.311   2.028
31157WAT     H293714   2.311   4.154   1.986
31158WAT      O93715   4.896   6.335   5.056
31158WAT     H193716   4.888   6.427   5.017
31158WAT     H293717   4.812   6.313   5.107
31159WAT      O93718   9.671   4.352   8.364
31159WAT     H193719   9.684   4.275   8.425
31159WAT     H293720   9.650   4.434   8.418
31160WAT      O93721   1.217   5.274   9.060
31160WAT     H193722   1.257   5.225   8.983
31160WAT     H293723   1.124   5.303   9.037
31161WAT      O93724   3.702   8.811   9.368
31161WAT     H193725   3.775   8.879   9.368
31161WAT     H293726   3.740   8.721   9.390
31162WAT      O93727   8.863   5.936   1.612
31162WAT     H193728   8.926   5.863   1.638
31162WAT     H293729   8.769   5.908   1.630
31163WAT      O93730   6.906   0.430   8.301
31163WAT     H193731   6.826   0.446   8.359
31163WAT     H293732   6.891   0.471   8.211
31164WAT      O93733   3.708   0.211   7.646
31164WAT     H193734   3.743   0.304   7.637
31164WAT     H293735   3.643   0.207   7.722
31165WAT      O93736   3.324   0.498   2.434
31165WAT     H193737   3.232   0.484   2.468
31165WAT     H293738   3.348   0.425   2.371
31166WAT      O93739   8.463   2.413   8.551
31166WAT     H193740   8.545   2.360   8.532
31166WAT     H293741   8.410   2.424   8.467
31167WAT      O93742   3.041   2.788   5.299
31167WAT     H193743   3.046   2.791   5.199
31167WAT     H293744   3.055   2.880   5.336
31168WAT      O93745   0.825   8.650   2.924
31168WAT     H193746   0.844   8.670   3.020
31168WAT     H293747   0.900   8.598   2.885
31169WAT      O93748   2.465   1.146   3.186
31169WAT     H193749   2.421   1.219   3.133
31169WAT     H293750   2.423   1.058   3.161
31170WAT      O93751   6.520   2.714   8.928
31170WAT     H193752   6.489   2.620   8.931
31170WAT     H293753   6.445   2.775   8.954
31171WAT      O93754   4.426   9.324   4.420
31171WAT     H193755   4.392   9.251   4.361
31171WAT     H293756   4.378   9.409   4.398
31172WAT      O93757   1.657   4.756   2.274
31172WAT     H193758   1.741   4.810   2.277
31172WAT     H293759   1.619   4.757   2.182
31173WAT      O93760   8.955   6.313   6.166
31173WAT     H193761   8.955   6.409   6.138
31173WAT     H293762   8.893   6.261   6.108
31174WAT      O93763   2.915   9.770   0.892
31174WAT     H193764   2.909   9.797   0.796
31174WAT     H293765   2.955   9.678   0.898
31175WAT      O93766   4.077   7.010   2.650
31175WAT     H193767   4.042   6.996   2.743
31175WAT     H293768   4.139   6.936   2.626
31176WAT      O93769   0.376   8.550   0.562
31176WAT     H193770   0.440   8.592   0.627
31176WAT     H293771   0.405   8.572   0.468
31177WAT      O93772   8.629   3.565   8.411
31177WAT     H193773   8.678   3.639   8.457
31177WAT     H293774   8.654   3.477   8.451
31178WAT      O93775   3.999   1.137   5.480
31178WAT     H193776   4.018   1.137   5.578
31178WAT     H293777   4.001   1.231   5.445
31179WAT      O93778   6.977   6.389   8.879
31179WAT     H193779   7.060   6.445   8.872
31179WAT     H293780   7.001   6.296   8.908
31180WAT      O93781   0.159   5.461   9.498
31180WAT     H193782   0.232   5.495   9.438
31180WAT     H293783   0.134   5.368   9.471
31181WAT      O93784   1.971   7.513   2.496
31181WAT     H193785   1.902   7.443   2.475
31181WAT     H293786   1.947   7.598   2.450
31182WAT      O93787   3.946   9.446   6.449
31182WAT     H193788   4.017   9.424   6.381
31182WAT     H293789   3.988   9.454   6.539
31183WAT      O93790   0.606   8.250   7.128
31183WAT     H193791   0.643   8.280   7.217
31183WAT     H293792   0.681   8.218   7.071
31184WAT      O93793   6.091   6.350   9.843
31184WAT     H193794   6.108   6.427   9.905
31184WAT     H293795   6.098   6.381   9.749
31185WAT      O93796   5.838   9.632   1.542
31185WAT     H193797   5.849   9.533   1.546
31185WAT     H293798   5.926   9.675   1.522
31186WAT      O93799   5.191   7.337   3.686
31186WAT     H193800   5.154   7.244   3.692
31186WAT     H293801   5.269   7.338   3.623
31187WAT      O93802   2.678   4.407   5.758
31187WAT     H193803   2.769   4.420   5.717
31187WAT     H293804   2.634   4.327   5.716
31188WAT      O93805   8.421   7.586   8.083
31188WAT     H193806   8.328   7.583   8.120
31188WAT     H293807   8.487   7.567   8.157
31189WAT      O93808   7.753   8.753   0.608
31189WAT     H193809   7.802   8.766   0.694
31189WAT     H293810   7.655   8.745   0.626
31190WAT      O93811   6.074   8.981   6.138
31190WAT     H193812   6.004   8.911   6.152
31190WAT     H293813   6.140   8.949   6.071
31191WAT      O93814   6.705   7.743   6.886
31191WAT     H193815   6.732   7.664   6.941
31191WAT     H293816   6.767   7.820   6.905
31192WAT      O93817   4.566   8.042   5.904
31192WAT     H193818   4.506   8.068   5.829
31192WAT     H293819   4.610   8.123   5.942
31193WAT      O93820   0.170   1.931   5.253
31193WAT     H193821   0.212   1.935   5.344
31193WAT     H293822   0.105   2.005   5.242
31194WAT      O93823   3.427   7.533   4.518
31194WAT     H193824   3.379   7.588   4.450
31194WAT     H293825   3.513   7.500   4.479
31195WAT      O93826   4.759   1.772   6.292
31195WAT     H193827   4.669   1.733   6.272
31195WAT     H293828   4.828   1.700   6.284
31196WAT      O93829   5.548   9.827   9.186
31196WAT     H193830   5.525   9.914   9.144
31196WAT     H293831   5.566   9.840   9.283
31197WAT      O93832   1.008   4.353   7.668
31197WAT     H193833   1.095   4.352   7.620
31197WAT     H293834   0.996   4.267   7.718
31198WAT      O93835   6.723   9.160   7.477
31198WAT     H193836   6.674   9.128   7.396
31198WAT     H293837   6.809   9.204   7.448
31199WAT      O93838   8.432   8.631   9.856
31199WAT     H193839   8.332   8.640   9.850
31199WAT     H293840   8.455   8.536   9.878
31200WAT      O93841   2.622   6.980   2.868
31200WAT     H193842   2.572   7.045   2.810
31200WAT     H293843   2.661   6.908   2.811
31201WAT      O93844   2.879   9.074   2.641
31201WAT     H193845   2.968   9.086   2.685
31201WAT     H293846   2.836   8.991   2.677
31202WAT      O93847   4.936   8.959   6.008
31202WAT     H193848   4.879   8.961   5.926
31202WAT     H293849   4.982   9.047   6.019
31203WAT      O93850   7.130   8.850   6.215
31203WAT     H193851   7.168   8.808   6.133
31203WAT     H293852   7.197   8.843   6.290
31204WAT      O93853   7.543   6.378   1.105
31204WAT     H193854   7.546   6.474   1.076
31204WAT     H293855   7.459   6.336   1.071
31205WAT      O93856   1.613   7.115   6.022
31205WAT     H193857   1.697   7.154   6.059
31205WAT     H293858   1.597   7.025   6.063
31206WAT      O93859   0.923   6.287   3.841
31206WAT     H193860   0.902   6.384   3.853
31206WAT     H293861   1.011   6.277   3.795
31207WAT      O93862   7.797   5.285   2.318
31207WAT     H193863   7.877   5.283   2.378
31207WAT     H293864   7.716   5.309   2.372
31208WAT      O93865   1.596   0.025   8.054
31208WAT     H193866   1.604   0.017   8.154
31208WAT     H293867   1.524   0.091   8.033
31209WAT      O93868   2.828   7.158   1.748
31209WAT     H193869   2.804   7.252   1.726
31209WAT     H293870   2.911   7.157   1.805
31210WAT      O93871   4.303   3.805   0.617
31210WAT     H193872   4.384   3.835   0.567
31210WAT     H293873   4.221   3.828   0.564
31211WAT      O93874   9.523   7.721   7.997
31211WAT     H193875   9.518   7.807   8.047
31211WAT     H293876   9.615   7.682   8.006
31212WAT      O93877   7.374   3.726   8.056
31212WAT     H193878   7.353   3.630   8.038
31212WAT     H293879   7.374   3.777   7.970
31213WAT      O93880   1.474   5.766   4.554
31213WAT     H193881   1.555   5.808   4.595
31213WAT     H293882   1.460   5.675   4.593
31214WAT      O93883   0.394   4.409   0.476
31214WAT     H193884   0.475   4.351   0.485
31214WAT     H293885   0.423   4.504   0.468
31215WAT      O93886   8.533   1.930   7.339
31215WAT     H193887   8.612   1.946   7.280
31215WAT     H293888   8.469   1.869   7.293
31216WAT      O93889   7.544   1.585   1.052
31216WAT     H193890   7.634   1.625   1.034
31216WAT     H293891   7.479   1.657   1.074
31217WAT      O93892   6.569   4.091   5.758
31217WAT     H193893   6.645   4.073   5.695
31217WAT     H293894   6.497   4.140   5.709
31218WAT      O93895   4.442   2.348   8.558
31218WAT     H193896   4.425   2.289   8.479
31218WAT     H293897   4.514   2.308   8.615
31219WAT      O93898   3.744   9.529   6.178
31219WAT     H193899   3.715   9.489   6.265
31219WAT     H293900   3.844   9.526   6.172
31220WAT      O93901   3.408   7.148   9.299
31220WAT     H193902   3.449   7.156   9.390
31220WAT     H293903   3.321   7.099   9.305
31221WAT      O93904   0.057   5.710   9.439
31221WAT     H193905   0.087   5.631   9.492
31221WAT     H293906   0.083   5.698   9.343
31222WAT      O93907   9.059   7.193   3.320
31222WAT     H193908   9.105   7.270   3.363
31222WAT     H293909   8.967   7.183   3.358
31223WAT      O93910   9.450   2.190   7.745
31223WAT     H193911   9.446   2.108   7.688
31223WAT     H293912   9.465   2.270   7.687
31224WAT      O93913   2.049   8.000   7.348
31224WAT     H193914   1.958   8.033   7.374
31224WAT     H293915   2.051   7.900   7.355
31225WAT      O93916   3.583   3.754   9.895
31225WAT     H193917   3.619   3.765   9.803
31225WAT     H293918   3.593   3.659   9.924
31226WAT      O93919   3.353   6.528   7.974
31226WAT     H193920   3.307   6.538   7.886
31226WAT     H293921   3.284   6.522   8.047
31227WAT      O93922   9.606   5.050   3.670
31227WAT     H193923   9.535   5.118   3.684
31227WAT     H293924   9.588   4.999   3.586
31228WAT      O93925   6.992   8.847   0.055
31228WAT     H193926   7.017   8.865   0.150
31228WAT     H293927   7.060   8.888  -0.006
31229WAT      O93928   0.837   5.772   7.296
31229WAT     H193929   0.807   5.706   7.227
31229WAT     H293930   0.778   5.853   7.292
31230WAT      O93931   0.075   7.882   0.830
31230WAT     H193932   0.004   7.869   0.762
31230WAT     H293933   0.057   7.966   0.882
31231WAT      O93934   0.770  -0.002   8.623
31231WAT     H193935   0.718   0.082   8.612
31231WAT     H293936   0.834  -0.013   8.547
31232WAT      O93937   7.051   9.033   5.373
31232WAT     H193938   7.130   9.093   5.368
31232WAT     H293939   7.011   9.038   5.464
31233WAT      O93940   6.353   6.693   8.105
31233WAT     H193941   6.370   6.747   8.187
31233WAT     H293942   6.297   6.745   8.042
31234WAT      O93943   8.336   3.358   2.483
31234WAT     H193944   8.275   3.290   2.443
31234WAT     H293945   8.298   3.391   2.569
31235WAT      O93946   9.510   1.998   7.586
31235WAT     H193947   9.504   2.062   7.509
31235WAT     H293948   9.426   1.943   7.589
31236WAT      O93949   1.528   5.552   6.259
31236WAT     H193950   1.575   5.473   6.298
31236WAT     H293951   1.552   5.561   6.162
31237WAT      O93952   7.759   1.735   1.006
31237WAT     H193953   7.726   1.707   0.916
31237WAT     H293954   7.855   1.761   1.000
31238WAT      O93955   8.739   7.996   0.207
31238WAT     H193956   8.756   8.092   0.226
31238WAT     H293957   8.809   7.940   0.251
31239WAT      O93958   9.751   3.702   1.178
31239WAT     H193959   9.797   3.640   1.242
31239WAT     H293960   9.683   3.756   1.228
31240WAT      O93961   2.107   7.907   0.077
31240WAT     H193962   2.098   7.918  -0.022
31240WAT     H293963   2.191   7.953   0.107
31241WAT      O93964   8.503   3.595   0.320
31241WAT     H193965   8.409   3.569   0.342
31241WAT     H293966   8.566   3.530   0.362
31242WAT      O93967   3.488   1.101   6.547
31242WAT     H193968   3.466   1.075   6.453
31242WAT     H293969   3.552   1.177   6.546
31243WAT      O93970   9.799   1.285   3.390
31243WAT     H193971   9.895   1.302   3.413
31243WAT     H293972   9.740   1.345   3.444
31244WAT      O93973   6.200   3.780   8.373
31244WAT     H193974   6.129   3.752   8.308
31244WAT     H293975   6.282   3.725   8.359
31245WAT      O93976   7.823   4.357   8.802
31245WAT     H193977   7.830   4.457   8.804
31245WAT     H293978   7.789   4.324   8.890
31246WAT      O93979   2.484   4.522   1.287
31246WAT     H193980   2.504   4.563   1.198
31246WAT     H293981   2.405   4.462   1.279
31247WAT      O93982   5.619   5.081   7.632
31247WAT     H193983   5.676   5.114   7.707
31247WAT     H293984   5.643   5.129   7.548
31248WAT      O93985   2.647   6.962   3.349
31248WAT     H193986   2.702   6.879   3.357
31248WAT     H293987   2.560   6.941   3.305
31249WAT      O93988   1.667   0.155   2.187
31249WAT     H193989   1.639   0.207   2.268
31249WAT     H293990   1.712   0.071   2.216
31250WAT      O93991   7.925   6.605   0.592
31250WAT     H193992   7.977   6.670   0.648
31250WAT     H293993   7.889   6.652   0.511
31251WAT      O93994   2.145   7.740   0.614
31251WAT     H193995   2.147   7.821   0.555
31251WAT     H293996   2.228   7.686   0.599
31252WAT      O93997   3.658   2.123   8.268
31252WAT     H193998   3.687   2.176   8.348
31252WAT     H293999   3.675   2.026   8.285
31253WAT      O94000   4.711   4.192   7.112
31253WAT     H194001   4.656   4.238   7.182
31253WAT     H294002   4.660   4.191   7.026
31254WAT      O94003   5.467   8.742   3.334
31254WAT     H194004   5.432   8.763   3.425
31254WAT     H294005   5.562   8.711   3.341
31255WAT      O94006   1.317   7.674   0.519
31255WAT     H194007   1.384   7.708   0.585
31255WAT     H294008   1.234   7.731   0.524
31256WAT      O94009   4.655   5.534   8.923
31256WAT     H194010   4.573   5.546   8.868
31256WAT     H294011   4.736   5.550   8.866
31257WAT      O94012   1.794   1.028   4.303
31257WAT     H194013   1.814   1.126   4.306
31257WAT     H294014   1.700   1.014   4.272
31258WAT      O94015   9.171   1.826   9.737
31258WAT     H194016   9.269   1.842   9.724
31258WAT     H294017   9.139   1.880   9.815
31259WAT      O94018   3.976   9.194   4.956
31259WAT     H194019   4.053   9.248   4.991
31259WAT     H294020   3.905   9.187   5.026
31260WAT      O94021   9.132   3.208   4.849
31260WAT     H194022   9.134   3.212   4.749
31260WAT     H294023   9.200   3.272   4.886
31261WAT      O94024   5.226   0.652   9.893
31261WAT     H194025   5.315   0.640   9.847
31261WAT     H294026   5.198   0.748   9.886
31262WAT      O94027   1.945   6.709   8.099
31262WAT     H194028   2.031   6.678   8.057
31262WAT     H294029   1.915   6.642   8.166
31263WAT      O94030   3.182   6.952   7.307
31263WAT     H194031   3.119   7.020   7.270
31263WAT     H294032   3.237   6.994   7.379
31264WAT      O94033   0.638   3.391   8.326
31264WAT     H194034   0.617   3.456   8.398
31264WAT     H294035   0.732   3.404   8.295
31265WAT      O94036   9.247   0.516   0.637
31265WAT     H194037   9.233   0.566   0.551
31265WAT     H294038   9.187   0.436   0.638
31266WAT      O94039   3.834   1.796   0.047
31266WAT     H194040   3.789   1.835  -0.034
31266WAT     H294041   3.812   1.853   0.127
31267WAT      O94042   7.162   7.862   0.134
31267WAT     H194043   7.175   7.961   0.119
31267WAT     H294044   7.223   7.831   0.206
31268WAT      O94045   7.364   6.644   1.545
31268WAT     H194046   7.376   6.620   1.641
31268WAT     H294047   7.408   6.574   1.487
31269WAT      O94048   1.870   0.523   0.372
31269WAT     H194049   1.806   0.576   0.428
31269WAT     H294050   1.961   0.528   0.412
31270WAT      O94051   1.752   3.680   8.620
31270WAT     H194052   1.746   3.602   8.559
31270WAT     H294053   1.795   3.652   8.706
31271WAT      O94054   6.285   8.678   9.251
31271WAT     H194055   6.337   8.625   9.317
31271WAT     H294056   6.332   8.764   9.232
31272WAT      O94057   9.421   0.804   8.644
31272WAT     H194058   9.349   0.846   8.699
31272WAT     H294059   9.382   0.768   8.560
31273WAT      O94060   6.454   9.269   7.068
31273WAT     H194061   6.372   9.217   7.091
31273WAT     H294062   6.469   9.267   6.969
31274WAT      O94063   6.711   7.299   0.316
31274WAT     H194064   6.740   7.208   0.284
31274WAT     H294065   6.668   7.349   0.241
31275WAT      O94066   0.422   1.654   5.089
31275WAT     H194067   0.477   1.727   5.048
31275WAT     H294068   0.326   1.681   5.087
31276WAT      O94069   2.595   4.653   7.107
31276WAT     H194070   2.688   4.652   7.068
31276WAT     H294071   2.590   4.722   7.178
31277WAT      O94072   3.871   9.096   1.043
31277WAT     H194073   3.810   9.166   1.007
31277WAT     H294074   3.956   9.139   1.074
31278WAT      O94075   5.968   2.994   2.062
31278WAT     H194076   5.983   2.895   2.069
31278WAT     H294077   6.018   3.041   2.133
31279WAT      O94078   4.883   7.870   2.511
31279WAT     H194079   4.916   7.961   2.486
31279WAT     H294080   4.786   7.862   2.489
31280WAT      O94081   6.062   1.205   1.957
31280WAT     H194082   6.140   1.142   1.952
31280WAT     H294083   5.983   1.158   1.995
31281WAT      O94084   6.373   5.777   4.088
31281WAT     H194085   6.305   5.749   4.156
31281WAT     H294086   6.409   5.867   4.112
31282WAT      O94087   6.600   9.416   2.366
31282WAT     H194088   6.577   9.353   2.440
31282WAT     H294089   6.537   9.403   2.290
31283WAT      O94090   1.881   7.782   4.603
31283WAT     H194091   1.833   7.832   4.676
31283WAT     H294092   1.932   7.847   4.547
31284WAT      O94093   2.733   6.824   9.487
31284WAT     H194094   2.780   6.758   9.546
31284WAT     H294095   2.796   6.855   9.416
31285WAT      O94096   7.859   1.011   4.747
31285WAT     H194097   7.776   0.961   4.724
31285WAT     H294098   7.873   1.009   4.846
31286WAT      O94099   5.894   8.671   9.430
31286WAT     H194100   5.798   8.664   9.405
31286WAT     H294101   5.947   8.705   9.352
31287WAT      O94102   2.803   2.379   1.171
31287WAT     H194103   2.749   2.303   1.134
31287WAT     H294104   2.882   2.343   1.220
31288WAT      O94105   8.667   8.882   0.668
31288WAT     H194106   8.609   8.956   0.635
31288WAT     H294107   8.658   8.874   0.767
31289WAT      O94108   4.376   3.286   5.770
31289WAT     H194109   4.357   3.197   5.730
31289WAT     H294110   4.335   3.358   5.713
31290WAT      O94111   5.102   6.762   1.902
31290WAT     H194112   5.150   6.840   1.944
31290WAT     H294113   5.161   6.719   1.834
31291WAT      O94114   4.294   3.477   8.410
31291WAT     H194115   4.211   3.498   8.461
31291WAT     H294116   4.285   3.386   8.368
31292WAT      O94117   9.005   5.242   5.488
31292WAT     H194118   8.965   5.291   5.566
31292WAT     H294119   9.019   5.305   5.412
31293WAT      O94120   5.649   6.379   0.993
31293WAT     H194121   5.704   6.398   0.912
31293WAT     H294122   5.649   6.460   1.053
31294WAT      O94123   1.172   4.606   3.775
31294WAT     H194124   1.188   4.699   3.743
31294WAT     H294125   1.099   4.564   3.720
31295WAT      O94126   1.874   7.299   0.369
31295WAT     H194127   1.972   7.318   0.365
31295WAT     H294128   1.856   7.205   0.342
31296WAT      O94129   7.470   4.240   9.409
31296WAT     H194130   7.440   4.157   9.362
31296WAT     H294131   7.569   4.235   9.424
31297WAT      O94132   0.441   2.528   2.796
31297WAT     H194133   0.422   2.546   2.700
31297WAT     H294134   0.496   2.603   2.834
31298WAT      O94135   4.705   8.404   5.031
31298WAT     H194136   4.792   8.450   5.049
31298WAT     H294137   4.630   8.463   5.059
31299WAT      O94138   4.627   7.793   1.913
31299WAT     H194139   4.660   7.842   1.832
31299WAT     H294140   4.702   7.781   1.978
31300WAT      O94141   7.120   3.787   8.440
31300WAT     H194142   7.072   3.777   8.528
31300WAT     H294143   7.213   3.821   8.457
31301WAT      O94144   0.487   8.881   6.850
31301WAT     H194145   0.579   8.856   6.880
31301WAT     H294146   0.431   8.798   6.841
31302WAT      O94147   8.781   0.515   4.069
31302WAT     H194148   8.829   0.602   4.059
31302WAT     H294149   8.698   0.528   4.123
31303WAT      O94150   5.604   6.729   8.782
31303WAT     H194151   5.517   6.775   8.800
31303WAT     H294152   5.588   6.630   8.775
31304WAT      O94153   5.783   7.565   9.471
31304WAT     H194154   5.735   7.478   9.483
31304WAT     H294155   5.720   7.641   9.487
31305WAT      O94156   5.205   1.991   5.588
31305WAT     H194157   5.154   1.906   5.574
31305WAT     H294158   5.144   2.069   5.574
31306WAT      O94159   7.597   9.437   0.936
31306WAT     H194160   7.531   9.430   0.861
31306WAT     H294161   7.624   9.532   0.949
31307WAT      O94162   7.773   2.610   6.116
31307WAT     H194163   7.858   2.559   6.124
31307WAT     H294164   7.708   2.581   6.186
31308WAT      O94165   4.139   3.313   1.188
31308WAT     H194166   4.239   3.315   1.177
31308WAT     H294167   4.105   3.406   1.201
31309WAT      O94168   3.093   5.800   8.612
31309WAT     H194169   3.017   5.772   8.670
31309WAT     H294170   3.062   5.805   8.517
31310WAT      O94171   6.031   0.279   7.620
31310WAT     H194172   6.073   0.195   7.584
31310WAT     H294173   6.040   0.352   7.553
31311WAT      O94174   2.328   0.288   0.301
31311WAT     H194175   2.354   0.384   0.309
31311WAT     H294176   2.400   0.237   0.253
31312WAT      O94177   2.044   8.135   6.220
31312WAT     H194178   2.021   8.130   6.318
31312WAT     H294179   2.048   8.231   6.192
31313WAT      O94180   7.565   2.005   6.738
31313WAT     H194181   7.658   2.028   6.710
31313WAT     H294182   7.503   2.077   6.707
31314WAT      O94183   0.806   8.528   0.699
31314WAT     H194184   0.823   8.573   0.611
31314WAT     H294185   0.800   8.429   0.684
31315WAT      O94186   4.396   4.449   8.980
31315WAT     H194187   4.488   4.457   9.019
31315WAT     H294188   4.394   4.496   8.892
31316WAT      O94189   3.284   2.151   6.693
31316WAT     H194190   3.204   2.096   6.666
31316WAT     H294191   3.322   2.196   6.612
31317WAT      O94192   2.795   6.165   8.245
31317WAT     H194193   2.869   6.163   8.312
31317WAT     H294194   2.712   6.126   8.285
31318WAT      O94195   9.164   0.386   4.980
31318WAT     H194196   9.090   0.360   5.042
31318WAT     H294197   9.151   0.482   4.952
31319WAT      O94198   7.371   3.213   8.965
31319WAT     H194199   7.414   3.303   8.971
31319WAT     H294200   7.282   3.222   8.920
31320WAT      O94201   9.292   3.481   1.953
31320WAT     H194202   9.272   3.463   1.856
31320WAT     H294203   9.323   3.575   1.964
31321WAT      O94204   4.569   7.404   0.172
31321WAT     H194205   4.587   7.494   0.210
31321WAT     H294206   4.647   7.374   0.118
31322WAT      O94207   8.525   0.246   3.378
31322WAT     H194208   8.448   0.309   3.365
31322WAT     H294209   8.579   0.242   3.294
31323WAT      O94210   1.525   2.382   6.575
31323WAT     H194211   1.538   2.292   6.535
31323WAT     H294212   1.530   2.452   6.503
31324WAT      O94213   9.326   7.791   7.210
31324WAT     H194214   9.257   7.849   7.253
31324WAT     H294215   9.301   7.775   7.114
31325WAT      O94216   5.217   9.168   2.810
31325WAT     H194217   5.131   9.162   2.759
31325WAT     H294218   5.242   9.077   2.843
31326WAT      O94219   1.435   9.128   2.987
31326WAT     H194220   1.336   9.135   3.004
31326WAT     H294221   1.450   9.073   2.905
31327WAT      O94222   3.610   4.017   4.823
31327WAT     H194223   3.629   3.954   4.747
31327WAT     H294224   3.634   4.110   4.795
31328WAT      O94225   5.263   5.054   6.133
31328WAT     H194226   5.338   5.027   6.073
31328WAT     H294227   5.298   5.117   6.203
31329WAT      O94228   1.300   0.125   1.533
31329WAT     H194229   1.230   0.170   1.477
31329WAT     H294230   1.389   0.135   1.489
31330WAT      O94231   9.048   5.476   0.707
31330WAT     H194232   9.130   5.446   0.754
31330WAT     H294233   9.073   5.525   0.624
31331WAT      O94234   2.080   6.469   3.350
31331WAT     H194235   2.022   6.503   3.276
31331WAT     H294236   2.116   6.379   3.326
31332WAT      O94237   1.914   0.158   8.719
31332WAT     H194238   1.955   0.068   8.731
31332WAT     H294239   1.903   0.201   8.809
31333WAT      O94240   1.080   1.669   3.458
31333WAT     H194241   1.091   1.736   3.532
31333WAT     H294242   1.145   1.690   3.385
31334WAT      O94243   6.365   2.803   6.237
31334WAT     H194244   6.372   2.706   6.258
31334WAT     H294245   6.454   2.847   6.251
31335WAT      O94246   9.491   7.481   2.616
31335WAT     H194247   9.573   7.425   2.609
31335WAT     H294248   9.496   7.538   2.699
31336WAT      O94249   1.716   1.274   8.307
31336WAT     H194250   1.618   1.292   8.296
31336WAT     H294251   1.729   1.212   8.385
31337WAT      O94252   1.778   4.472   4.064
31337WAT     H194253   1.731   4.560   4.068
31337WAT     H294254   1.793   4.438   4.157
31338WAT      O94255   0.079   4.280   0.901
31338WAT     H194256   0.124   4.192   0.919
31338WAT     H294257   0.102   4.311   0.809
31339WAT      O94258   0.878   5.356   3.055
31339WAT     H194259   0.781   5.343   3.076
31339WAT     H294260   0.891   5.446   3.012
31340WAT      O94261   8.117   7.008   6.714
31340WAT     H194262   8.042   7.030   6.776
31340WAT     H294263   8.204   7.037   6.754
31341WAT      O94264   2.774   7.870   9.832
31341WAT     H194265   2.722   7.799   9.785
31341WAT     H294266   2.728   7.896   9.917
31342WAT      O94267   1.961   6.929   7.684
31342WAT     H194268   1.882   6.971   7.638
31342WAT     H294269   2.016   7.000   7.727
31343WAT      O94270   0.941   4.984   4.093
31343WAT     H194271   0.959   5.044   4.171
31343WAT     H294272   1.009   5.000   4.022
31344WAT      O94273   5.933   5.402   8.034
31344WAT     H194274   5.941   5.388   7.935
31344WAT     H294275   6.004   5.349   8.081
31345WAT      O94276   2.705   7.127   9.346
31345WAT     H194277   2.789   7.177   9.325
31345WAT     H294278   2.719   7.030   9.330
31346WAT      O94279   6.014   3.779   8.145
31346WAT     H194280   5.994   3.828   8.060
31346WAT     H294281   5.928   3.753   8.189
31347WAT      O94282   5.803   4.302   4.751
31347WAT     H194283   5.774   4.381   4.696
31347WAT     H294284   5.876   4.254   4.702
31348WAT      O94285   6.781   3.358   2.377
31348WAT     H194286   6.861   3.417   2.384
31348WAT     H294287   6.787   3.285   2.445
31349WAT      O94288   3.049   4.113   9.873
31349WAT     H194289   3.097   4.177   9.933
31349WAT     H294290   3.114   4.074   9.808
31350WAT      O94291   0.439   3.763   2.967
31350WAT     H194292   0.423   3.781   2.870
31350WAT     H294293   0.530   3.794   2.992
31351WAT      O94294   1.476   3.947   7.670
31351WAT     H194295   1.434   3.857   7.682
31351WAT     H294296   1.512   3.955   7.577
31352WAT      O94297   8.180   2.878   6.422
31352WAT     H194298   8.139   2.788   6.409
31352WAT     H294299   8.186   2.925   6.334
31353WAT      O94300   9.062   9.369   2.576
31353WAT     H194301   9.154   9.357   2.538
31353WAT     H294302   9.014   9.282   2.575
31354WAT      O94303   3.991   1.417   1.474
31354WAT     H194304   3.979   1.381   1.381
31354WAT     H294305   3.916   1.479   1.496
31355WAT      O94306   5.399   4.763   3.722
31355WAT     H194307   5.320   4.773   3.662
31355WAT     H294308   5.367   4.749   3.816
31356WAT      O94309   5.870   4.894   8.976
31356WAT     H194310   5.793   4.899   9.039
31356WAT     H294311   5.938   4.963   9.003
31357WAT      O94312   3.673   5.058   1.642
31357WAT     H194313   3.654   5.156   1.645
31357WAT     H294314   3.763   5.042   1.602
31358WAT      O94315   4.470   7.564   3.715
31358WAT     H194316   4.475   7.641   3.651
31358WAT     H294317   4.529   7.581   3.794
31359WAT      O94318   4.057   0.707   7.694
31359WAT     H194319   3.987   0.712   7.624
31359WAT     H294320   4.014   0.691   7.783
31360WAT      O94321   2.707   7.997   2.051
31360WAT     H194322   2.803   8.013   2.073
31360WAT     H294323   2.687   7.899   2.057
31361WAT      O94324   9.313   1.971   0.665
31361WAT     H194325   9.316   1.875   0.696
31361WAT     H294326   9.337   2.031   0.741
31362WAT      O94327   7.341   9.347   7.905
31362WAT     H194328   7.299   9.321   7.992
31362WAT     H294329   7.436   9.374   7.921
31363WAT      O94330   3.097   0.900   2.451
31363WAT     H194331   3.175   0.841   2.431
31363WAT     H294332   3.096   0.977   2.387
31364WAT      O94333   2.549   6.149   7.373
31364WAT     H194334   2.476   6.178   7.312
31364WAT     H294335   2.510   6.123   7.462
31365WAT      O94336   4.519   7.063   4.812
31365WAT     H194337   4.447   7.096   4.751
31365WAT     H294338   4.527   7.125   4.890
31366WAT      O94339   4.468   0.085   3.200
31366WAT     H194340   4.465  -0.013   3.222
31366WAT     H294341   4.415   0.136   3.267
31367WAT      O94342   1.165   6.329   0.645
31367WAT     H194343   1.136   6.387   0.569
31367WAT     H294344   1.095   6.332   0.717
31368WAT      O94345   4.796   5.432   0.979
31368WAT     H194346   4.879   5.486   0.971
31368WAT     H294347   4.813   5.340   0.944
31369WAT      O94348   9.210   2.779   9.810
31369WAT     H194349   9.236   2.704   9.872
31369WAT     H294350   9.127   2.822   9.844
31370WAT      O94351   4.038   4.745   3.388
31370WAT     H194352   4.082   4.742   3.298
31370WAT     H294353   3.948   4.788   3.380
31371WAT      O94354   9.551   4.996   0.766
31371WAT     H194355   9.626   5.061   0.774
31371WAT     H294356   9.490   5.024   0.692
31372WAT      O94357   1.460   7.462   9.154
31372WAT     H194358   1.558   7.447   9.138
31372WAT     H294359   1.417   7.496   9.071
31373WAT      O94360   0.501   7.259   8.805
31373WAT     H194361   0.566   7.311   8.861
31373WAT     H294362   0.511   7.285   8.709
31374WAT      O94363   4.787   0.241   1.415
31374WAT     H194364   4.778   0.171   1.344
31374WAT     H294365   4.724   0.220   1.490
31375WAT      O94366   1.260   0.466   6.373
31375WAT     H194367   1.315   0.511   6.303
31375WAT     H294368   1.189   0.411   6.329
31376WAT      O94369   3.173   8.319   0.758
31376WAT     H194370   3.186   8.265   0.675
31376WAT     H294371   3.076   8.315   0.785
31377WAT      O94372   2.465   6.769   7.068
31377WAT     H194373   2.516   6.855   7.072
31377WAT     H294374   2.485   6.723   6.981
31378WAT      O94375   7.461   4.671   5.633
31378WAT     H194376   7.475   4.632   5.542
31378WAT     H294377   7.419   4.761   5.625
31379WAT      O94378   7.642   2.525   0.531
31379WAT     H194379   7.702   2.468   0.588
31379WAT     H294380   7.551   2.529   0.572
31380WAT      O94381   2.946   9.010   2.350
31380WAT     H194382   3.038   9.019   2.386
31380WAT     H294383   2.881   9.056   2.411
31381WAT      O94384   8.541   7.224   4.907
31381WAT     H194385   8.495   7.306   4.939
31381WAT     H294386   8.640   7.238   4.912
31382WAT      O94387   8.777   0.762   7.943
31382WAT     H194388   8.707   0.765   8.014
31382WAT     H294389   8.734   0.769   7.853
31383WAT      O94390   7.660   2.780   6.831
31383WAT     H194391   7.685   2.707   6.895
31383WAT     H294392   7.580   2.829   6.866
31384WAT      O94393   7.592   9.348   7.934
31384WAT     H194394   7.667   9.397   7.889
31384WAT     H294395   7.618   9.252   7.947
31385WAT      O94396   9.645   4.311   7.703
31385WAT     H194397   9.564   4.367   7.684
31385WAT     H294398   9.673   4.323   7.798
31386WAT      O94399   0.363   1.592   6.547
31386WAT     H194400   0.332   1.672   6.598
31386WAT     H294401   0.441   1.617   6.489
31387WAT      O94402   0.180   8.948   0.509
31387WAT     H194403   0.203   8.877   0.575
31387WAT     H294404   0.229   9.032   0.532
31388WAT      O94405   0.245   1.111   2.617
31388WAT     H194406   0.231   1.208   2.636
31388WAT     H294407   0.274   1.100   2.522
31389WAT      O94408   6.775   1.923   8.655
31389WAT     H194409   6.688   1.874   8.661
31389WAT     H294410   6.768   2.012   8.700
31390WAT      O94411   1.505   0.952   0.898
31390WAT     H194412   1.423   1.007   0.915
31390WAT     H294413   1.580   1.012   0.871
31391WAT      O94414   3.931   1.395   7.570
31391WAT     H194415   4.003   1.464   7.566
31391WAT     H294416   3.969   1.311   7.610
31392WAT      O94417   4.640   0.220   0.217
31392WAT     H194418   4.583   0.138   0.225
31392WAT     H294419   4.683   0.239   0.306
31393WAT      O94420   0.421   0.002   2.430
31393WAT     H194421   0.487   0.014   2.504
31393WAT     H294422   0.331   0.035   2.460
31394WAT      O94423   8.930   1.130   1.683
31394WAT     H194424   8.990   1.085   1.617
31394WAT     H294425   8.836   1.126   1.651
31395WAT      O94426   6.530   8.111   4.707
31395WAT     H194427   6.552   8.063   4.622
31395WAT     H294428   6.525   8.209   4.691
31396WAT      O94429   6.740   6.647   3.691
31396WAT     H194430   6.691   6.713   3.748
31396WAT     H294431   6.774   6.694   3.609
31397WAT      O94432   3.903   4.745   2.361
31397WAT     H194433   3.939   4.662   2.319
31397WAT     H294434   3.824   4.723   2.417
31398WAT      O94435   2.008   7.054   4.129
31398WAT     H194436   1.984   7.127   4.064
31398WAT     H294437   2.092   7.080   4.177
31399WAT      O94438   3.127   7.282   5.900
31399WAT     H194439   3.198   7.312   5.837
31399WAT     H294440   3.081   7.361   5.940
31400WAT      O94441   0.285   1.017   9.503
31400WAT     H194442   0.310   0.954   9.576
31400WAT     H294443   0.298   0.972   9.415
31401WAT      O94444   1.969   8.362   2.813
31401WAT     H194445   1.902   8.361   2.888
31401WAT     H294446   2.050   8.412   2.843
31402WAT      O94447   0.955   3.175   0.921
31402WAT     H194448   0.951   3.213   1.013
31402WAT     H294449   0.940   3.249   0.854
31403WAT      O94450   3.658   0.585   7.272
31403WAT     H194451   3.740   0.544   7.313
31403WAT     H294452   3.589   0.597   7.344
31404WAT      O94453   8.141   3.103   4.558
31404WAT     H194454   8.137   3.005   4.578
31404WAT     H294455   8.164   3.117   4.462
31405WAT      O94456   8.275   7.299   8.025
31405WAT     H194457   8.250   7.377   8.083
31405WAT     H294458   8.194   7.245   8.004
31406WAT      O94459   3.675   2.039   2.274
31406WAT     H194460   3.588   2.065   2.316
31406WAT     H294461   3.685   1.940   2.278
31407WAT      O94462   6.639   6.836   2.946
31407WAT     H194463   6.547   6.875   2.939
31407WAT     H294464   6.643   6.773   3.023
31408WAT      O94465   7.483   1.310   6.893
31408WAT     H194466   7.426   1.273   6.819
31408WAT     H294467   7.428   1.315   6.977
31409WAT      O94468   3.950   6.140   7.426
31409WAT     H194469   4.026   6.083   7.397
31409WAT     H294470   3.872   6.082   7.449
31410WAT      O94471   1.148   7.725   7.636
31410WAT     H194472   1.164   7.638   7.684
31410WAT     H294473   1.054   7.755   7.652
31411WAT      O94474   0.736   1.210   8.592
31411WAT     H194475   0.737   1.111   8.584
31411WAT     H294476   0.662   1.248   8.535
31412WAT      O94477   1.150   7.261   5.634
31412WAT     H194478   1.078   7.327   5.652
31412WAT     H294479   1.141   7.225   5.542
31413WAT      O94480   0.817   7.303   2.249
31413WAT     H194481   0.873   7.385   2.236
31413WAT     H294482   0.727   7.317   2.207
31414WAT      O94483   1.569   1.527   2.416
31414WAT     H194484   1.622   1.478   2.485
31414WAT     H294485   1.472   1.522   2.439
31415WAT      O94486   2.640   1.370   4.632
31415WAT     H194487   2.641   1.371   4.732
31415WAT     H294488   2.614   1.461   4.598
31416WAT      O94489   0.801   4.224   5.189
31416WAT     H194490   0.748   4.179   5.261
31416WAT     H294491   0.895   4.238   5.220
31417WAT      O94492   0.514   1.557   1.438
31417WAT     H194493   0.537   1.482   1.501
31417WAT     H294494   0.483   1.519   1.351
31418WAT      O94495   2.597   9.580   5.346
31418WAT     H194496   2.559   9.557   5.435
31418WAT     H294497   2.675   9.642   5.357
31419WAT      O94498   6.602   7.859   1.158
31419WAT     H194499   6.682   7.863   1.097
31419WAT     H294500   6.633   7.847   1.253
31420WAT      O94501   8.545   1.679   3.299
31420WAT     H194502   8.607   1.750   3.334
31420WAT     H294503   8.593   1.591   3.298
31421WAT      O94504   1.921   7.618   8.498
31421WAT     H194505   1.851   7.583   8.437
31421WAT     H294506   1.964   7.541   8.547
31422WAT      O94507   3.749   2.664   8.458
31422WAT     H194508   3.739   2.583   8.516
31422WAT     H294509   3.833   2.712   8.483
31423WAT      O94510   9.443   7.788   6.465
31423WAT     H194511   9.392   7.729   6.528
31423WAT     H294512   9.464   7.736   6.381
31424WAT      O94513   7.185   0.112   2.295
31424WAT     H194514   7.278   0.080   2.313
31424WAT     H294515   7.125   0.034   2.284
31425WAT      O94516   8.675   8.945   7.997
31425WAT     H194517   8.756   8.963   8.053
31425WAT     H294518   8.703   8.932   7.902
31426WAT      O94519   6.667   7.533   1.764
31426WAT     H194520   6.655   7.484   1.678
31426WAT     H294521   6.646   7.471   1.840
31427WAT      O94522   8.803   9.841   8.154
31427WAT     H194523   8.710   9.856   8.120
31427WAT     H294524   8.836   9.751   8.123
31428WAT      O94525   3.597   4.817   7.494
31428WAT     H194526   3.675   4.853   7.545
31428WAT     H294527   3.515   4.868   7.518
31429WAT      O94528   7.422   2.885   6.908
31429WAT     H194529   7.455   2.950   6.976
31429WAT     H294530   7.340   2.922   6.863
31430WAT      O94531   0.669   1.078   7.831
31430WAT     H194532   0.606   1.108   7.903
31430WAT     H294533   0.620   1.021   7.765
31431WAT      O94534   3.783   7.063   7.611
31431WAT     H194535   3.815   6.970   7.630
31431WAT     H294536   3.687   7.061   7.585
31432WAT      O94537   8.888   4.584   0.072
31432WAT     H194538   8.959   4.654   0.069
31432WAT     H294539   8.821   4.607   0.142
31433WAT      O94540   3.705   5.200   5.151
31433WAT     H194541   3.749   5.234   5.068
31433WAT     H294542   3.609   5.229   5.152
31434WAT      O94543   7.821   3.118   7.584
31434WAT     H194544   7.902   3.176   7.587
31434WAT     H294545   7.762   3.137   7.663
31435WAT      O94546   1.013   0.298   3.467
31435WAT     H194547   0.997   0.375   3.528
31435WAT     H294548   0.933   0.238   3.467
31436WAT      O94549   3.571   5.191   3.247
31436WAT     H194550   3.655   5.240   3.224
31436WAT     H294551   3.510   5.189   3.168
31437WAT      O94552   2.946   6.384   9.254
31437WAT     H194553   2.933   6.442   9.173
31437WAT     H294554   2.857   6.365   9.295
31438WAT      O94555   3.621   3.855   1.189
31438WAT     H194556   3.701   3.879   1.245
31438WAT     H294557   3.581   3.939   1.151
31439WAT      O94558   8.598   0.150   3.045
31439WAT     H194559   8.520   0.212   3.054
31439WAT     H294560   8.656   0.179   2.968
31440WAT      O94561   8.332   5.194   8.547
31440WAT     H194562   8.294   5.276   8.503
31440WAT     H294563   8.379   5.138   8.478
31441WAT      O94564   1.085   1.850   7.624
31441WAT     H194565   1.000   1.800   7.612
31441WAT     H294566   1.114   1.845   7.720
31442WAT      O94567   8.061   2.158   6.581
31442WAT     H194568   7.981   2.199   6.625
31442WAT     H294569   8.144   2.198   6.620
31443WAT      O94570   3.412   3.333   7.337
31443WAT     H194571   3.503   3.372   7.322
31443WAT     H294572   3.410   3.287   7.425
31444WAT      O94573   0.685   7.302   5.637
31444WAT     H194574   0.730   7.369   5.578
31444WAT     H294575   0.598   7.275   5.597
31445WAT      O94576   1.326   3.856   6.455
31445WAT     H194577   1.257   3.865   6.528
31445WAT     H294578   1.358   3.761   6.453
31446WAT      O94579   1.085   0.163   2.610
31446WAT     H194580   1.155   0.214   2.661
31446WAT     H294581   1.018   0.126   2.674
31447WAT      O94582   3.703   6.436   8.516
31447WAT     H194583   3.800   6.438   8.492
31447WAT     H294584   3.656   6.366   8.461
31448WAT      O94585   8.805   1.224   2.176
31448WAT     H194586   8.827   1.258   2.084
31448WAT     H294587   8.706   1.217   2.186
31449WAT      O94588   5.147   0.244   7.729
31449WAT     H194589   5.175   0.335   7.758
31449WAT     H294590   5.216   0.205   7.668
31450WAT      O94591   4.999   5.949   2.799
31450WAT     H194592   5.076   5.934   2.738
31450WAT     H294593   5.001   5.881   2.873
31451WAT      O94594   0.726   2.720   8.468
31451WAT     H194595   0.664   2.685   8.398
31451WAT     H294596   0.773   2.801   8.433
31452WAT      O94597   5.379   8.705   1.681
31452WAT     H194598   5.314   8.712   1.756
31452WAT     H294599   5.413   8.796   1.657
31453WAT      O94600   3.034   8.586   7.152
31453WAT     H194601   3.028   8.684   7.172
31453WAT     H294602   3.074   8.573   7.062
31454WAT      O94603   7.626   3.598   0.394
31454WAT     H194604   7.536   3.563   0.421
31454WAT     H294605   7.616   3.654   0.312
31455WAT      O94606   0.554   2.767   6.505
31455WAT     H194607   0.470   2.750   6.557
31455WAT     H294608   0.536   2.838   6.437
31456WAT      O94609   6.507   8.641   0.188
31456WAT     H194610   6.584   8.698   0.162
31456WAT     H294611   6.463   8.680   0.270
31457WAT      O94612   6.400   9.661   0.640
31457WAT     H194613   6.422   9.757   0.653
31457WAT     H294614   6.342   9.629   0.714
31458WAT      O94615   0.526   1.582   9.666
31458WAT     H194616   0.427   1.571   9.667
31458WAT     H294617   0.566   1.535   9.745
31459WAT      O94618   6.097   8.421   0.605
31459WAT     H194619   6.155   8.353   0.561
31459WAT     H294620   6.105   8.413   0.704
31460WAT      O94621   2.724   7.175   0.275
31460WAT     H194622   2.804   7.232   0.289
31460WAT     H294623   2.641   7.228   0.291
31461WAT      O94624   2.010   3.050   9.460
31461WAT     H194625   1.951   3.129   9.475
31461WAT     H294626   2.063   3.032   9.543
31462WAT      O94627   7.345   2.950   3.088
31462WAT     H194628   7.254   2.950   3.047
31462WAT     H294629   7.389   2.862   3.071
31463WAT      O94630   8.159   8.768   4.447
31463WAT     H194631   8.211   8.686   4.472
31463WAT     H294632   8.138   8.765   4.350
31464WAT      O94633   8.440   4.904   9.246
31464WAT     H194634   8.352   4.891   9.202
31464WAT     H294635   8.438   4.863   9.337
31465WAT      O94636   0.249   1.895   6.015
31465WAT     H194637   0.280   1.885   6.110
31465WAT     H294638   0.169   1.955   6.013
31466WAT      O94639   8.010   0.103   7.833
31466WAT     H194640   8.095   0.151   7.855
31466WAT     H294641   7.990   0.036   7.905
31467WAT      O94642   3.966   4.768   4.435
31467WAT     H194643   4.025   4.809   4.366
31467WAT     H294644   3.886   4.727   4.391
31468WAT      O94645   6.081   5.435   7.391
31468WAT     H194646   6.154   5.468   7.332
31468WAT     H294647   6.042   5.352   7.352
31469WAT      O94648   4.557   5.146   9.285
31469WAT     H194649   4.619   5.069   9.303
31469WAT     H294650   4.482   5.115   9.227
31470WAT      O94651   2.554   2.084   8.063
31470WAT     H194652   2.558   2.169   8.011
31470WAT     H294653   2.462   2.071   8.100
31471WAT      O94654   6.296   3.079   8.997
31471WAT     H194655   6.293   3.178   9.006
31471WAT     H294656   6.387   3.046   9.020
31472WAT      O94657   3.408   5.113   2.258
31472WAT     H194658   3.442   5.194   2.211
31472WAT     H294659   3.462   5.034   2.232
31473WAT      O94660   2.015   2.444   0.671
31473WAT     H194661   1.960   2.525   0.691
31473WAT     H294662   2.105   2.454   0.712
31474WAT      O94663   6.006   4.035   8.300
31474WAT     H194664   6.082   4.077   8.251
31474WAT     H294665   5.995   3.940   8.270
31475WAT      O94666   5.567   6.865   0.270
31475WAT     H194667   5.535   6.812   0.349
31475WAT     H294668   5.588   6.959   0.299
31476WAT      O94669   2.812   1.240   7.879
31476WAT     H194670   2.728   1.281   7.916
31476WAT     H294671   2.871   1.213   7.955
31477WAT      O94672   2.862   7.758   8.327
31477WAT     H194673   2.772   7.724   8.301
31477WAT     H294674   2.918   7.682   8.360
31478WAT      O94675   1.940   2.916   2.118
31478WAT     H194676   1.972   2.941   2.210
31478WAT     H294677   2.004   2.851   2.077
31479WAT      O94678   4.357   2.928   1.131
31479WAT     H194679   4.431   2.993   1.150
31479WAT     H294680   4.277   2.978   1.098
31480WAT      O94681   0.192   3.885   8.434
31480WAT     H194682   0.238   3.940   8.504
31480WAT     H294683   0.247   3.804   8.414
31481WAT      O94684   7.557   1.169   5.020
31481WAT     H194685   7.597   1.223   5.094
31481WAT     H294686   7.485   1.222   4.976
31482WAT      O94687   9.390   5.269   3.766
31482WAT     H194688   9.365   5.348   3.710
31482WAT     H294689   9.310   5.209   3.776
31483WAT      O94690   4.497   3.714   3.579
31483WAT     H194691   4.485   3.617   3.601
31483WAT     H294692   4.536   3.722   3.488
31484WAT      O94693   6.915   3.765   6.192
31484WAT     H194694   6.913   3.727   6.284
31484WAT     H294695   6.957   3.856   6.195
31485WAT      O94696   6.432   0.140   7.985
31485WAT     H194697   6.339   0.138   7.948
31485WAT     H294698   6.496   0.170   7.914
31486WAT      O94699   6.047   7.581   7.232
31486WAT     H194700   6.017   7.675   7.212
31486WAT     H294701   6.010   7.551   7.319
31487WAT      O94702   3.070   0.956   5.560
31487WAT     H194703   2.988   0.914   5.598
31487WAT     H294704   3.127   0.991   5.634
31488WAT      O94705   6.425   7.168   3.776
31488WAT     H194706   6.416   7.070   3.758
31488WAT     H294707   6.505   7.203   3.728
31489WAT      O94708   2.907   0.925   7.201
31489WAT     H194709   2.985   0.888   7.252
31489WAT     H294710   2.826   0.926   7.261
31490WAT      O94711   6.361   9.815   8.186
31490WAT     H194712   6.429   9.742   8.192
31490WAT     H294713   6.387   9.880   8.115
31491WAT      O94714   4.510   6.507   5.156
31491WAT     H194715   4.545   6.592   5.115
31491WAT     H294716   4.449   6.530   5.232
31492WAT      O94717   0.961   6.791   3.222
31492WAT     H194718   1.003   6.878   3.245
31492WAT     H294719   0.865   6.805   3.198
31493WAT      O94720   8.311   5.018   0.822
31493WAT     H194721   8.290   4.964   0.741
31493WAT     H294722   8.292   4.965   0.904
31494WAT      O94723   7.650   2.418   8.280
31494WAT     H194724   7.584   2.417   8.355
31494WAT     H294725   7.625   2.490   8.215
31495WAT      O94726   7.826   7.089   7.618
31495WAT     H194727   7.851   7.028   7.693
31495WAT     H294728   7.782   7.036   7.545
31496WAT      O94729   8.942   5.969   4.138
31496WAT     H194730   8.848   5.984   4.168
31496WAT     H294731   9.003   5.963   4.217
31497WAT      O94732   2.848   7.415   2.500
31497WAT     H194733   2.803   7.471   2.431
31497WAT     H294734   2.784   7.394   2.574
31498WAT      O94735   5.759   0.124   3.305
31498WAT     H194736   5.715   0.205   3.342
31498WAT     H294737   5.802   0.072   3.379
31499WAT      O94738   8.978   7.335   9.484
31499WAT     H194739   8.989   7.400   9.408
31499WAT     H294740   8.899   7.363   9.540
31500WAT      O94741   4.107   2.508   1.637
31500WAT     H194742   4.129   2.556   1.552
31500WAT     H294743   4.114   2.409   1.623
31501WAT      O94744   7.185   5.836   9.522
31501WAT     H194745   7.151   5.807   9.433
31501WAT     H294746   7.108   5.850   9.584
31502WAT      O94747   7.131   1.614   7.668
31502WAT     H194748   7.035   1.629   7.691
31502WAT     H294749   7.179   1.702   7.668
31503WAT      O94750   1.139   9.590   1.874
31503WAT     H194751   1.198   9.643   1.814
31503WAT     H294752   1.047   9.587   1.837
31504WAT      O94753   1.260   3.958   6.220
31504WAT     H194754   1.164   3.987   6.222
31504WAT     H294755   1.285   3.919   6.309
31505WAT      O94756   6.338   8.984   9.760
31505WAT     H194757   6.347   8.885   9.769
31505WAT     H294758   6.420   9.021   9.716
31506WAT      O94759   1.051   7.535   4.303
31506WAT     H194760   0.994   7.518   4.223
31506WAT     H294761   1.052   7.633   4.324
31507WAT      O94762   6.692   3.637   7.153
31507WAT     H194763   6.766   3.570   7.147
31507WAT     H294764   6.617   3.599   7.207
31508WAT      O94765   4.015   0.420   0.021
31508WAT     H194766   4.049   0.327   0.036
31508WAT     H294767   3.950   0.420  -0.055
31509WAT      O94768   5.509   9.610   4.321
31509WAT     H194769   5.588   9.641   4.375
31509WAT     H294770   5.444   9.563   4.381
31510WAT      O94771   6.335   1.326   8.566
31510WAT     H194772   6.288   1.368   8.643
31510WAT     H294773   6.279   1.332   8.484
31511WAT      O94774   0.319   5.803   0.208
31511WAT     H194775   0.315   5.754   0.121
31511WAT     H294776   0.317   5.901   0.192
31512WAT      O94777   2.606   1.030   5.965
31512WAT     H194778   2.685   1.065   6.015
31512WAT     H294779   2.521   1.060   6.009
31513WAT      O94780   7.795   8.308   0.924
31513WAT     H194781   7.749   8.395   0.937
31513WAT     H294782   7.830   8.275   1.012
31514WAT      O94783   7.755   4.051   4.877
31514WAT     H194784   7.706   4.115   4.818
31514WAT     H294785   7.806   3.986   4.819
31515WAT      O94786   2.328   7.844   6.342
31515WAT     H194787   2.248   7.863   6.398
31515WAT     H294788   2.400   7.803   6.398
31516WAT      O94789   4.785   6.346   2.079
31516WAT     H194790   4.765   6.281   2.006
31516WAT     H294791   4.851   6.305   2.143
31517WAT      O94792   3.348   3.606   4.906
31517WAT     H194793   3.262   3.556   4.891
31517WAT     H294794   3.328   3.703   4.918
31518WAT      O94795   0.288   7.111   4.050
31518WAT     H194796   0.273   7.045   3.977
31518WAT     H294797   0.292   7.064   4.138
31519WAT      O94798   3.878   0.020   3.069
31519WAT     H194799   3.860   0.109   3.109
31519WAT     H294800   3.971  -0.009   3.093
31520WAT      O94801   1.297   4.221   7.305
31520WAT     H194802   1.215   4.166   7.321
31520WAT     H294803   1.274   4.299   7.247
31521WAT      O94804   7.459   4.789   0.215
31521WAT     H194805   7.375   4.746   0.184
31521WAT     H294806   7.486   4.860   0.149
31522WAT      O94807   7.140   2.091   5.281
31522WAT     H194808   7.045   2.085   5.312
31522WAT     H294809   7.172   2.000   5.254
31523WAT      O94810   0.389   0.163   4.510
31523WAT     H194811   0.369   0.121   4.421
31523WAT     H294812   0.483   0.196   4.511
31524WAT      O94813   9.303   6.678   2.322
31524WAT     H194814   9.294   6.588   2.363
31524WAT     H294815   9.388   6.720   2.353
31525WAT      O94816   5.005   5.844   2.050
31525WAT     H194817   4.939   5.821   2.120
31525WAT     H294818   4.967   5.825   1.960
31526WAT      O94819   9.545   4.552   7.999
31526WAT     H194820   9.500   4.556   8.088
31526WAT     H294821   9.642   4.532   8.012
31527WAT      O94822   0.300   9.362   6.409
31527WAT     H194823   0.320   9.328   6.317
31527WAT     H294824   0.230   9.432   6.404
31528WAT      O94825   6.876   8.331   1.712
31528WAT     H194826   6.953   8.332   1.777
31528WAT     H294827   6.791   8.344   1.762
31529WAT      O94828   9.847   7.170   6.771
31529WAT     H194829   9.813   7.085   6.731
31529WAT     H294830   9.946   7.175   6.760
31530WAT      O94831   0.876   2.810   6.879
31530WAT     H194832   0.785   2.849   6.862
31530WAT     H294833   0.945   2.881   6.862
31531WAT      O94834   8.890   9.249   3.040
31531WAT     H194835   8.863   9.345   3.036
31531WAT     H294836   8.947   9.234   3.121
31532WAT      O94837   1.764   7.906   6.655
31532WAT     H194838   1.849   7.853   6.665
31532WAT     H294839   1.686   7.846   6.673
31533WAT      O94840   2.663   3.894   6.690
31533WAT     H194841   2.709   3.879   6.602
31533WAT     H294842   2.638   3.806   6.730
31534WAT      O94843   0.314   1.358   4.176
31534WAT     H194844   0.287   1.452   4.153
31534WAT     H294845   0.267   1.294   4.115
31535WAT      O94846   2.985   5.550   6.077
31535WAT     H194847   3.059   5.551   6.009
31535WAT     H294848   2.916   5.617   6.052
31536WAT      O94849   4.559   9.330   8.189
31536WAT     H194850   4.565   9.300   8.094
31536WAT     H294851   4.466   9.366   8.206
31537WAT      O94852   5.490   8.458   9.547
31537WAT     H194853   5.455   8.411   9.466
31537WAT     H294854   5.442   8.545   9.559
31538WAT      O94855   4.996   7.996   0.816
31538WAT     H194856   5.039   8.083   0.836
31538WAT     H294857   4.948   8.002   0.728
31539WAT      O94858   3.799   9.048   1.688
31539WAT     H194859   3.783   9.060   1.590
31539WAT     H294860   3.711   9.042   1.735
31540WAT      O94861   0.760   1.917   4.312
31540WAT     H194862   0.809   1.988   4.362
31540WAT     H294863   0.798   1.828   4.333
31541WAT      O94864   8.012   9.790   5.523
31541WAT     H194865   8.000   9.811   5.426
31541WAT     H294866   8.017   9.691   5.535
31542WAT      O94867   6.001   7.204   0.586
31542WAT     H194868   5.946   7.222   0.667
31542WAT     H294869   5.945   7.159   0.517
31543WAT      O94870   7.094   8.908   1.687
31543WAT     H194871   7.136   8.979   1.630
31543WAT     H294872   7.074   8.946   1.777
31544WAT      O94873   7.190   4.923   0.498
31544WAT     H194874   7.185   5.004   0.557
31544WAT     H294875   7.276   4.924   0.447
31545WAT      O94876   4.303   0.625   2.067
31545WAT     H194877   4.283   0.670   2.155
31545WAT     H294878   4.219   0.615   2.015
31546WAT      O94879   7.276   3.688   9.205
31546WAT     H194880   7.367   3.655   9.183
31546WAT     H294881   7.215   3.610   9.221
31547WAT      O94882   3.208   8.888   7.928
31547WAT     H194883   3.295   8.893   7.977
31547WAT     H294884   3.203   8.961   7.861
31548WAT      O94885   4.100   4.960   4.552
31548WAT     H194886   4.141   4.900   4.621
31548WAT     H294887   4.037   4.908   4.496
31549WAT      O94888   6.514   9.767   6.507
31549WAT     H194889   6.577   9.836   6.472
31549WAT     H294890   6.427   9.774   6.458
31550WAT      O94891   5.763   6.985   3.323
31550WAT     H194892   5.705   6.960   3.246
31550WAT     H294893   5.840   6.921   3.329
31551WAT      O94894   2.581   6.396   5.342
31551WAT     H194895   2.570   6.494   5.331
31551WAT     H294896   2.573   6.351   5.253
31552WAT      O94897   0.713   4.006   8.159
31552WAT     H194898   0.767   3.934   8.116
31552WAT     H294899   0.628   3.967   8.195
31553WAT      O94900   6.966   8.746   3.912
31553WAT     H194901   6.923   8.688   3.981
31553WAT     H294902   6.898   8.771   3.843
31554WAT      O94903   0.757   1.741   7.288
31554WAT     H194904   0.849   1.739   7.248
31554WAT     H294905   0.727   1.648   7.305
31555WAT      O94906   8.110   6.269   9.431
31555WAT     H194907   8.066   6.186   9.464
31555WAT     H294908   8.195   6.246   9.383
31556WAT      O94909   1.562   6.208   1.624
31556WAT     H194910   1.601   6.237   1.536
31556WAT     H294911   1.617   6.134   1.662
31557WAT      O94912   8.841   6.433   6.682
31557WAT     H194913   8.879   6.474   6.600
31557WAT     H294914   8.914   6.416   6.748
31558WAT      O94915   5.028   7.013   2.381
31558WAT     H194916   5.013   6.925   2.426
31558WAT     H294917   5.081   7.073   2.441
31559WAT      O94918   5.654   2.762   9.073
31559WAT     H194919   5.610   2.675   9.096
31559WAT     H294920   5.624   2.832   9.138
31560WAT      O94921   7.730   2.703   2.404
31560WAT     H194922   7.820   2.719   2.363
31560WAT     H294923   7.659   2.736   2.343
31561WAT      O94924   5.236   3.434   2.602
31561WAT     H194925   5.232   3.344   2.645
31561WAT     H294926   5.297   3.430   2.522
31562WAT      O94927   3.956   9.580   4.727
31562WAT     H194928   3.919   9.590   4.819
31562WAT     H294929   3.991   9.487   4.714
31563WAT      O94930   5.193   3.359   8.641
31563WAT     H194931   5.123   3.339   8.573
31563WAT     H294932   5.276   3.308   8.620
31564WAT      O94933   5.585   6.443   8.826
31564WAT     H194934   5.609   6.419   8.920
31564WAT     H294935   5.629   6.379   8.762
31565WAT      O94936   7.922   3.840   8.597
31565WAT     H194937   7.894   3.892   8.516
31565WAT     H294938   7.960   3.752   8.570
31566WAT      O94939   6.530   4.065   9.640
31566WAT     H194940   6.515   4.004   9.717
31566WAT     H294941   6.473   4.146   9.650
31567WAT      O94942   9.510   9.770   7.805
31567WAT     H194943   9.455   9.764   7.722
31567WAT     H294944   9.496   9.860   7.847
31568WAT      O94945   9.159   4.712   2.183
31568WAT     H194946   9.207   4.681   2.266
31568WAT     H294947   9.225   4.753   2.120
31569WAT      O94948   3.086   8.218   6.012
31569WAT     H194949   3.026   8.154   5.965
31569WAT     H294950   3.136   8.273   5.945
31570WAT      O94951   1.500   4.913   7.333
31570WAT     H194952   1.412   4.898   7.379
31570WAT     H294953   1.510   4.848   7.258
31571WAT      O94954   0.725   7.851   5.890
31571WAT     H194955   0.675   7.923   5.939
31571WAT     H294956   0.819   7.847   5.923
31572WAT      O94957   1.340   4.954   7.809
31572WAT     H194958   1.350   4.863   7.848
31572WAT     H294959   1.402   4.965   7.731
31573WAT      O94960   1.299   8.247   5.866
31573WAT     H194961   1.277   8.151   5.879
31573WAT     H294962   1.320   8.289   5.955
31574WAT      O94963   6.513   0.574   3.767
31574WAT     H194964   6.546   0.668   3.764
31574WAT     H294965   6.426   0.570   3.816
31575WAT      O94966   3.043   7.926   1.816
31575WAT     H194967   3.072   7.981   1.895
31575WAT     H294968   3.099   7.844   1.810
31576WAT      O94969   3.932   5.669   6.231
31576WAT     H194970   3.907   5.600   6.300
31576WAT     H294971   3.882   5.754   6.249
31577WAT      O94972   7.656   8.330   9.273
31577WAT     H194973   7.703   8.244   9.250
31577WAT     H294974   7.573   8.310   9.324
31578WAT      O94975   2.354   9.465   1.390
31578WAT     H194976   2.353   9.394   1.320
31578WAT     H294977   2.409   9.542   1.359
31579WAT      O94978   7.295   4.080   1.357
31579WAT     H194979   7.237   4.068   1.276
31579WAT     H294980   7.246   4.048   1.438
31580WAT      O94981   3.621   9.741   8.580
31580WAT     H194982   3.676   9.824   8.572
31580WAT     H294983   3.567   9.745   8.664
31581WAT      O94984   9.514   9.134   4.584
31581WAT     H194985   9.479   9.081   4.661
31581WAT     H294986   9.461   9.113   4.502
31582WAT      O94987   9.582   8.938   1.810
31582WAT     H194988   9.536   8.884   1.880
31582WAT     H294989   9.523   8.948   1.730
31583WAT      O94990   3.443   0.980   9.881
31583WAT     H194991   3.483   0.929   9.956
31583WAT     H294992   3.417   1.071   9.912
31584WAT      O94993   9.222   8.351   6.829
31584WAT     H194994   9.229   8.258   6.863
31584WAT     H294995   9.274   8.359   6.744
31585WAT      O94996   9.327   4.404   9.177
31585WAT     H194997   9.280   4.315   9.175
31585WAT     H294998   9.272   4.472   9.130
31586WAT      O94999   7.935   4.583   0.770
31586WAT     H195000   7.922   4.485   0.759
31586WAT     H295001   8.028   4.601   0.802
31587WAT      O95002   8.718   1.145   5.593
31587WAT     H195003   8.697   1.065   5.537
31587WAT     H295004   8.756   1.217   5.536
31588WAT      O95005   9.336   7.304   4.774
31588WAT     H195006   9.327   7.325   4.676
31588WAT     H295007   9.370   7.211   4.785
31589WAT      O95008   8.420   0.583   2.001
31589WAT     H195009   8.424   0.520   2.079
31589WAT     H295010   8.449   0.536   1.918
31590WAT      O95011   9.611   1.640   2.597
31590WAT     H195012   9.685   1.636   2.663
31590WAT     H295013   9.554   1.558   2.605
31591WAT      O95014   8.058   5.661   5.771
31591WAT     H195015   8.066   5.739   5.833
31591WAT     H295016   8.144   5.611   5.769
31592WAT      O95017   8.912   9.748   7.307
31592WAT     H195018   8.963   9.662   7.300
31592WAT     H295019   8.857   9.760   7.224
31593WAT      O95020   0.564   1.835   9.068
31593WAT     H195021   0.663   1.845   9.078
31593WAT     H295022   0.521   1.838   9.158
31594WAT      O95023   4.950   9.674   5.152
31594WAT     H195024   4.955   9.756   5.209
31594WAT     H295025   4.904   9.697   5.066
31595WAT      O95026   0.865   2.555   0.168
31595WAT     H195027   0.871   2.652   0.144
31595WAT     H295028   0.811   2.545   0.252
31596WAT      O95029   1.635   3.287   9.361
31596WAT     H195030   1.614   3.198   9.321
31596WAT     H295031   1.582   3.358   9.314
31597WAT      O95032   9.138   2.068   3.423
31597WAT     H195033   9.091   2.080   3.510
31597WAT     H295034   9.198   2.146   3.407
31598WAT      O95035   0.497   7.225   0.962
31598WAT     H195036   0.431   7.151   0.968
31598WAT     H295037   0.449   7.313   0.968
31599WAT      O95038   8.783   6.220   9.278
31599WAT     H195039   8.838   6.298   9.246
31599WAT     H295040   8.691   6.252   9.299
31600WAT      O95041   9.595   3.239   8.001
31600WAT     H195042   9.639   3.296   8.070
31600WAT     H295043   9.504   3.213   8.033
31601WAT      O95044   8.898   7.207   6.569
31601WAT     H195045   8.947   7.220   6.655
31601WAT     H295046   8.863   7.114   6.564
31602WAT      O95047   5.743   3.938   5.477
31602WAT     H195048   5.712   3.977   5.390
31602WAT     H295049   5.787   4.010   5.532
31603WAT      O95050   0.730   6.602   6.423
31603WAT     H195051   0.678   6.654   6.491
31603WAT     H295052   0.819   6.578   6.461
31604WAT      O95053   1.125   3.929   0.299
31604WAT     H195054   1.069   3.926   0.382
31604WAT     H295055   1.218   3.959   0.323
31605WAT      O95056   1.715   8.774   3.417
31605WAT     H195057   1.765   8.789   3.502
31605WAT     H295058   1.690   8.678   3.409
31606WAT      O95059   2.704   5.802   7.193
31606WAT     H195060   2.770   5.877   7.184
31606WAT     H295061   2.684   5.787   7.290
31607WAT      O95062   0.453   6.414   9.240
31607WAT     H195063   0.431   6.473   9.161
31607WAT     H295064   0.525   6.350   9.215
31608WAT      O95065   0.254   7.828   1.589
31608WAT     H195066   0.229   7.736   1.559
31608WAT     H295067   0.282   7.883   1.511
31609WAT      O95068   9.167   2.031   2.994
31609WAT     H195069   9.068   2.018   2.996
31609WAT     H295070   9.197   2.041   2.900
31610WAT      O95071   8.125   5.102   4.377
31610WAT     H195072   8.072   5.038   4.322
31610WAT     H295073   8.140   5.063   4.468
31611WAT      O95074   7.022   1.220   4.724
31611WAT     H195075   7.002   1.318   4.717
31611WAT     H295076   6.974   1.181   4.802
31612WAT      O95077   4.146   2.901   7.817
31612WAT     H195078   4.070   2.872   7.759
31612WAT     H295079   4.230   2.856   7.787
31613WAT      O95080   2.008   8.580   8.120
31613WAT     H195081   2.066   8.498   8.121
31613WAT     H295082   1.960   8.588   8.207
31614WAT      O95083   1.946   5.172   1.250
31614WAT     H195084   1.882   5.198   1.323
31614WAT     H295085   1.986   5.083   1.271
31615WAT      O95086   3.454   3.331   1.816
31615WAT     H195087   3.534   3.388   1.832
31615WAT     H295088   3.478   3.235   1.827
31616WAT      O95089   1.216   3.357   0.050
31616WAT     H195090   1.133   3.306   0.072
31616WAT     H295091   1.247   3.332  -0.042
31617WAT      O95092   2.564   5.222   1.348
31617WAT     H195093   2.618   5.184   1.424
31617WAT     H295094   2.571   5.162   1.269
31618WAT      O95095   3.591   9.457   9.587
31618WAT     H195096   3.691   9.447   9.591
31618WAT     H295097   3.556   9.409   9.507
31619WAT      O95098   4.862   1.278   7.126
31619WAT     H195099   4.927   1.315   7.059
31619WAT     H295100   4.850   1.180   7.110
31620WAT      O95101   6.493   5.933   6.214
31620WAT     H195102   6.480   5.840   6.248
31620WAT     H295103   6.534   5.930   6.122
31621WAT      O95104   6.967   0.438   4.327
31621WAT     H195105   6.938   0.388   4.409
31621WAT     H295106   6.980   0.374   4.252
31622WAT      O95107   8.576   8.703   2.092
31622WAT     H195108   8.537   8.635   2.031
31622WAT     H295109   8.669   8.725   2.063
31623WAT      O95110   6.238   2.625   4.022
31623WAT     H195111   6.206   2.540   4.064
31623WAT     H295112   6.163   2.670   3.974
31624WAT      O95113   0.945   2.536   2.049
31624WAT     H195114   0.885   2.458   2.062
31624WAT     H295115   1.000   2.523   1.967
31625WAT      O95116   6.201   6.056   1.043
31625WAT     H195117   6.106   6.041   1.015
31625WAT     H295118   6.237   6.135   0.995
31626WAT      O95119   1.907   6.803   4.159
31626WAT     H195120   1.986   6.756   4.119
31626WAT     H295121   1.926   6.901   4.163
31627WAT      O95122   9.806   4.801   1.125
31627WAT     H195123   9.853   4.715   1.145
31627WAT     H295124   9.855   4.850   1.053
31628WAT      O95125   1.275   2.664   5.750
31628WAT     H195126   1.189   2.686   5.703
31628WAT     H295127   1.317   2.748   5.784
31629WAT      O95128   7.177   8.473   8.202
31629WAT     H195129   7.248   8.439   8.140
31629WAT     H295130   7.127   8.547   8.159
31630WAT      O95131   0.752   6.347   2.384
31630WAT     H195132   0.814   6.426   2.390
31630WAT     H295133   0.728   6.317   2.476
31631WAT      O95134   9.122   9.568   9.148
31631WAT     H195135   9.127   9.609   9.238
31631WAT     H295136   9.027   9.545   9.126
31632WAT      O95137   5.266   3.374   0.175
31632WAT     H195138   5.272   3.472   0.191
31632WAT     H295139   5.342   3.345   0.117
31633WAT      O95140   6.374   0.087   3.297
31633WAT     H195141   6.414   0.032   3.224
31633WAT     H295142   6.437   0.091   3.375
31634WAT      O95143   1.717   5.297   5.540
31634WAT     H195144   1.695   5.388   5.577
31634WAT     H295145   1.812   5.295   5.510
31635WAT      O95146   7.002   8.119   9.039
31635WAT     H195147   6.932   8.162   9.097
31635WAT     H295148   7.086   8.106   9.093
31636WAT      O95149   5.421   3.835   7.059
31636WAT     H195150   5.461   3.860   6.971
31636WAT     H295151   5.399   3.918   7.110
31637WAT      O95152   2.578   7.189   8.068
31637WAT     H195153   2.623   7.229   8.148
31637WAT     H295154   2.536   7.101   8.094
31638WAT      O95155   7.324   8.893   1.463
31638WAT     H195156   7.271   8.812   1.437
31638WAT     H295157   7.420   8.868   1.475
31639WAT      O95158   0.581   6.864   0.454
31639WAT     H195159   0.568   6.934   0.383
31639WAT     H295160   0.507   6.870   0.521
31640WAT      O95161   9.362   1.045   7.689
31640WAT     H195162   9.390   1.136   7.661
31640WAT     H295163   9.363   0.983   7.610
31641WAT      O95164   4.721   8.150   5.552
31641WAT     H195165   4.739   8.229   5.610
31641WAT     H295166   4.664   8.085   5.602
31642WAT      O95167   9.636   7.055   0.826
31642WAT     H195168   9.719   7.016   0.867
31642WAT     H295169   9.592   6.985   0.769
31643WAT      O95170   0.712   9.481   8.890
31643WAT     H195171   0.632   9.504   8.835
31643WAT     H295172   0.792   9.532   8.857
31644WAT      O95173   8.009   6.778   0.127
31644WAT     H195174   8.104   6.799   0.147
31644WAT     H295175   8.003   6.725   0.043
31645WAT      O95176   5.457   7.693   0.171
31645WAT     H195177   5.545   7.646   0.183
31645WAT     H295178   5.384   7.637   0.210
31646WAT      O95179   9.175   7.918   8.198
31646WAT     H195180   9.186   7.818   8.196
31646WAT     H295181   9.134   7.948   8.111
31647WAT      O95182   0.486   3.951   5.440
31647WAT     H195183   0.397   3.957   5.486
31647WAT     H295184   0.556   3.928   5.508
31648WAT      O95185   2.049   1.103   2.060
31648WAT     H195186   2.064   1.079   2.155
31648WAT     H295187   2.090   1.192   2.040
31649WAT      O95188   2.115   1.309   8.802
31649WAT     H195189   2.158   1.309   8.893
31649WAT     H295190   2.161   1.242   8.744
31650WAT      O95191   4.106   8.865   4.581
31650WAT     H195192   4.191   8.823   4.549
31650WAT     H295193   4.122   8.906   4.671
31651WAT      O95194   0.272   8.982   2.789
31651WAT     H195195   0.283   8.918   2.713
31651WAT     H295196   0.351   8.975   2.850
31652WAT      O95197   6.228   9.027   3.016
31652WAT     H195198   6.237   9.123   3.043
31652WAT     H295199   6.289   9.008   2.939
31653WAT      O95200   9.065   7.466   2.049
31653WAT     H195201   9.046   7.532   2.121
31653WAT     H295202   9.145   7.412   2.073
31654WAT      O95203   1.868   1.984   0.872
31654WAT     H195204   1.814   2.056   0.915
31654WAT     H295205   1.937   2.025   0.812
31655WAT      O95206   3.968   7.386   5.483
31655WAT     H195207   3.903   7.322   5.522
31655WAT     H295208   3.920   7.451   5.424
31656WAT      O95209   8.783   5.281   0.898
31656WAT     H195210   8.866   5.316   0.941
31656WAT     H295211   8.730   5.229   0.965
31657WAT      O95212   7.075   8.663   1.780
31657WAT     H195213   7.155   8.607   1.757
31657WAT     H295214   7.093   8.758   1.753
31658WAT      O95215   3.691   1.438   4.593
31658WAT     H195216   3.650   1.372   4.531
31658WAT     H295217   3.720   1.392   4.677
31659WAT      O95218   8.237   9.192   0.942
31659WAT     H195219   8.169   9.264   0.925
31659WAT     H295220   8.291   9.178   0.860
31660WAT      O95221   9.328   3.802   4.358
31660WAT     H195222   9.261   3.833   4.292
31660WAT     H295223   9.334   3.868   4.433
31661WAT      O95224   7.077   2.110   0.415
31661WAT     H195225   7.157   2.167   0.395
31661WAT     H295226   7.006   2.128   0.347
31662WAT      O95227   4.639   3.889   8.838
31662WAT     H195228   4.704   3.896   8.914
31662WAT     H295229   4.547   3.912   8.869
31663WAT      O95230   9.626   6.730   5.151
31663WAT     H195231   9.669   6.709   5.239
31663WAT     H295232   9.561   6.805   5.164
31664WAT      O95233   2.149   3.368   6.335
31664WAT     H195234   2.152   3.270   6.319
31664WAT     H295235   2.079   3.410   6.277
31665WAT      O95236   6.481   7.163   1.802
31665WAT     H195237   6.456   7.083   1.856
31665WAT     H295238   6.401   7.198   1.754
31666WAT      O95239   2.540   5.665   0.209
31666WAT     H195240   2.485   5.680   0.292
31666WAT     H295241   2.522   5.574   0.172
31667WAT      O95242   7.504   6.975   0.026
31667WAT     H195243   7.544   6.885   0.036
31667WAT     H295244   7.574   7.045   0.041
31668WAT      O95245   6.142   4.687   3.941
31668WAT     H195246   6.226   4.633   3.952
31668WAT     H295247   6.131   4.712   3.844
31669WAT      O95248   7.168   9.252   6.984
31669WAT     H195249   7.258   9.279   7.020
31669WAT     H295250   7.148   9.306   6.903
31670WAT      O95251   5.764   5.392   0.773
31670WAT     H195252   5.674   5.373   0.811
31670WAT     H295253   5.780   5.491   0.772
31671WAT      O95254   0.686   5.093   9.737
31671WAT     H195255   0.595   5.104   9.698
31671WAT     H295256   0.699   4.998   9.765
31672WAT      O95257   1.594   7.387   8.042
31672WAT     H195258   1.561   7.454   7.975
31672WAT     H295259   1.692   7.400   8.057
31673WAT      O95260   2.871   8.351   0.646
31673WAT     H195261   2.922   8.431   0.614
31673WAT     H295262   2.866   8.352   0.746
31674WAT      O95263   3.300   3.410   6.694
31674WAT     H195264   3.255   3.498   6.709
31674WAT     H295265   3.325   3.371   6.783
31675WAT      O95266   1.685   6.271   6.022
31675WAT     H195267   1.667   6.365   5.995
31675WAT     H295268   1.781   6.260   6.047
31676WAT      O95269   4.158   1.887   3.790
31676WAT     H195270   4.206   1.814   3.741
31676WAT     H295271   4.064   1.894   3.756
31677WAT      O95272   3.027   4.999   0.124
31677WAT     H195273   3.000   4.964   0.214
31677WAT     H295274   3.048   5.097   0.131
31678WAT      O95275   0.293   6.621   0.437
31678WAT     H195276   0.198   6.653   0.442
31678WAT     H295277   0.341   6.671   0.365
31679WAT      O95278   0.720   7.957   8.691
31679WAT     H195279   0.683   8.019   8.761
31679WAT     H295280   0.689   7.864   8.710
31680WAT      O95281   1.731   2.508   4.615
31680WAT     H195282   1.746   2.421   4.662
31680WAT     H295283   1.791   2.578   4.655
31681WAT      O95284   8.448   1.857   1.122
31681WAT     H195285   8.381   1.918   1.082
31681WAT     H295286   8.539   1.879   1.087
31682WAT      O95287   5.602   1.653   4.531
31682WAT     H195288   5.587   1.610   4.443
31682WAT     H295289   5.700   1.663   4.548
31683WAT      O95290   6.697   2.770   2.464
31683WAT     H195291   6.636   2.793   2.540
31683WAT     H295292   6.662   2.808   2.379
31684WAT      O95293   7.751   9.515   1.233
31684WAT     H195294   7.695   9.530   1.315
31684WAT     H295295   7.759   9.417   1.216
31685WAT      O95296   7.443   5.896   6.352
31685WAT     H195297   7.455   5.832   6.427
31685WAT     H295298   7.416   5.846   6.270
31686WAT      O95299   6.198   2.901   5.811
31686WAT     H195300   6.271   2.864   5.868
31686WAT     H295301   6.137   2.958   5.866
31687WAT      O95302   7.694   0.411   1.468
31687WAT     H195303   7.609   0.396   1.518
31687WAT     H295304   7.751   0.329   1.473
31688WAT      O95305   6.841   6.533   0.435
31688WAT     H195306   6.869   6.583   0.517
31688WAT     H295307   6.765   6.581   0.392
31689WAT      O95308   4.719   7.888   1.683
31689WAT     H195309   4.793   7.822   1.694
31689WAT     H295310   4.756   7.981   1.680
31690WAT      O95311   1.561   0.846   2.584
31690WAT     H195312   1.613   0.930   2.599
31690WAT     H295313   1.463   0.864   2.595
31691WAT      O95314   6.830   3.759   3.641
31691WAT     H195315   6.777   3.674   3.641
31691WAT     H295316   6.927   3.738   3.637
31692WAT      O95317   6.447   4.018   8.214
31692WAT     H195318   6.537   3.974   8.206
31692WAT     H295319   6.409   3.998   8.304
31693WAT      O95320   0.297   3.024   1.450
31693WAT     H195321   0.319   3.087   1.376
31693WAT     H295322   0.378   2.971   1.474
31694WAT      O95323   7.282   3.481   2.558
31694WAT     H195324   7.198   3.449   2.602
31694WAT     H295325   7.299   3.426   2.475
31695WAT      O95326   1.130   8.277   2.521
31695WAT     H195327   1.153   8.223   2.440
31695WAT     H295328   1.196   8.259   2.594
31696WAT      O95329   5.166   8.983   7.902
31696WAT     H195330   5.242   9.012   7.844
31696WAT     H295331   5.193   8.903   7.956
31697WAT      O95332   7.245   6.965   0.086
31697WAT     H195333   7.216   7.006   0.173
31697WAT     H295334   7.345   6.965   0.081
31698WAT      O95335   4.959   0.681   2.597
31698WAT     H195336   4.892   0.611   2.617
31698WAT     H295337   5.046   0.657   2.640
31699WAT      O95338   3.841   6.744   8.844
31699WAT     H195339   3.894   6.677   8.792
31699WAT     H295340   3.748   6.710   8.858
31700WAT      O95341   6.919   1.570   6.543
31700WAT     H195342   7.007   1.542   6.504
31700WAT     H295343   6.906   1.668   6.528
31701WAT      O95344   6.798   1.751   3.463
31701WAT     H195345   6.840   1.813   3.396
31701WAT     H295346   6.862   1.733   3.537
31702WAT      O95347   6.838   0.446   0.418
31702WAT     H195348   6.842   0.382   0.495
31702WAT     H295349   6.749   0.493   0.418
31703WAT      O95350   2.836   3.902   0.374
31703WAT     H195351   2.907   3.858   0.429
31703WAT     H295352   2.809   3.840   0.299
31704WAT      O95353   3.727   4.848   8.646
31704WAT     H195354   3.783   4.799   8.713
31704WAT     H295355   3.775   4.932   8.618
31705WAT      O95356   5.953   4.769   6.851
31705WAT     H195357   5.933   4.837   6.922
31705WAT     H295358   5.869   4.720   6.829
31706WAT      O95359   5.536   3.460   5.090
31706WAT     H195360   5.494   3.384   5.040
31706WAT     H295361   5.472   3.537   5.094
31707WAT      O95362   0.680   2.412   2.310
31707WAT     H195363   0.702   2.344   2.380
31707WAT     H295364   0.719   2.385   2.222
31708WAT      O95365   0.786   4.116   4.949
31708WAT     H195366   0.729   4.174   4.889
31708WAT     H295367   0.764   4.137   5.044
31709WAT      O95368   0.209   0.378   3.495
31709WAT     H195369   0.273   0.307   3.524
31709WAT     H295370   0.227   0.462   3.546
31710WAT      O95371   0.044   6.513   1.403
31710WAT     H195372   0.110   6.587   1.419
31710WAT     H295373   0.022   6.469   1.490
31711WAT      O95374   8.780   5.075   7.156
31711WAT     H195375   8.791   5.165   7.199
31711WAT     H295376   8.870   5.038   7.134
31712WAT      O95377   1.653   5.448   0.529
31712WAT     H195378   1.744   5.409   0.542
31712WAT     H295379   1.644   5.532   0.584
31713WAT      O95380   2.192   2.834   2.027
31713WAT     H195381   2.243   2.918   2.047
31713WAT     H295382   2.192   2.818   1.928
31714WAT      O95383   1.612   6.105   8.658
31714WAT     H195384   1.578   6.067   8.744
31714WAT     H295385   1.575   6.197   8.646
31715WAT      O95386   6.224   7.766   7.934
31715WAT     H195387   6.146   7.749   7.993
31715WAT     H295388   6.215   7.857   7.892
31716WAT      O95389   1.094   7.039   5.436
31716WAT     H195390   1.013   6.981   5.445
31716WAT     H295391   1.176   6.983   5.444
31717WAT      O95392   8.120   3.557   5.380
31717WAT     H195393   8.168   3.472   5.403
31717WAT     H295394   8.022   3.545   5.396
31718WAT      O95395   0.008   5.147   5.780
31718WAT     H195396   0.052   5.062   5.811
31718WAT     H295397  -0.086   5.149   5.813
31719WAT      O95398   8.478   5.416   1.840
31719WAT     H195399   8.484   5.457   1.749
31719WAT     H295400   8.419   5.472   1.898
31720WAT      O95401   5.396   8.976   9.020
31720WAT     H195402   5.413   8.984   8.922
31720WAT     H295403   5.482   8.957   9.067
31721WAT      O95404   0.165   3.202   8.010
31721WAT     H195405   0.072   3.220   7.977
31721WAT     H295406   0.170   3.223   8.107
31722WAT      O95407   1.373   2.910   6.381
31722WAT     H195408   1.310   2.841   6.415
31722WAT     H295409   1.462   2.868   6.362
31723WAT      O95410   6.016   8.158   0.153
31723WAT     H195411   5.942   8.096   0.178
31723WAT     H295412   5.981   8.252   0.147
31724WAT      O95413   6.833   4.775   1.443
31724WAT     H195414   6.833   4.755   1.541
31724WAT     H295415   6.839   4.690   1.391
31725WAT      O95416   2.458   0.817   5.088
31725WAT     H195417   2.444   0.760   5.007
31725WAT     H295418   2.380   0.807   5.150
31726WAT      O95419   9.226   0.113   3.880
31726WAT     H195420   9.305   0.153   3.925
31726WAT     H295421   9.189   0.178   3.814
31727WAT      O95422   5.579   4.859   3.508
31727WAT     H195423   5.568   4.812   3.420
31727WAT     H295424   5.491   4.859   3.556
31728WAT      O95425   8.584   2.422   3.036
31728WAT     H195426   8.524   2.342   3.033
31728WAT     H295427   8.665   2.404   2.979
31729WAT      O95428   2.289   5.173   5.843
31729WAT     H195429   2.374   5.217   5.873
31729WAT     H295430   2.227   5.242   5.806
31730WAT      O95431   8.286   7.782   3.194
31730WAT     H195432   8.375   7.825   3.181
31730WAT     H295433   8.248   7.756   3.106
31731WAT      O95434   9.153   1.099   8.518
31731WAT     H195435   9.187   1.069   8.607
31731WAT     H295436   9.230   1.116   8.457
31732WAT      O95437   2.357   4.451   0.010
31732WAT     H195438   2.413   4.452   0.093
31732WAT     H295439   2.289   4.378   0.017
31733WAT      O95440   8.383   0.022   1.465
31733WAT     H195441   8.378  -0.016   1.373
31733WAT     H295442   8.305   0.083   1.480
31734WAT      O95443   3.100   3.812   6.281
31734WAT     H195444   3.003   3.836   6.277
31734WAT     H295445   3.117   3.757   6.363
31735WAT      O95446   1.849   8.580   1.751
31735WAT     H195447   1.861   8.485   1.779
31735WAT     H295448   1.939   8.623   1.739
31736WAT      O95449   4.514   6.479   1.802
31736WAT     H195450   4.511   6.489   1.703
31736WAT     H295451   4.477   6.390   1.828
31737WAT      O95452   8.420   3.221   8.106
31737WAT     H195453   8.488   3.270   8.161
31737WAT     H295454   8.451   3.126   8.094
31738WAT      O95455   1.763   7.730   5.453
31738WAT     H195456   1.715   7.645   5.474
31738WAT     H295457   1.759   7.791   5.531
31739WAT      O95458   1.286   8.204   4.568
31739WAT     H195459   1.261   8.267   4.641
31739WAT     H295460   1.213   8.201   4.500
31740WAT      O95461   6.986   1.352   0.747
31740WAT     H195462   7.061   1.360   0.681
31740WAT     H295463   7.023   1.325   0.836
31741WAT      O95464   0.110   5.237   6.125
31741WAT     H195465   0.057   5.162   6.165
31741WAT     H295466   0.206   5.210   6.119
31742WAT      O95467   8.748   5.261   9.853
31742WAT     H195468   8.793   5.349   9.866
31742WAT     H295469   8.808   5.187   9.882
31743WAT      O95470   2.387   0.106   8.650
31743WAT     H195471   2.295   0.136   8.623
31743WAT     H295472   2.425   0.172   8.714
31744WAT      O95473   1.896   6.607   8.574
31744WAT     H195474   1.909   6.520   8.621
31744WAT     H295475   1.899   6.682   8.640
31745WAT      O95476   9.477   7.015   6.859
31745WAT     H195477   9.462   6.994   6.763
31745WAT     H295478   9.437   6.943   6.916
31746WAT      O95479   3.492   6.341   0.645
31746WAT     H195480   3.567   6.385   0.693
31746WAT     H295481   3.425   6.410   0.617
31747WAT      O95482   0.721   0.223   3.910
31747WAT     H195483   0.705   0.239   4.007
31747WAT     H295484   0.783   0.146   3.898
31748WAT      O95485   0.054   4.278   5.756
31748WAT     H195486   0.074   4.233   5.843
31748WAT     H295487  -0.003   4.358   5.772
31749WAT      O95488   2.066   5.025   8.552
31749WAT     H195489   2.016   5.108   8.527
31749WAT     H295490   2.069   4.963   8.474
31750WAT      O95491   9.185   3.696   0.814
31750WAT     H195492   9.225   3.654   0.732
31750WAT     H295493   9.199   3.795   0.811
31751WAT      O95494   9.851   8.072   7.990
31751WAT     H195495   9.852   8.039   8.084
31751WAT     H295496   9.847   8.172   7.990
31752WAT      O95497   2.855   0.750   4.605
31752WAT     H195498   2.839   0.726   4.509
31752WAT     H295499   2.884   0.668   4.655
31753WAT      O95500   8.146   9.844   2.465
31753WAT     H195501   8.153   9.748   2.437
31753WAT     H295502   8.050   9.871   2.468
31754WAT      O95503   2.517   6.327   5.084
31754WAT     H195504   2.433   6.375   5.059
31754WAT     H295505   2.511   6.231   5.056
31755WAT      O95506   5.045   4.649   3.379
31755WAT     H195507   5.100   4.657   3.296
31755WAT     H295508   4.960   4.600   3.359
31756WAT      O95509   2.358   2.364   7.838
31756WAT     H195510   2.272   2.411   7.821
31756WAT     H295511   2.341   2.266   7.851
31757WAT      O95512   3.720   9.117   5.113
31757WAT     H195513   3.642   9.076   5.066
31757WAT     H295514   3.732   9.073   5.202
31758WAT      O95515   5.652   7.110   0.397
31758WAT     H195516   5.588   7.120   0.473
31758WAT     H295517   5.654   7.196   0.344
31759WAT      O95518   2.727   6.251   3.618
31759WAT     H195519   2.672   6.241   3.535
31759WAT     H295520   2.669   6.281   3.693
31760WAT      O95521   3.183   3.925   7.250
31760WAT     H195522   3.255   3.948   7.315
31760WAT     H295523   3.094   3.945   7.291
31761WAT      O95524   6.721   8.735   1.351
31761WAT     H195525   6.725   8.683   1.266
31761WAT     H295526   6.795   8.706   1.411
31762WAT      O95527   0.793   9.609   8.325
31762WAT     H195528   0.797   9.534   8.391
31762WAT     H295529   0.843   9.687   8.360
31763WAT      O95530   4.061   9.581   1.545
31763WAT     H195531   4.144   9.631   1.571
31763WAT     H295532   4.029   9.526   1.623
31764WAT      O95533   0.787   8.508   5.193
31764WAT     H195534   0.707   8.530   5.248
31764WAT     H295535   0.870   8.526   5.245
31765WAT      O95536   5.017   2.624   2.570
31765WAT     H195537   5.002   2.722   2.556
31765WAT     H295538   5.029   2.606   2.668
31766WAT      O95539   4.736   1.320   2.590
31766WAT     H195540   4.757   1.417   2.605
31766WAT     H295541   4.789   1.264   2.654
31767WAT      O95542   2.937   1.439   8.407
31767WAT     H195543   2.989   1.473   8.329
31767WAT     H295544   3.000   1.402   8.476
31768WAT      O95545   5.680   9.066   4.123
31768WAT     H195546   5.603   9.024   4.172
31768WAT     H295547   5.703   9.154   4.165
31769WAT      O95548   6.844   7.558   0.347
31769WAT     H195549   6.804   7.470   0.320
31769WAT     H295550   6.904   7.591   0.274
31770WAT      O95551   9.246   6.363   3.208
31770WAT     H195552   9.284   6.452   3.232
31770WAT     H295553   9.262   6.298   3.282
31771WAT      O95554   2.188   1.089   3.596
31771WAT     H195555   2.207   1.001   3.552
31771WAT     H295556   2.213   1.163   3.534
31772WAT      O95557   6.301   0.481   5.288
31772WAT     H195558   6.269   0.468   5.194
31772WAT     H295559   6.257   0.415   5.348
31773WAT      O95560   6.085   9.203   3.349
31773WAT     H195561   6.107   9.281   3.408
31773WAT     H295562   6.121   9.219   3.257
31774WAT      O95563   0.035   9.678   6.932
31774WAT     H195564  -0.060   9.710   6.939
31774WAT     H295565   0.034   9.579   6.913
31775WAT      O95566   3.378   0.582   4.446
31775WAT     H195567   3.363   0.507   4.382
31775WAT     H295568   3.290   0.616   4.479
31776WAT      O95569   8.904   8.045   9.138
31776WAT     H195570   8.900   7.959   9.188
31776WAT     H295571   8.999   8.063   9.111
31777WAT      O95572   9.537   3.988   0.782
31777WAT     H195573   9.448   4.018   0.818
31777WAT     H295574   9.524   3.950   0.690
31778WAT      O95575   0.148   5.396   5.743
31778WAT     H195576   0.090   5.461   5.693
31778WAT     H295577   0.112   5.304   5.733
31779WAT      O95578   8.043   1.558   0.443
31779WAT     H195579   8.052   1.489   0.514
31779WAT     H295580   7.947   1.564   0.414
31780WAT      O95581   9.791   1.902   7.061
31780WAT     H195582   9.800   1.803   7.070
31780WAT     H295583   9.702   1.925   7.022
31781WAT      O95584   9.174   5.820   1.467
31781WAT     H195585   9.168   5.729   1.508
31781WAT     H295586   9.085   5.844   1.428
31782WAT      O95587   0.654   6.982   9.122
31782WAT     H195588   0.688   7.063   9.075
31782WAT     H295589   0.569   7.004   9.170
31783WAT      O95590   5.473   7.606   7.599
31783WAT     H195591   5.526   7.684   7.631
31783WAT     H295592   5.535   7.532   7.571
31784WAT      O95593   0.225   8.908   7.319
31784WAT     H195594   0.285   8.931   7.243
31784WAT     H295595   0.254   8.821   7.359
31785WAT      O95596   7.963   0.365   5.723
31785WAT     H195597   7.937   0.428   5.650
31785WAT     H295598   8.060   0.345   5.718
31786WAT      O95599   1.145   6.016   9.026
31786WAT     H195600   1.067   5.954   9.032
31786WAT     H295601   1.194   6.000   8.940
31787WAT      O95602   1.618   4.442   6.368
31787WAT     H195603   1.555   4.398   6.304
31787WAT     H295604   1.637   4.535   6.336
31788WAT      O95605   1.653   8.062   6.450
31788WAT     H195606   1.691   8.002   6.520
31788WAT     H295607   1.628   8.150   6.490
31789WAT      O95608   1.258   6.206   4.216
31789WAT     H195609   1.228   6.202   4.121
31789WAT     H295610   1.182   6.184   4.277
31790WAT      O95611   6.327   6.379   5.392
31790WAT     H195612   6.310   6.456   5.330
31790WAT     H295613   6.415   6.338   5.369
31791WAT      O95614   8.366   3.282   7.848
31791WAT     H195615   8.376   3.271   7.947
31791WAT     H295616   8.311   3.207   7.812
31792WAT      O95617   6.406   7.397   8.235
31792WAT     H195618   6.383   7.493   8.215
31792WAT     H295619   6.505   7.386   8.235
31793WAT      O95620   0.659   8.074   6.691
31793WAT     H195621   0.642   8.035   6.782
31793WAT     H295622   0.757   8.092   6.680
31794WAT      O95623   4.352   3.070   3.956
31794WAT     H195624   4.407   2.993   3.926
31794WAT     H295625   4.336   3.063   4.055
31795WAT      O95626   5.848   3.487   9.732
31795WAT     H195627   5.912   3.531   9.669
31795WAT     H295628   5.798   3.558   9.782
31796WAT      O95629   6.999   4.736   5.766
31796WAT     H195630   7.028   4.771   5.855
31796WAT     H295631   7.062   4.767   5.695
31797WAT      O95632   0.943   4.790   9.367
31797WAT     H195633   0.972   4.856   9.298
31797WAT     H295634   0.927   4.837   9.453
31798WAT      O95635   1.800   3.924   9.868
31798WAT     H195636   1.871   3.918   9.797
31798WAT     H295637   1.843   3.944   9.956
31799WAT      O95638   6.009   4.339   9.605
31799WAT     H195639   6.071   4.408   9.569
31799WAT     H295640   6.060   4.274   9.661
31800WAT      O95641   2.857   3.538   6.552
31800WAT     H195642   2.819   3.519   6.643
31800WAT     H295643   2.839   3.634   6.529
31801WAT      O95644   4.432   4.211   0.113
31801WAT     H195645   4.509   4.181   0.056
31801WAT     H295646   4.422   4.148   0.190
31802WAT      O95647   6.512   9.219   3.235
31802WAT     H195648   6.569   9.199   3.155
31802WAT     H295649   6.487   9.316   3.235
31803WAT      O95650   9.086   3.347   5.191
31803WAT     H195651   9.043   3.417   5.134
31803WAT     H295652   9.026   3.267   5.196
31804WAT      O95653   3.467   6.977   9.813
31804WAT     H195654   3.409   7.042   9.862
31804WAT     H295655   3.562   7.007   9.817
31805WAT      O95656   1.590   0.334   5.555
31805WAT     H195657   1.507   0.376   5.591
31805WAT     H295658   1.622   0.264   5.619
31806WAT      O95659   3.487   7.959   3.661
31806WAT     H195660   3.512   7.881   3.603
31806WAT     H295661   3.397   7.994   3.633
31807WAT      O95662   7.301   5.994   5.459
31807WAT     H195663   7.322   5.901   5.487
31807WAT     H295664   7.378   6.032   5.408
31808WAT      O95665   3.137   7.032   0.971
31808WAT     H195666   3.193   7.111   0.997
31808WAT     H295667   3.049   7.036   1.018
31809WAT      O95668   0.730   2.350   4.898
31809WAT     H195669   0.712   2.254   4.879
31809WAT     H295670   0.684   2.407   4.830
31810WAT      O95671   3.657   8.067   7.259
31810WAT     H195672   3.752   8.036   7.272
31810WAT     H295673   3.643   8.093   7.164
31811WAT      O95674   9.393   5.738   6.481
31811WAT     H195675   9.450   5.754   6.400
31811WAT     H295676   9.355   5.646   6.477
31812WAT      O95677   6.194   2.979   5.311
31812WAT     H195678   6.105   2.998   5.270
31812WAT     H295679   6.190   2.997   5.409
31813WAT      O95680   5.719   8.462   2.244
31813WAT     H195681   5.651   8.485   2.313
31813WAT     H295682   5.777   8.541   2.225
31814WAT      O95683   1.177   1.054   4.167
31814WAT     H195684   1.245   1.011   4.226
31814WAT     H295685   1.117   0.984   4.129
31815WAT      O95686   9.677   2.384   1.122
31815WAT     H195687   9.759   2.396   1.178
31815WAT     H295688   9.628   2.470   1.117
31816WAT      O95689   7.917   3.464   4.425
31816WAT     H195690   8.011   3.498   4.417
31816WAT     H295691   7.917   3.365   4.414
31817WAT      O95692   1.801   3.878   0.299
31817WAT     H195693   1.738   3.937   0.250
31817WAT     H295694   1.792   3.784   0.265
31818WAT      O95695   3.919   9.575   1.072
31818WAT     H195696   3.969   9.533   1.147
31818WAT     H295697   3.821   9.560   1.084
31819WAT      O95698   6.391   5.123   2.014
31819WAT     H195699   6.490   5.105   2.017
31819WAT     H295700   6.348   5.084   2.095
31820WAT      O95701   7.952   6.625   9.798
31820WAT     H195702   7.971   6.550   9.735
31820WAT     H295703   7.877   6.681   9.761
31821WAT      O95704   6.526   4.335   0.434
31821WAT     H195705   6.437   4.380   0.444
31821WAT     H295706   6.575   4.375   0.356
31822WAT      O95707   5.965   5.850   1.403
31822WAT     H195708   5.875   5.855   1.359
31822WAT     H295709   5.953   5.816   1.497
31823WAT      O95710   6.333   1.260   4.832
31823WAT     H195711   6.421   1.275   4.786
31823WAT     H295712   6.335   1.173   4.882
31824WAT      O95713   8.989   0.457   0.893
31824WAT     H195714   9.076   0.409   0.905
31824WAT     H295715   8.915   0.390   0.880
31825WAT      O95716   2.726   4.165   6.489
31825WAT     H195717   2.661   4.106   6.439
31825WAT     H295718   2.750   4.243   6.431
31826WAT      O95719   2.904   7.645   0.941
31826WAT     H195720   2.982   7.618   0.998
31826WAT     H295721   2.857   7.722   0.984
31827WAT      O95722   1.661   0.829   8.468
31827WAT     H195723   1.731   0.821   8.539
31827WAT     H295724   1.588   0.890   8.499
31828WAT      O95725   2.538   2.663   5.325
31828WAT     H195726   2.492   2.579   5.354
31828WAT     H295727   2.562   2.717   5.405
31829WAT      O95728   8.425   4.217   9.330
31829WAT     H195729   8.376   4.152   9.272
31829WAT     H295730   8.465   4.168   9.408
31830WAT      O95731   3.193   5.367   0.381
31830WAT     H195732   3.257   5.372   0.458
31830WAT     H295733   3.100   5.356   0.416
31831WAT      O95734   5.058   0.882   3.986
31831WAT     H195735   5.041   0.875   4.084
31831WAT     H295736   5.004   0.957   3.948
31832WAT      O95737   6.044   7.383   3.424
31832WAT     H195738   5.950   7.351   3.414
31832WAT     H295739   6.087   7.336   3.502
31833WAT      O95740   4.933   7.454   0.690
31833WAT     H195741   4.856   7.483   0.634
31833WAT     H295742   4.994   7.532   0.705
31834WAT      O95743   1.799   0.906   3.857
31834WAT     H195744   1.796   0.873   3.952
31834WAT     H295745   1.715   0.955   3.836
31835WAT      O95746   1.111   2.343   8.375
31835WAT     H195747   1.134   2.374   8.467
31835WAT     H295748   1.135   2.415   8.309
31836WAT      O95749   7.126   4.732   6.953
31836WAT     H195750   7.186   4.720   6.874
31836WAT     H295751   7.064   4.809   6.937
31837WAT      O95752   1.700   4.942   5.678
31837WAT     H195753   1.794   4.974   5.672
31837WAT     H295754   1.654   4.987   5.755
31838WAT      O95755   2.375   0.924   8.098
31838WAT     H195756   2.288   0.938   8.146
31838WAT     H295757   2.423   0.847   8.139
31839WAT      O95758   5.019   2.109   5.073
31839WAT     H195759   5.097   2.156   5.114
31839WAT     H295760   5.018   2.014   5.104
31840WAT      O95761   7.634   1.001   9.120
31840WAT     H195762   7.553   1.002   9.061
31840WAT     H295763   7.645   1.091   9.162
31841WAT      O95764   8.880   8.999   0.141
31841WAT     H195765   8.792   8.986   0.096
31841WAT     H295766   8.904   8.917   0.193
31842WAT      O95767   0.446   2.575   7.324
31842WAT     H195768   0.448   2.544   7.419
31842WAT     H295769   0.481   2.669   7.318
31843WAT      O95770   8.571   0.032   2.287
31843WAT     H195771   8.524  -0.037   2.340
31843WAT     H295772   8.613  -0.010   2.206
31844WAT      O95773   4.122   6.258   0.257
31844WAT     H195774   4.089   6.319   0.186
31844WAT     H295775   4.172   6.182   0.215
31845WAT      O95776   8.804   7.230   3.394
31845WAT     H195777   8.735   7.174   3.348
31845WAT     H295778   8.802   7.210   3.492
31846WAT      O95779   1.367   3.238   9.206
31846WAT     H195780   1.269   3.255   9.193
31846WAT     H295781   1.392   3.151   9.165
31847WAT      O95782   1.835   1.490   4.952
31847WAT     H195783   1.857   1.585   4.932
31847WAT     H295784   1.776   1.485   5.032
31848WAT      O95785   6.888   6.866   3.458
31848WAT     H195786   6.944   6.784   3.467
31848WAT     H295787   6.945   6.947   3.469
31849WAT      O95788   7.109   3.693   4.029
31849WAT     H195789   7.079   3.616   3.972
31849WAT     H295790   7.190   3.735   3.988
31850WAT      O95791   5.300   9.598   5.392
31850WAT     H195792   5.303   9.689   5.350
31850WAT     H295793   5.365   9.594   5.467
31851WAT      O95794   3.355   0.979   1.186
31851WAT     H195795   3.268   0.971   1.234
31851WAT     H295796   3.343   0.951   1.091
31852WAT      O95797   1.574   1.957   0.724
31852WAT     H195798   1.532   1.989   0.809
31852WAT     H295799   1.665   1.921   0.744
31853WAT      O95800   1.213   0.856   5.618
31853WAT     H195801   1.190   0.883   5.712
31853WAT     H295802   1.263   0.770   5.619
31854WAT      O95803   6.801   5.557   0.281
31854WAT     H195804   6.770   5.464   0.265
31854WAT     H295805   6.728   5.621   0.258
31855WAT      O95806   9.237   3.927   2.632
31855WAT     H195807   9.281   3.974   2.555
31855WAT     H295808   9.211   3.834   2.603
31856WAT      O95809   6.161   9.256   9.344
31856WAT     H195810   6.184   9.335   9.288
31856WAT     H295811   6.245   9.213   9.376
31857WAT      O95812   5.095   4.521   2.262
31857WAT     H195813   5.135   4.561   2.344
31857WAT     H295814   4.995   4.516   2.272
31858WAT      O95815   8.689   0.004   9.311
31858WAT     H195816   8.776  -0.042   9.326
31858WAT     H295817   8.641   0.017   9.398
31859WAT      O95818   9.035   5.670   3.773
31859WAT     H195819   9.059   5.591   3.718
31859WAT     H295820   8.970   5.727   3.724
31860WAT      O95821   5.359   8.125   1.075
31860WAT     H195822   5.398   8.086   1.159
31860WAT     H295823   5.274   8.078   1.053
31861WAT      O95824   8.310   3.524   3.786
31861WAT     H195825   8.401   3.491   3.764
31861WAT     H295826   8.316   3.614   3.829
31862WAT      O95827   1.852   3.904   8.731
31862WAT     H195828   1.808   3.993   8.714
31862WAT     H295829   1.808   3.834   8.676
31863WAT      O95830   3.370   8.851   2.580
31863WAT     H195831   3.394   8.818   2.488
31863WAT     H295832   3.290   8.801   2.613
31864WAT      O95833   7.254   4.578   7.970
31864WAT     H195834   7.209   4.623   7.894
31864WAT     H295835   7.352   4.570   7.951
31865WAT      O95836   7.013   3.266   5.436
31865WAT     H195837   6.927   3.317   5.443
31865WAT     H295838   7.013   3.212   5.352
31866WAT      O95839   8.525   8.781   4.319
31866WAT     H195840   8.473   8.698   4.338
31866WAT     H295841   8.468   8.846   4.269
31867WAT      O95842   8.558   9.159   1.344
31867WAT     H195843   8.537   9.190   1.437
31867WAT     H295844   8.638   9.099   1.346
31868WAT      O95845   4.920   3.447   4.944
31868WAT     H195846   4.980   3.469   5.022
31868WAT     H295847   4.974   3.402   4.873
31869WAT      O95848   0.621   9.463   7.189
31869WAT     H195849   0.636   9.365   7.206
31869WAT     H295850   0.672   9.491   7.108
31870WAT      O95851   8.049   9.148   1.265
31870WAT     H195852   8.014   9.057   1.288
31870WAT     H295853   8.142   9.140   1.230
31871WAT      O95854   6.179   9.209   4.861
31871WAT     H195855   6.151   9.131   4.918
31871WAT     H295856   6.137   9.200   4.770
31872WAT      O95857   3.760   4.283   3.972
31872WAT     H195858   3.805   4.323   3.892
31872WAT     H295859   3.801   4.194   3.991
31873WAT      O95860   7.521   3.923   6.412
31873WAT     H195861   7.598   3.981   6.384
31873WAT     H295862   7.483   3.877   6.332
31874WAT      O95863   4.243   5.281   7.861
31874WAT     H195864   4.202   5.324   7.942
31874WAT     H295865   4.280   5.352   7.802
31875WAT      O95866   7.991   1.391   7.784
31875WAT     H195867   7.962   1.478   7.744
31875WAT     H295868   8.054   1.345   7.722
31876WAT      O95869   3.360   1.503   6.255
31876WAT     H195870   3.456   1.527   6.244
31876WAT     H295871   3.308   1.540   6.178
31877WAT      O95872   4.112   1.317   2.905
31877WAT     H195873   4.200   1.283   2.939
31877WAT     H295874   4.115   1.417   2.899
31878WAT      O95875   4.341   5.402   8.193
31878WAT     H195876   4.399   5.367   8.120
31878WAT     H295877   4.391   5.471   8.246
31879WAT      O95878   7.090   8.427   6.952
31879WAT     H195879   7.040   8.451   7.035
31879WAT     H295880   7.188   8.427   6.971
31880WAT      O95881   7.981   4.391   4.646
31880WAT     H195882   8.064   4.446   4.650
31880WAT     H295883   8.002   4.297   4.675
31881WAT      O95884   8.809   6.495   4.815
31881WAT     H195885   8.836   6.465   4.723
31881WAT     H295886   8.841   6.589   4.829
31882WAT      O95887   4.928   0.957   1.022
31882WAT     H195888   4.911   0.871   0.973
31882WAT     H295889   4.866   0.963   1.100
31883WAT      O95890   9.412   1.398   8.765
31883WAT     H195891   9.408   1.383   8.666
31883WAT     H295892   9.320   1.388   8.803
31884WAT      O95893   0.008   5.373   6.319
31884WAT     H195894  -0.014   5.466   6.289
31884WAT     H295895   0.051   5.323   6.245
31885WAT      O95896   9.854   4.566   3.433
31885WAT     H195897   9.819   4.603   3.520
31885WAT     H295898   9.884   4.641   3.375
31886WAT      O95899   5.836   5.539   2.337
31886WAT     H195900   5.840   5.630   2.379
31886WAT     H295901   5.761   5.487   2.377
31887WAT      O95902   8.705   2.768   5.874
31887WAT     H195903   8.700   2.849   5.816
31887WAT     H295904   8.648   2.782   5.955
31888WAT      O95905   6.909   3.263   1.779
31888WAT     H195906   6.842   3.200   1.818
31888WAT     H295907   6.874   3.299   1.692
31889WAT      O95908   7.286   0.167   4.343
31889WAT     H195909   7.282   0.234   4.417
31889WAT     H295910   7.351   0.094   4.367
31890WAT      O95911   9.269   1.966   1.845
31890WAT     H195912   9.281   1.987   1.942
31890WAT     H295913   9.285   2.048   1.791
31891WAT      O95914   9.039   4.425   3.973
31891WAT     H195915   9.034   4.436   3.874
31891WAT     H295916   9.008   4.334   3.998
31892WAT      O95917   5.862   3.063   8.703
31892WAT     H195918   5.841   3.015   8.788
31892WAT     H295919   5.917   3.144   8.722
31893WAT      O95920   9.846   3.088   7.253
31893WAT     H195921   9.838   3.106   7.155
31893WAT     H295922   9.842   3.175   7.303
31894WAT      O95923   1.212   5.782   3.315
31894WAT     H195924   1.216   5.882   3.307
31894WAT     H295925   1.148   5.746   3.247
31895WAT      O95926   4.262   4.490   7.741
31895WAT     H195927   4.163   4.475   7.746
31895WAT     H295928   4.305   4.456   7.824
31896WAT      O95929   0.760   0.510   1.350
31896WAT     H195930   0.810   0.537   1.433
31896WAT     H295931   0.825   0.494   1.276
31897WAT      O95932   8.443   5.860   9.516
31897WAT     H195933   8.346   5.881   9.500
31897WAT     H295934   8.497   5.889   9.437
31898WAT      O95935   1.759   9.569   1.808
31898WAT     H195936   1.795   9.625   1.883
31898WAT     H295937   1.827   9.564   1.734
31899WAT      O95938   0.634   7.040   3.218
31899WAT     H195939   0.580   7.107   3.268
31899WAT     H295940   0.692   7.086   3.151
   9.88928    9.84380    9.89279 
