GROningen MAchine for Chemical Simulation
95940
    1G5    HO5'    1   6.499   3.624   5.410
    1G5     O5'    2   6.594   3.624   5.422
    1G5     C5'    3   6.634   3.604   5.553
    1G5     H5'    4   6.605   3.505   5.588
    1G5    H5''    5   6.588   3.675   5.622
    1G5     C4'    6   6.784   3.607   5.562
    1G5     H4'    7   6.813   3.614   5.667
    1G5     O4'    8   6.844   3.498   5.502
    1G5     C1'    9   6.978   3.527   5.470
    1G5     H1'   10   7.041   3.460   5.527
    1G5      N9   11   6.996   3.483   5.330
    1G5      C8   12   6.901   3.480   5.235
    1G5      H8   13   6.798   3.506   5.255
    1G5      N7   14   6.945   3.456   5.113
    1G5      C5   15   7.080   3.450   5.120
    1G5      C6   16   7.185   3.430   5.023
    1G5      O6   17   7.175   3.404   4.903
    1G5      N1   18   7.310   3.436   5.078
    1G5      H1   19   7.384   3.407   5.016
    1G5      C2   20   7.336   3.451   5.210
    1G5      N2   21   7.461   3.449   5.251
    1G5     H21   22   7.543   3.452   5.193
    1G5     H22   23   7.463   3.458   5.352
    1G5      N3   24   7.243   3.457   5.309
    1G5      C4   25   7.114   3.462   5.257
    1G5     C3'   26   6.850   3.729   5.495
    1G5     H3'   27   6.820   3.733   5.390
    1G5     C2'   28   6.995   3.681   5.505
    1G5     H2'   29   7.063   3.731   5.436
    1G5     O2'   30   7.054   3.684   5.636
    1G5    HO2'   31   6.990   3.717   5.699
    1G5     O3'   32   6.832   3.849   5.575
    2G        P   33   6.830   3.992   5.498
    2G      OP1   34   6.808   4.103   5.593
    2G      OP2   35   6.731   3.980   5.384
    2G      O5'   36   6.967   4.008   5.432
    2G      C5'   37   7.082   4.043   5.519
    2G      H5'   38   7.083   3.959   5.589
    2G     H5''   39   7.058   4.134   5.574
    2G      C4'   40   7.209   4.049   5.442
    2G      H4'   41   7.289   4.072   5.512
    2G      O4'   42   7.250   3.926   5.395
    2G      C1'   43   7.322   3.950   5.271
    2G      H1'   44   7.419   3.903   5.286
    2G       N9   45   7.244   3.890   5.163
    2G       C8   46   7.117   3.853   5.170
    2G       H8   47   7.061   3.865   5.262
    2G       N7   48   7.062   3.807   5.066
    2G       C5   49   7.171   3.807   4.978
    2G       C6   50   7.187   3.765   4.844
    2G       O6   51   7.103   3.718   4.768
    2G       N1   52   7.307   3.803   4.779
    2G       H1   53   7.326   3.782   4.682
    2G       C2   54   7.404   3.861   4.847
    2G       N2   55   7.505   3.894   4.768
    2G      H21   56   7.510   3.884   4.668
    2G      H22   57   7.583   3.932   4.820
    2G       N3   58   7.407   3.886   4.974
    2G       C4   59   7.284   3.869   5.033
    2G      C3'   60   7.223   4.156   5.325
    2G      H3'   61   7.136   4.149   5.260
    2G      C2'   62   7.349   4.103   5.257
    2G      H2'   63   7.350   4.128   5.151
    2G      O2'   64   7.471   4.141   5.327
    2G     HO2'   65   7.476   4.236   5.343
    2G      O3'   66   7.233   4.285   5.378
    3G        P   67   7.164   4.408   5.304
    3G      OP1   68   7.201   4.528   5.377
    3G      OP2   69   7.027   4.364   5.277
    3G      O5'   70   7.244   4.410   5.169
    3G      C5'   71   7.359   4.488   5.155
    3G      H5'   72   7.427   4.456   5.234
    3G     H5''   73   7.342   4.595   5.161
    3G      C4'   74   7.426   4.440   5.021
    3G      H4'   75   7.531   4.471   5.018
    3G      O4'   76   7.418   4.301   5.007
    3G      C1'   77   7.380   4.266   4.876
    3G      H1'   78   7.441   4.192   4.824
    3G       N9   79   7.239   4.214   4.856
    3G       C8   80   7.149   4.187   4.959
    3G       H8   81   7.170   4.223   5.059
    3G       N7   82   7.045   4.128   4.924
    3G       C5   83   7.065   4.105   4.788
    3G       C6   84   6.989   4.035   4.694
    3G       O6   85   6.876   3.980   4.711
    3G       N1   86   7.044   4.022   4.565
    3G       H1   87   6.983   3.987   4.493
    3G       C2   88   7.158   4.088   4.530
    3G       N2   89   7.203   4.101   4.403
    3G      H21   90   7.151   4.068   4.323
    3G      H22   91   7.288   4.155   4.396
    3G       N3   92   7.232   4.158   4.620
    3G       C4   93   7.181   4.156   4.744
    3G      C3'   94   7.352   4.500   4.897
    3G      H3'   95   7.247   4.512   4.921
    3G      C2'   96   7.386   4.392   4.794
    3G      H2'   97   7.324   4.384   4.705
    3G      O2'   98   7.519   4.406   4.754
    3G     HO2'   99   7.559   4.478   4.803
    3G      O3'  100   7.410   4.622   4.872
    4U        P  101   7.329   4.733   4.792
    4U      OP1  102   7.420   4.835   4.741
    4U      OP2  103   7.212   4.774   4.879
    4U      O5'  104   7.269   4.662   4.668
    4U      C5'  105   7.352   4.634   4.557
    4U      H5'  106   7.434   4.565   4.579
    4U     H5''  107   7.397   4.728   4.525
    4U      C4'  108   7.268   4.569   4.441
    4U      H4'  109   7.333   4.579   4.354
    4U      O4'  110   7.235   4.430   4.457
    4U      C1'  111   7.097   4.413   4.407
    4U      H1'  112   7.107   4.337   4.329
    4U       N1  113   6.995   4.390   4.510
    4U       C6  114   7.018   4.420   4.640
    4U       H6  115   7.109   4.473   4.664
    4U       C5  116   6.929   4.384   4.736
    4U       H5  117   6.953   4.407   4.839
    4U       C4  118   6.811   4.308   4.703
    4U       O4  119   6.723   4.265   4.775
    4U       N3  120   6.794   4.287   4.568
    4U       H3  121   6.717   4.226   4.547
    4U       C2  122   6.878   4.323   4.470
    4U       O2  123   6.843   4.307   4.353
    4U      C3'  124   7.143   4.642   4.412
    4U      H3'  125   7.089   4.671   4.502
    4U      C2'  126   7.062   4.545   4.336
    4U      H2'  127   6.955   4.566   4.332
    4U      O2'  128   7.118   4.539   4.201
    4U     HO2'  129   7.161   4.621   4.178
    4U      O3'  130   7.175   4.759   4.330
    5U        P  131   7.093   4.897   4.338
    5U      OP1  132   7.160   5.004   4.262
    5U      OP2  133   7.062   4.907   4.485
    5U      O5'  134   6.954   4.856   4.272
    5U      C5'  135   6.942   4.840   4.133
    5U      H5'  136   7.023   4.786   4.085
    5U     H5''  137   6.937   4.940   4.090
    5U      C4'  138   6.814   4.767   4.096
    5U      H4'  139   6.811   4.752   3.989
    5U      O4'  140   6.808   4.639   4.160
    5U      C1'  141   6.675   4.601   4.166
    5U      H1'  142   6.659   4.520   4.094
    5U       N1  143   6.633   4.565   4.307
    5U       C6  144   6.676   4.631   4.414
    5U       H6  145   6.742   4.717   4.408
    5U       C5  146   6.630   4.607   4.537
    5U       H5  147   6.672   4.658   4.622
    5U       C4  148   6.519   4.517   4.559
    5U       O4  149   6.472   4.480   4.667
    5U       N3  150   6.472   4.466   4.442
    5U       H3  151   6.403   4.392   4.450
    5U       C2  152   6.532   4.478   4.321
    5U       O2  153   6.475   4.428   4.219
    5U      C3'  154   6.679   4.840   4.132
    5U      H3'  155   6.685   4.879   4.234
    5U      C2'  156   6.586   4.719   4.126
    5U      H2'  157   6.499   4.717   4.192
    5U      O2'  158   6.545   4.699   3.998
    5U     HO2'  159   6.512   4.784   3.967
    5U      O3'  160   6.641   4.947   4.035
    6A        P  161   6.515   5.043   4.051
    6A      OP1  162   6.549   5.177   4.010
    6A      OP2  163   6.458   5.021   4.183
    6A      O5'  164   6.414   4.985   3.948
    6A      C5'  165   6.429   4.999   3.802
    6A      H5'  166   6.529   4.959   3.783
    6A     H5''  167   6.425   5.105   3.778
    6A      C4'  168   6.321   4.911   3.738
    6A      H4'  169   6.333   4.910   3.629
    6A      O4'  170   6.334   4.773   3.782
    6A      C1'  171   6.210   4.730   3.826
    6A      H1'  172   6.187   4.637   3.775
    6A       N9  173   6.206   4.699   3.972
    6A       C8  174   6.226   4.779   4.082
    6A       H8  175   6.249   4.884   4.079
    6A       N7  176   6.200   4.723   4.196
    6A       C5  177   6.173   4.591   4.167
    6A       C6  178   6.151   4.468   4.238
    6A       N6  179   6.131   4.461   4.370
    6A      H61  180   6.109   4.367   4.400
    6A      H62  181   6.134   4.544   4.427
    6A       N1  182   6.099   4.357   4.178
    6A       C2  183   6.108   4.358   4.044
    6A       H2  184   6.079   4.265   3.999
    6A       N3  185   6.132   4.462   3.961
    6A       C4  186   6.163   4.579   4.028
    6A      C3'  187   6.185   4.964   3.777
    6A      H3'  188   6.194   5.003   3.879
    6A      C2'  189   6.106   4.834   3.781
    6A      H2'  190   6.024   4.848   3.850
    6A      O2'  191   6.069   4.788   3.653
    6A     HO2'  192   5.980   4.816   3.632
    6A      O3'  193   6.139   5.071   3.695
    7G        P  194   6.004   5.149   3.731
    7G      OP1  195   5.990   5.265   3.641
    7G      OP2  196   6.002   5.154   3.882
    7G      O5'  197   5.900   5.030   3.697
    7G      C5'  198   5.852   5.021   3.558
    7G      H5'  199   5.931   5.003   3.485
    7G     H5''  200   5.820   5.121   3.529
    7G      C4'  201   5.742   4.916   3.542
    7G      H4'  202   5.711   4.895   3.440
    7G      O4'  203   5.786   4.802   3.617
    7G      C1'  204   5.691   4.761   3.718
    7G      H1'  205   5.658   4.658   3.708
    7G       N9  206   5.742   4.759   3.864
    7G       C8  207   5.778   4.869   3.940
    7G       H8  208   5.774   4.966   3.891
    7G       N7  209   5.808   4.836   4.064
    7G       C5  210   5.803   4.699   4.067
    7G       C6  211   5.825   4.599   4.174
    7G       O6  212   5.840   4.622   4.289
    7G       N1  213   5.818   4.468   4.130
    7G       H1  214   5.854   4.405   4.201
    7G       C2  215   5.777   4.432   4.003
    7G       N2  216   5.792   4.303   3.968
    7G      H21  217   5.826   4.237   4.036
    7G      H22  218   5.766   4.271   3.876
    7G       N3  219   5.747   4.517   3.907
    7G       C4  220   5.760   4.650   3.944
    7G      C3'  221   5.616   4.969   3.608
    7G      H3'  222   5.644   5.051   3.674
    7G      C2'  223   5.564   4.853   3.694
    7G      H2'  224   5.527   4.883   3.793
    7G      O2'  225   5.473   4.772   3.615
    7G     HO2'  226   5.396   4.828   3.603
    7G      O3'  227   5.522   5.013   3.510
    8G        P  228   5.386   5.094   3.550
    8G      OP1  229   5.324   5.158   3.432
    8G      OP2  230   5.413   5.166   3.676
    8G      O5'  231   5.279   4.975   3.583
    8G      C5'  232   5.211   4.907   3.479
    8G      H5'  233   5.277   4.861   3.405
    8G     H5''  234   5.148   4.980   3.429
    8G      C4'  235   5.108   4.797   3.530
    8G      H4'  236   5.056   4.766   3.439
    8G      O4'  237   5.182   4.690   3.584
    8G      C1'  238   5.129   4.647   3.707
    8G      H1'  239   5.126   4.539   3.699
    8G       N9  240   5.221   4.676   3.819
    8G       C8  241   5.259   4.789   3.886
    8G       H8  242   5.238   4.891   3.857
    8G       N7  243   5.348   4.776   3.982
    8G       C5  244   5.367   4.635   3.983
    8G       C6  245   5.452   4.562   4.068
    8G       O6  246   5.525   4.598   4.162
    8G       N1  247   5.445   4.425   4.047
    8G       H1  248   5.506   4.372   4.107
    8G       C2  249   5.378   4.367   3.951
    8G       N2  250   5.359   4.240   3.947
    8G      H21  251   5.400   4.175   4.014
    8G      H22  252   5.296   4.208   3.875
    8G       N3  253   5.304   4.435   3.861
    8G       C4  254   5.301   4.573   3.882
    8G      C3'  255   5.011   4.844   3.646
    8G      H3'  256   5.066   4.915   3.709
    8G      C2'  257   4.991   4.712   3.726
    8G      H2'  258   4.960   4.723   3.830
    8G      O2'  259   4.897   4.620   3.661
    8G     HO2'  260   4.811   4.643   3.697
    8G      O3'  261   4.889   4.892   3.602
    9G        P  262   4.783   4.969   3.689
    9G      OP1  263   4.707   5.059   3.603
    9G      OP2  264   4.838   4.998   3.823
    9G      O5'  265   4.689   4.847   3.717
    9G      C5'  266   4.594   4.796   3.626
    9G      H5'  267   4.645   4.767   3.534
    9G     H5''  268   4.532   4.882   3.598
    9G      C4'  269   4.510   4.680   3.676
    9G      H4'  270   4.449   4.646   3.592
    9G      O4'  271   4.586   4.562   3.716
    9G      C1'  272   4.555   4.526   3.844
    9G      H1'  273   4.550   4.417   3.847
    9G       N9  274   4.666   4.576   3.932
    9G       C8  275   4.681   4.690   4.012
    9G       H8  276   4.605   4.768   4.014
    9G       N7  277   4.797   4.685   4.080
    9G       C5  278   4.862   4.570   4.034
    9G       C6  279   4.991   4.513   4.071
    9G       O6  280   5.083   4.558   4.147
    9G       N1  281   5.019   4.398   4.004
    9G       H1  282   5.100   4.346   4.033
    9G       C2  283   4.927   4.331   3.921
    9G       N2  284   4.952   4.201   3.893
    9G      H21  285   5.030   4.155   3.937
    9G      H22  286   4.877   4.151   3.847
    9G       N3  287   4.809   4.376   3.893
    9G       C4  288   4.783   4.499   3.947
    9G      C3'  289   4.418   4.718   3.795
    9G      H3'  290   4.470   4.792   3.856
    9G      C2'  291   4.414   4.577   3.868
    9G      H2'  292   4.391   4.597   3.973
    9G      O2'  293   4.323   4.481   3.796
    9G     HO2'  294   4.237   4.524   3.794
    9G      O3'  295   4.291   4.771   3.759
   10U        P  296   4.204   4.852   3.865
   10U      OP1  297   4.099   4.929   3.792
   10U      OP2  298   4.287   4.928   3.960
   10U      O5'  299   4.125   4.737   3.947
   10U      C5'  300   4.004   4.681   3.898
   10U      H5'  301   3.997   4.651   3.793
   10U     H5''  302   3.928   4.759   3.911
   10U      C4'  303   3.988   4.561   3.980
   10U      H4'  304   3.895   4.515   3.946
   10U      O4'  305   4.094   4.471   3.973
   10U      C1'  306   4.085   4.395   4.091
   10U      H1'  307   4.037   4.300   4.068
   10U       N1  308   4.226   4.372   4.144
   10U       C6  309   4.299   4.482   4.171
   10U       H6  310   4.263   4.582   4.157
   10U       C5  311   4.425   4.457   4.219
   10U       H5  312   4.482   4.547   4.236
   10U       C4  313   4.472   4.329   4.264
   10U       O4  314   4.574   4.309   4.335
   10U       N3  315   4.393   4.223   4.231
   10U       H3  316   4.426   4.131   4.254
   10U       C2  317   4.265   4.241   4.175
   10U       O2  318   4.191   4.149   4.162
   10U      C3'  319   3.969   4.600   4.128
   10U      H3'  320   4.054   4.661   4.158
   10U      C2'  321   3.998   4.469   4.193
   10U      H2'  322   4.049   4.470   4.289
   10U      O2'  323   3.870   4.405   4.199
   10U     HO2'  324   3.816   4.477   4.231
   10U      O3'  325   3.855   4.665   4.176
   11U        P  326   3.846   4.731   4.318
   11U      OP1  327   3.714   4.799   4.331
   11U      OP2  328   3.975   4.801   4.338
   11U      O5'  329   3.839   4.609   4.426
   11U      C5'  330   3.710   4.560   4.476
   11U      H5'  331   3.646   4.536   4.391
   11U     H5''  332   3.669   4.638   4.540
   11U      C4'  333   3.716   4.430   4.559
   11U      H4'  334   3.612   4.400   4.575
   11U      O4'  335   3.765   4.326   4.472
   11U      C1'  336   3.840   4.236   4.550
   11U      H1'  337   3.800   4.138   4.525
   11U       N1  338   3.985   4.239   4.529
   11U       C6  339   4.054   4.356   4.506
   11U       H6  340   3.990   4.440   4.480
   11U       C5  341   4.186   4.370   4.517
   11U       H5  342   4.233   4.464   4.492
   11U       C4  343   4.264   4.255   4.560
   11U       O4  344   4.382   4.258   4.592
   11U       N3  345   4.201   4.136   4.564
   11U       H3  346   4.248   4.064   4.617
   11U       C2  347   4.062   4.120   4.555
   11U       O2  348   4.005   4.009   4.583
   11U      C3'  349   3.788   4.421   4.694
   11U      H3'  350   3.884   4.471   4.686
   11U      C2'  351   3.812   4.267   4.696
   11U      H2'  352   3.899   4.260   4.761
   11U      O2'  353   3.702   4.196   4.745
   11U     HO2'  354   3.642   4.258   4.787
   11U      O3'  355   3.714   4.472   4.801
   12A        P  356   3.762   4.602   4.876
   12A      OP1  357   3.670   4.613   4.998
   12A      OP2  358   3.779   4.717   4.779
   12A      O5'  359   3.906   4.574   4.926
   12A      C5'  360   3.919   4.476   5.026
   12A      H5'  361   3.858   4.388   5.006
   12A     H5''  362   3.881   4.510   5.121
   12A      C4'  363   4.069   4.422   5.028
   12A      H4'  364   4.071   4.333   5.090
   12A      O4'  365   4.119   4.390   4.901
   12A      C1'  366   4.262   4.399   4.905
   12A      H1'  367   4.307   4.301   4.891
   12A       N9  368   4.311   4.489   4.798
   12A       C8  369   4.233   4.595   4.749
   12A       H8  370   4.129   4.611   4.772
   12A       N7  371   4.294   4.668   4.657
   12A       C5  372   4.425   4.621   4.658
   12A       C6  373   4.549   4.646   4.591
   12A       N6  374   4.575   4.734   4.496
   12A      H61  375   4.667   4.743   4.456
   12A      H62  376   4.500   4.787   4.454
   12A       N1  377   4.664   4.581   4.617
   12A       C2  378   4.651   4.493   4.715
   12A       H2  379   4.742   4.442   4.743
   12A       N3  380   4.551   4.457   4.789
   12A       C4  381   4.433   4.519   4.753
   12A      C3'  382   4.166   4.536   5.073
   12A      H3'  383   4.149   4.625   5.013
   12A      C2'  384   4.295   4.459   5.035
   12A      H2'  385   4.375   4.533   5.037
   12A      O2'  386   4.322   4.358   5.134
   12A     HO2'  387   4.393   4.384   5.193
   12A      O3'  388   4.155   4.580   5.208
   13G        P  389   4.157   4.729   5.252
   13G      OP1  390   4.132   4.741   5.398
   13G      OP2  391   4.052   4.795   5.166
   13G      O5'  392   4.299   4.777   5.210
   13G      C5'  393   4.407   4.741   5.293
   13G      H5'  394   4.427   4.634   5.287
   13G     H5''  395   4.392   4.774   5.396
   13G      C4'  396   4.538   4.805   5.240
   13G      H4'  397   4.621   4.781   5.306
   13G      O4'  398   4.571   4.753   5.109
   13G      C1'  399   4.635   4.857   5.035
   13G      H1'  400   4.735   4.826   5.006
   13G       N9  401   4.546   4.883   4.917
   13G       C8  402   4.412   4.868   4.902
   13G       H8  403   4.352   4.810   4.971
   13G       N7  404   4.360   4.927   4.799
   13G       C5  405   4.469   4.987   4.739
   13G       C6  406   4.482   5.077   4.628
   13G       O6  407   4.393   5.136   4.560
   13G       N1  408   4.612   5.114   4.602
   13G       H1  409   4.634   5.172   4.523
   13G       C2  410   4.717   5.063   4.668
   13G       N2  411   4.828   5.103   4.628
   13G      H21  412   4.833   5.178   4.560
   13G      H22  413   4.907   5.071   4.683
   13G       N3  414   4.709   4.987   4.779
   13G       C4  415   4.581   4.950   4.806
   13G      C3'  416   4.531   4.952   5.228
   13G      H3'  417   4.440   4.967   5.170
   13G      C2'  418   4.647   4.975   5.134
   13G      H2'  419   4.642   5.072   5.084
   13G      O2'  420   4.779   4.961   5.203
   13G     HO2'  421   4.772   4.993   5.294
   13G      O3'  422   4.541   5.038   5.340
   14G        P  423   4.488   5.187   5.339
   14G      OP1  424   4.540   5.242   5.470
   14G      OP2  425   4.344   5.188   5.316
   14G      O5'  426   4.558   5.255   5.226
   14G      C5'  427   4.702   5.289   5.238
   14G      H5'  428   4.764   5.207   5.274
   14G     H5''  429   4.716   5.359   5.320
   14G      C4'  430   4.757   5.355   5.109
   14G      H4'  431   4.865   5.367   5.125
   14G      O4'  432   4.748   5.273   4.994
   14G      C1'  433   4.704   5.351   4.890
   14G      H1'  434   4.761   5.333   4.798
   14G       N9  435   4.559   5.332   4.853
   14G       C8  436   4.454   5.278   4.921
   14G       H8  437   4.470   5.232   5.017
   14G       N7  438   4.339   5.296   4.865
   14G       C5  439   4.367   5.358   4.742
   14G       C6  440   4.289   5.404   4.637
   14G       O6  441   4.171   5.396   4.619
   14G       N1  442   4.358   5.468   4.532
   14G       H1  443   4.305   5.485   4.448
   14G       C2  444   4.491   5.496   4.539
   14G       N2  445   4.540   5.581   4.455
   14G      H21  446   4.479   5.623   4.386
   14G      H22  447   4.634   5.615   4.472
   14G       N3  448   4.569   5.465   4.639
   14G       C4  449   4.501   5.391   4.733
   14G      C3'  450   4.692   5.490   5.075
   14G      H3'  451   4.584   5.476   5.088
   14G      C2'  452   4.726   5.499   4.930
   14G      H2'  453   4.659   5.565   4.874
   14G      O2'  454   4.865   5.533   4.914
   14G     HO2'  455   4.887   5.603   4.975
   14G      O3'  456   4.741   5.602   5.146
   15G        P  457   4.667   5.738   5.148
   15G      OP1  458   4.784   5.829   5.181
   15G      OP2  459   4.552   5.731   5.246
   15G      O5'  460   4.606   5.763   5.004
   15G      C5'  461   4.667   5.828   4.899
   15G      H5'  462   4.744   5.758   4.866
   15G     H5''  463   4.726   5.912   4.934
   15G      C4'  464   4.566   5.872   4.797
   15G      H4'  465   4.629   5.915   4.718
   15G      O4'  466   4.506   5.762   4.729
   15G      C1'  467   4.381   5.809   4.686
   15G      H1'  468   4.367   5.796   4.578
   15G       N9  469   4.269   5.726   4.732
   15G       C8  470   4.266   5.636   4.835
   15G       H8  471   4.355   5.613   4.892
   15G       N7  472   4.145   5.587   4.863
   15G       C5  473   4.070   5.636   4.753
   15G       C6  474   3.937   5.603   4.699
   15G       O6  475   3.860   5.514   4.738
   15G       N1  476   3.900   5.682   4.592
   15G       H1  477   3.804   5.682   4.560
   15G       C2  478   3.980   5.776   4.538
   15G       N2  479   3.941   5.838   4.435
   15G      H21  480   3.851   5.819   4.394
   15G      H22  481   4.009   5.886   4.377
   15G       N3  482   4.106   5.799   4.571
   15G       C4  483   4.146   5.724   4.677
   15G      C3'  484   4.450   5.958   4.843
   15G      H3'  485   4.390   5.911   4.922
   15G      C2'  486   4.358   5.955   4.723
   15G      H2'  487   4.256   5.978   4.752
   15G      O2'  488   4.389   6.043   4.618
   15G     HO2'  489   4.406   6.123   4.668
   15G      O3'  490   4.483   6.089   4.888
   16U        P  491   4.397   6.169   5.003
   16U      OP1  492   4.453   6.301   5.015
   16U      OP2  493   4.384   6.081   5.123
   16U      O5'  494   4.248   6.174   4.930
   16U      C5'  495   4.205   6.286   4.850
   16U      H5'  496   4.255   6.290   4.753
   16U     H5''  497   4.223   6.376   4.909
   16U      C4'  498   4.057   6.265   4.824
   16U      H4'  499   4.011   6.342   4.763
   16U      O4'  500   4.018   6.136   4.773
   16U      C1'  501   3.904   6.087   4.836
   16U      H1'  502   3.820   6.074   4.768
   16U       N1  503   3.915   5.956   4.908
   16U       C6  504   4.026   5.926   4.987
   16U       H6  505   4.095   6.007   4.998
   16U       C5  506   4.025   5.807   5.057
   16U       H5  507   4.111   5.792   5.120
   16U       C4  508   3.917   5.710   5.045
   16U       O4  509   3.906   5.604   5.103
   16U       N3  510   3.808   5.755   4.971
   16U       H3  511   3.733   5.688   4.958
   16U       C2  512   3.801   5.871   4.901
   16U       O2  513   3.712   5.890   4.818
   16U      C3'  514   3.973   6.281   4.960
   16U      H3'  515   4.034   6.232   5.035
   16U      C2'  516   3.853   6.199   4.924
   16U      H2'  517   3.805   6.158   5.013
   16U      O2'  518   3.760   6.268   4.852
   16U     HO2'  519   3.790   6.359   4.846
   16U      O3'  520   3.927   6.408   4.998
   17U        P  521   3.932   6.459   5.149
   17U      OP1  522   3.877   6.597   5.154
   17U      OP2  523   4.059   6.432   5.216
   17U      O5'  524   3.838   6.352   5.225
   17U      C5'  525   3.695   6.361   5.214
   17U      H5'  526   3.665   6.360   5.109
   17U     H5''  527   3.659   6.457   5.250
   17U      C4'  528   3.625   6.243   5.286
   17U      H4'  529   3.517   6.235   5.279
   17U      O4'  530   3.670   6.120   5.221
   17U      C1'  531   3.674   6.019   5.319
   17U      H1'  532   3.599   5.944   5.298
   17U       N1  533   3.807   5.939   5.319
   17U       C6  534   3.924   6.004   5.312
   17U       H6  535   3.931   6.106   5.279
   17U       C5  536   4.040   5.940   5.348
   17U       H5  537   4.128   6.003   5.342
   17U       C4  538   4.039   5.801   5.397
   17U       O4  539   4.138   5.735   5.427
   17U       N3  540   3.913   5.748   5.405
   17U       H3  541   3.898   5.660   5.453
   17U       C2  542   3.798   5.815   5.380
   17U       O2  543   3.696   5.745   5.392
   17U      C3'  544   3.669   6.226   5.435
   17U      H3'  545   3.774   6.251   5.451
   17U      C2'  546   3.644   6.079   5.459
   17U      H2'  547   3.701   6.041   5.544
   17U      O2'  548   3.513   6.038   5.492
   17U     HO2'  549   3.485   6.074   5.576
   17U      O3'  550   3.585   6.308   5.517
   18A        P  551   3.586   6.301   5.680
   18A      OP1  552   3.532   6.429   5.732
   18A      OP2  553   3.722   6.255   5.714
   18A      O5'  554   3.486   6.185   5.720
   18A      C5'  555   3.350   6.202   5.739
   18A      H5'  556   3.302   6.212   5.642
   18A     H5''  557   3.339   6.285   5.810
   18A      C4'  558   3.298   6.071   5.802
   18A      H4'  559   3.190   6.071   5.793
   18A      O4'  560   3.350   5.969   5.714
   18A      C1'  561   3.407   5.870   5.801
   18A      H1'  562   3.361   5.775   5.774
   18A       N9  563   3.551   5.851   5.776
   18A       C8  564   3.670   5.925   5.799
   18A       H8  565   3.675   6.027   5.832
   18A       N7  566   3.782   5.863   5.767
   18A       C5  567   3.738   5.734   5.730
   18A       C6  568   3.804   5.622   5.684
   18A       N6  569   3.936   5.605   5.675
   18A      H61  570   3.976   5.514   5.656
   18A      H62  571   3.988   5.680   5.717
   18A       N1  572   3.743   5.508   5.656
   18A       C2  573   3.610   5.515   5.660
   18A       H2  574   3.559   5.422   5.635
   18A       N3  575   3.531   5.620   5.687
   18A       C4  576   3.600   5.729   5.735
   18A      C3'  577   3.341   6.047   5.948
   18A      H3'  578   3.439   6.095   5.947
   18A      C2'  579   3.365   5.897   5.943
   18A      H2'  580   3.449   5.874   6.009
   18A      O2'  581   3.251   5.818   5.985
   18A     HO2'  582   3.220   5.833   6.075
   18A      O3'  583   3.254   6.100   6.039
   19G        P  584   3.277   6.089   6.198
   19G      OP1  585   3.194   6.181   6.273
   19G      OP2  586   3.426   6.103   6.215
   19G      O5'  587   3.229   5.945   6.237
   19G      C5'  588   3.092   5.913   6.265
   19G      H5'  589   3.022   5.917   6.181
   19G     H5''  590   3.060   5.976   6.348
   19G      C4'  591   3.075   5.767   6.298
   19G      H4'  592   2.968   5.766   6.316
   19G      O4'  593   3.103   5.682   6.189
   19G      C1'  594   3.192   5.578   6.237
   19G      H1'  595   3.157   5.482   6.197
   19G       N9  596   3.332   5.602   6.195
   19G       C8  597   3.421   5.703   6.237
   19G       H8  598   3.391   5.782   6.304
   19G       N7  599   3.543   5.689   6.192
   19G       C5  600   3.533   5.573   6.109
   19G       C6  601   3.635   5.506   6.034
   19G       O6  602   3.749   5.546   6.017
   19G       N1  603   3.584   5.392   5.967
   19G       H1  604   3.645   5.333   5.913
   19G       C2  605   3.450   5.360   5.959
   19G       N2  606   3.409   5.278   5.866
   19G      H21  607   3.481   5.229   5.816
   19G      H22  608   3.308   5.267   5.873
   19G       N3  609   3.357   5.422   6.029
   19G       C4  610   3.404   5.524   6.104
   19G      C3'  611   3.138   5.720   6.426
   19G      H3'  612   3.231   5.773   6.445
   19G      C2'  613   3.176   5.575   6.388
   19G      H2'  614   3.265   5.545   6.443
   19G      O2'  615   3.058   5.481   6.418
   19G     HO2'  616   3.069   5.464   6.512
   19G      O3'  617   3.064   5.725   6.545
   20G        P  618   3.128   5.738   6.689
   20G      OP1  619   3.033   5.815   6.774
   20G      OP2  620   3.271   5.779   6.682
   20G      O5'  621   3.113   5.583   6.725
   20G      C5'  622   2.988   5.527   6.759
   20G      H5'  623   2.928   5.553   6.671
   20G     H5''  624   2.942   5.578   6.844
   20G      C4'  625   3.013   5.378   6.773
   20G      H4'  626   2.921   5.339   6.817
   20G      O4'  627   3.045   5.315   6.652
   20G      C1'  628   3.141   5.212   6.677
   20G      H1'  629   3.117   5.123   6.620
   20G       N9  630   3.268   5.261   6.624
   20G       C8  631   3.372   5.343   6.669
   20G       H8  632   3.356   5.388   6.766
   20G       N7  633   3.472   5.366   6.588
   20G       C5  634   3.437   5.281   6.480
   20G       C6  635   3.505   5.264   6.354
   20G       O6  636   3.608   5.311   6.312
   20G       N1  637   3.444   5.174   6.264
   20G       H1  638   3.497   5.126   6.193
   20G       C2  639   3.329   5.111   6.300
   20G       N2  640   3.276   5.021   6.217
   20G      H21  641   3.313   5.018   6.123
   20G      H22  642   3.192   4.968   6.235
   20G       N3  643   3.258   5.126   6.414
   20G       C4  644   3.319   5.216   6.505
   20G      C3'  645   3.105   5.322   6.883
   20G      H3'  646   3.186   5.395   6.886
   20G      C2'  647   3.141   5.187   6.825
   20G      H2'  648   3.241   5.163   6.860
   20G      O2'  649   3.054   5.078   6.841
   20G     HO2'  650   3.080   5.054   6.930
   20G      O3'  651   3.041   5.313   7.017
   21G3       P  652   3.131   5.277   7.141
   21G3     OP1  653   3.045   5.311   7.256
   21G3     OP2  654   3.264   5.335   7.137
   21G3     O5'  655   3.133   5.126   7.121
   21G3     C5'  656   3.029   5.042   7.162
   21G3     H5'  657   2.940   5.066   7.103
   21G3    H5''  658   2.998   5.053   7.266
   21G3     C4'  659   3.070   4.896   7.127
   21G3     H4'  660   2.986   4.830   7.147
   21G3     O4'  661   3.108   4.876   6.998
   21G3     C1'  662   3.230   4.802   6.986
   21G3     H1'  663   3.218   4.718   6.919
   21G3      N9  664   3.337   4.897   6.942
   21G3      C8  665   3.414   4.992   7.010
   21G3      H8  666   3.413   5.010   7.116
   21G3      N7  667   3.506   5.052   6.932
   21G3      C5  668   3.483   4.995   6.807
   21G3      C6  669   3.551   5.016   6.686
   21G3      O6  670   3.649   5.087   6.663
   21G3      N1  671   3.492   4.958   6.578
   21G3      H1  672   3.539   4.964   6.488
   21G3      C2  673   3.387   4.874   6.584
   21G3      N2  674   3.345   4.811   6.480
   21G3     H21  675   3.394   4.819   6.392
   21G3     H22  676   3.254   4.767   6.481
   21G3      N3  677   3.326   4.847   6.697
   21G3      C4  678   3.374   4.908   6.807
   21G3     C3'  679   3.185   4.832   7.216
   21G3     H3'  680   3.235   4.921   7.254
   21G3     C2'  681   3.261   4.740   7.119
   21G3     H2'  682   3.368   4.725   7.137
   21G3     O2'  683   3.209   4.609   7.128
   21G3    HO2'  684   3.124   4.614   7.170
   21G3     O3'  685   3.129   4.765   7.335
   21G3    HO3'  686   3.207   4.740   7.387
   22Cl-    Cl-  687   7.849   1.355   7.030
   23Cl-    Cl-  688   0.639   6.957   5.322
   24Cl-    Cl-  689   7.241   7.454   0.658
   25Cl-    Cl-  690   7.804   1.598   9.509
   26Cl-    Cl-  691   7.446   3.266   3.918
   27Cl-    Cl-  692   5.465   7.249   0.066
   28Cl-    Cl-  693   3.030   3.389   2.223
   29Cl-    Cl-  694   2.857   4.120   0.266
   30Cl-    Cl-  695   5.172   0.147   5.214
   31Cl-    Cl-  696   3.615   7.890   2.672
   32Cl-    Cl-  697   1.512   0.377   2.752
   33Cl-    Cl-  698   3.966   6.491   7.134
   34Cl-    Cl-  699   7.358   0.663   2.325
   35Cl-    Cl-  700   2.934   8.129   7.816
   36Cl-    Cl-  701   6.347   3.220   1.911
   37Cl-    Cl-  702   5.652   5.750   8.360
   38Cl-    Cl-  703   0.060   4.274   8.912
   39Cl-    Cl-  704   6.957   1.999   4.425
   40Cl-    Cl-  705   2.347   8.170   6.460
   41Cl-    Cl-  706   8.147   8.079   4.020
   42Cl-    Cl-  707   1.201   5.638   2.437
   43Cl-    Cl-  708   1.054   7.411   4.626
   44Cl-    Cl-  709   7.076   8.999   5.720
   45Cl-    Cl-  710   3.199   3.590   9.044
   46Cl-    Cl-  711   3.290   3.092   2.902
   47Cl-    Cl-  712   6.391   0.609   8.644
   48Cl-    Cl-  713   0.466   1.699   3.482
   49Cl-    Cl-  714   2.821   7.378   7.822
   50Cl-    Cl-  715   6.563   7.799   0.021
   51Cl-    Cl-  716   1.416   6.583   3.559
   52Cl-    Cl-  717   5.756   3.585   6.523
   53Cl-    Cl-  718   2.586   2.573   9.298
   54Cl-    Cl-  719   9.066   7.990   7.108
   55Cl-    Cl-  720   9.332   8.118   2.499
   56Cl-    Cl-  721   0.234   9.401   8.224
   57Cl-    Cl-  722   1.489   3.595   1.110
   58Cl-    Cl-  723   8.278   3.647   6.002
   59Cl-    Cl-  724   9.862   2.072   4.639
   60Cl-    Cl-  725   4.981   6.284   2.538
   61Cl-    Cl-  726   7.090   7.018   3.549
   62Cl-    Cl-  727   4.927   0.776   5.986
   63Cl-    Cl-  728   7.130   9.800   7.402
   64Cl-    Cl-  729   9.256   5.439   1.997
   65Cl-    Cl-  730   0.250   6.669   2.660
   66Cl-    Cl-  731   8.219   0.626   2.022
   67Cl-    Cl-  732   0.139   7.171   1.592
   68Cl-    Cl-  733   1.309   2.145   8.414
   69Cl-    Cl-  734   6.638   2.559   8.283
   70Cl-    Cl-  735   6.841   1.205   5.778
   71Cl-    Cl-  736   0.071   9.437   3.704
   72Cl-    Cl-  737   7.033   8.948   0.999
   73Cl-    Cl-  738   6.193   9.428   3.702
   74Cl-    Cl-  739   2.538   2.792   4.470
   75Cl-    Cl-  740   9.317   4.704   4.633
   76Cl-    Cl-  741   1.933   3.392   6.377
   77Cl-    Cl-  742   6.416   9.575   9.443
   78Cl-    Cl-  743   6.823   1.946   2.398
   79Cl-    Cl-  744   5.550   6.875   8.972
   80Cl-    Cl-  745   9.713   2.661   9.354
   81Cl-    Cl-  746   4.786   3.872   8.534
   82Cl-    Cl-  747   0.038   4.888   0.025
   83Cl-    Cl-  748   3.429   7.608   7.117
   84Cl-    Cl-  749   7.624   7.151   5.915
   85Cl-    Cl-  750   2.561   1.536   7.567
   86Cl-    Cl-  751   3.664   8.485   1.468
   87Cl-    Cl-  752   4.068   6.541   1.637
   88Cl-    Cl-  753   9.515   6.357   4.287
   89Cl-    Cl-  754   1.102   0.983   8.896
   90Cl-    Cl-  755   5.332   9.331   4.916
   91Cl-    Cl-  756   1.435   6.713   8.336
   92Cl-    Cl-  757   7.899   6.677   9.849
   93Cl-    Cl-  758   7.407   1.197   8.701
   94Cl-    Cl-  759   1.296   3.049   2.677
   95Cl-    Cl-  760   3.184   0.718   4.347
   96Cl-    Cl-  761   8.300   5.846   6.367
   97Cl-    Cl-  762   8.055   4.806   5.106
   98Cl-    Cl-  763   2.949   6.149   2.365
   99Cl-    Cl-  764   6.100   8.765   3.061
  100Cl-    Cl-  765   7.360   5.887   1.880
  101Cl-    Cl-  766   2.547   8.496   0.455
  102Cl-    Cl-  767   5.380   0.022   6.869
  103Cl-    Cl-  768   2.935   0.711   0.364
  104Cl-    Cl-  769   6.914   6.281   8.041
  105Cl-    Cl-  770   1.559   4.462   0.312
  106Cl-    Cl-  771   1.534   7.438   5.887
  107K+      K+  772   4.803   6.274   5.222
  108K+      K+  773   5.110   5.681   8.158
  109K+      K+  774   2.870   7.379   5.044
  110K+      K+  775   1.014   5.212   9.496
  111K+      K+  776   2.601   2.797   7.442
  112K+      K+  777   6.514   3.720   8.933
  113K+      K+  778   6.916   9.412   5.965
  114K+      K+  779   2.087   9.023   9.277
  115K+      K+  780   7.172   9.014   5.245
  116K+      K+  781   8.025   1.186   4.576
  117K+      K+  782   4.814   4.326   0.275
  118K+      K+  783   6.011   4.751   4.796
  119K+      K+  784   5.838   0.770   8.507
  120K+      K+  785   4.085   6.615   6.323
  121K+      K+  786   9.626   3.489   2.317
  122K+      K+  787   4.105   5.008   4.724
  123K+      K+  788   8.783   5.441   2.236
  124K+      K+  789   8.266   2.321   2.794
  125K+      K+  790   5.863   4.908   4.353
  126K+      K+  791   3.134   2.295   2.184
  127K+      K+  792   0.182   6.232   9.091
  128K+      K+  793   9.542   7.283   0.860
  129K+      K+  794   3.377   4.422   6.493
  130K+      K+  795   1.339   3.724   4.603
  131K+      K+  796   8.424   3.997   4.693
  132K+      K+  797   0.986   0.380   7.093
  133K+      K+  798   7.203   8.355   7.188
  134K+      K+  799   6.500   7.539   1.983
  135K+      K+  800   8.414   1.626   1.234
  136K+      K+  801   4.171   5.379   5.056
  137K+      K+  802   9.064   1.952   7.840
  138K+      K+  803   7.356   1.404   7.695
  139K+      K+  804   2.294   6.393   6.354
  140K+      K+  805   7.309   8.963   9.703
  141K+      K+  806   7.614   6.648   4.821
  142K+      K+  807   6.725   5.285   4.461
  143K+      K+  808   9.808   5.375   2.374
  144K+      K+  809   6.318   6.225   9.172
  145K+      K+  810   9.014   0.917   1.887
  146K+      K+  811   2.941   2.488   0.446
  147K+      K+  812   6.563   6.062   7.141
  148K+      K+  813   3.160   6.787   2.788
  149K+      K+  814   3.413   5.529   8.211
  150K+      K+  815   6.527   0.386   7.730
  151K+      K+  816   0.665   2.451   3.958
  152K+      K+  817   8.348   4.321   5.539
  153K+      K+  818   6.118   5.409   3.477
  154K+      K+  819   5.318   0.576   5.237
  155K+      K+  820   0.610   7.620   3.875
  156K+      K+  821   3.985   7.392   6.518
  157K+      K+  822   5.467   4.117   3.574
  158K+      K+  823   4.721   4.084   4.471
  159K+      K+  824   2.645   2.976   9.635
  160K+      K+  825   8.833   7.625   1.955
  161K+      K+  826   1.349   5.803   2.074
  162K+      K+  827   4.307   5.599   5.625
  163K+      K+  828   4.214   6.168   5.716
  164K+      K+  829   2.888   8.398   3.439
  165K+      K+  830   5.241   1.198   1.244
  166K+      K+  831   6.972   0.847   7.177
  167K+      K+  832   3.705   5.843   6.354
  168K+      K+  833   6.699   9.113   1.974
  169K+      K+  834   6.771   4.075   4.954
  170K+      K+  835   6.195   6.766   0.957
  171K+      K+  836   4.325   4.267   3.656
  172K+      K+  837   2.107   1.620   1.406
  173K+      K+  838   2.824   8.590   7.850
  174K+      K+  839   2.934   7.232   9.043
  175K+      K+  840   5.506   4.954   4.145
  176K+      K+  841   0.336   8.093   6.175
  177K+      K+  842   7.771   0.019   1.096
  178K+      K+  843   1.966   6.488   6.076
  179K+      K+  844   9.784   3.108   2.164
  180K+      K+  845   2.323   6.488   3.629
  181K+      K+  846   1.144   3.750   1.825
  182K+      K+  847   7.306   6.558   7.440
  183K+      K+  848   1.509   0.725   4.845
  184K+      K+  849   4.925   2.799   9.086
  185K+      K+  850   6.713   0.099   0.544
  186K+      K+  851   4.324   6.925   7.724
  187K+      K+  852   0.560   8.291   8.324
  188K+      K+  853   5.767   9.281   5.108
  189K+      K+  854   1.738   1.696   6.741
  190K+      K+  855   2.872   4.319   0.484
  191K+      K+  856   4.719   5.136   4.031
  192K+      K+  857   5.279   9.822   2.933
  193K+      K+  858   4.330   5.879   1.954
  194K+      K+  859   5.990   3.850   6.015
  195K+      K+  860   4.124   5.625   6.230
  196K+      K+  861   0.180   6.015   5.299
  197K+      K+  862   9.447   6.881   2.792
  198K+      K+  863   9.882   9.004   1.342
  199K+      K+  864   9.073   7.967   4.300
  200K+      K+  865   3.946   5.340   3.832
  201K+      K+  866   8.712   0.458   7.156
  202K+      K+  867   9.510   6.886   5.337
  203K+      K+  868   2.677   1.303   3.436
  204K+      K+  869   1.825   9.030   1.328
  205K+      K+  870   9.029   3.170   6.535
  206K+      K+  871   5.206   7.796   0.711
  207K+      K+  872   2.864   5.865   4.119
  208K+      K+  873   1.577   1.876   8.089
  209K+      K+  874   5.978   4.224   5.041
  210K+      K+  875   8.197   6.803   9.013
  211K+      K+  876   7.817   0.727   9.446
  212WAT      O  877   4.236   1.820   6.930
  212WAT     H1  878   4.306   1.755   6.900
  212WAT     H2  879   4.234   1.898   6.868
  213WAT      O  880   4.329   9.116   4.057
  213WAT     H1  881   4.284   9.205   4.053
  213WAT     H2  882   4.375   9.099   3.970
  214WAT      O  883   9.065   3.475   0.248
  214WAT     H1  884   8.977   3.523   0.248
  214WAT     H2  885   9.137   3.539   0.222
  215WAT      O  886   9.532   7.010   5.963
  215WAT     H1  887   9.463   7.007   6.036
  215WAT     H2  888   9.531   6.924   5.913
  216WAT      O  889   1.648   9.323   1.653
  216WAT     H1  890   1.628   9.238   1.606
  216WAT     H2  891   1.732   9.313   1.706
  217WAT      O  892   3.982   8.770   6.987
  217WAT     H1  893   3.961   8.688   6.933
  217WAT     H2  894   3.905   8.790   7.048
  218WAT      O  895   0.440   2.552   4.566
  218WAT     H1  896   0.406   2.513   4.651
  218WAT     H2  897   0.509   2.491   4.526
  219WAT      O  898   4.228   5.330   5.942
  219WAT     H1  899   4.211   5.244   5.894
  219WAT     H2  900   4.142   5.377   5.959
  220WAT      O  901   6.212   6.714   2.194
  220WAT     H1  902   6.291   6.709   2.133
  220WAT     H2  903   6.175   6.623   2.210
  221WAT      O  904   0.951   9.081   3.722
  221WAT     H1  905   0.897   9.044   3.646
  221WAT     H2  906   0.896   9.149   3.771
  222WAT      O  907   0.647   1.440   1.022
  222WAT     H1  908   0.710   1.485   1.086
  222WAT     H2  909   0.554   1.472   1.038
  223WAT      O  910   2.288   3.519   9.279
  223WAT     H1  911   2.240   3.569   9.208
  223WAT     H2  912   2.322   3.583   9.348
  224WAT      O  913   7.796   6.527   7.867
  224WAT     H1  914   7.790   6.497   7.962
  224WAT     H2  915   7.727   6.598   7.851
  225WAT      O  916   5.876   1.177   4.716
  225WAT     H1  917   5.829   1.130   4.792
  225WAT     H2  918   5.949   1.235   4.753
  226WAT      O  919   0.172   3.143   0.538
  226WAT     H1  920   0.192   3.146   0.440
  226WAT     H2  921   0.101   3.210   0.560
  227WAT      O  922   2.105   5.226   3.940
  227WAT     H1  923   2.036   5.153   3.934
  227WAT     H2  924   2.065   5.312   3.911
  228WAT      O  925   4.315   3.764   3.070
  228WAT     H1  926   4.238   3.744   3.131
  228WAT     H2  927   4.345   3.859   3.085
  229WAT      O  928   5.760   5.005   0.441
  229WAT     H1  929   5.688   5.071   0.417
  229WAT     H2  930   5.820   5.045   0.510
  230WAT      O  931   5.408   8.993   3.935
  230WAT     H1  932   5.450   9.025   4.019
  230WAT     H2  933   5.415   8.893   3.930
  231WAT      O  934   9.475   3.485   0.040
  231WAT     H1  935   9.496   3.391   0.014
  231WAT     H2  936   9.538   3.515   0.112
  232WAT      O  937   3.340   8.458   4.420
  232WAT     H1  938   3.320   8.509   4.503
  232WAT     H2  939   3.262   8.465   4.357
  233WAT      O  940   8.978   0.925   6.139
  233WAT     H1  941   8.887   0.891   6.160
  233WAT     H2  942   8.971   1.015   6.095
  234WAT      O  943   6.526   2.249   7.879
  234WAT     H1  944   6.514   2.195   7.963
  234WAT     H2  945   6.546   2.344   7.903
  235WAT      O  946   9.508   6.433   7.941
  235WAT     H1  947   9.487   6.385   7.856
  235WAT     H2  948   9.571   6.377   7.995
  236WAT      O  949   7.415   3.450   3.235
  236WAT     H1  950   7.486   3.381   3.220
  236WAT     H2  951   7.328   3.405   3.253
  237WAT      O  952   1.616   7.311   8.271
  237WAT     H1  953   1.571   7.399   8.258
  237WAT     H2  954   1.687   7.320   8.342
  238WAT      O  955   2.190   6.539   0.049
  238WAT     H1  956   2.250   6.513   0.125
  238WAT     H2  957   2.154   6.630   0.064
  239WAT      O  958   4.209   3.739   6.622
  239WAT     H1  959   4.122   3.721   6.668
  239WAT     H2  960   4.196   3.809   6.552
  240WAT      O  961   4.717   0.588   3.981
  240WAT     H1  962   4.707   0.684   3.956
  240WAT     H2  963   4.640   0.536   3.945
  241WAT      O  964   8.365   9.348   8.778
  241WAT     H1  965   8.424   9.294   8.719
  241WAT     H2  966   8.311   9.287   8.837
  242WAT      O  967   6.382   6.134   6.831
  242WAT     H1  968   6.302   6.116   6.775
  242WAT     H2  969   6.393   6.062   6.900
  243WAT      O  970   3.573   4.139   2.185
  243WAT     H1  971   3.473   4.136   2.176
  243WAT     H2  972   3.598   4.124   2.280
  244WAT      O  973   7.480   8.368   7.101
  244WAT     H1  974   7.492   8.454   7.150
  244WAT     H2  975   7.535   8.297   7.145
  245WAT      O  976   5.616   0.304   5.347
  245WAT     H1  977   5.661   0.219   5.318
  245WAT     H2  978   5.670   0.382   5.316
  246WAT      O  979   2.492   6.719   1.442
  246WAT     H1  980   2.547   6.796   1.409
  246WAT     H2  981   2.459   6.665   1.365
  247WAT      O  982   2.846   7.483   9.436
  247WAT     H1  983   2.884   7.428   9.511
  247WAT     H2  984   2.874   7.578   9.447
  248WAT      O  985   4.938   8.726   3.646
  248WAT     H1  986   4.998   8.708   3.724
  248WAT     H2  987   4.912   8.639   3.603
  249WAT      O  988   8.767   9.714   6.508
  249WAT     H1  989   8.745   9.696   6.604
  249WAT     H2  990   8.683   9.716   6.454
  250WAT      O  991   8.326   7.874   5.489
  250WAT     H1  992   8.402   7.816   5.458
  250WAT     H2  993   8.311   7.858   5.586
  251WAT      O  994   0.464   4.681   8.900
  251WAT     H1  995   0.427   4.601   8.852
  251WAT     H2  996   0.534   4.651   8.965
  252WAT      O  997   3.106   2.242   3.560
  252WAT     H1  998   3.022   2.190   3.575
  252WAT     H2  999   3.168   2.226   3.637
  253WAT      O 1000   3.528   4.132   9.600
  253WAT     H1 1001   3.517   4.033   9.598
  253WAT     H2 1002   3.539   4.163   9.695
  254WAT      O 1003   7.869   5.242   6.925
  254WAT     H1 1004   7.906   5.177   6.859
  254WAT     H2 1005   7.772   5.258   6.906
  255WAT      O 1006   1.041   5.112   0.737
  255WAT     H1 1007   0.950   5.151   0.751
  255WAT     H2 1008   1.070   5.128   0.643
  256WAT      O 1009   0.071   4.520   6.409
  256WAT     H1 1010  -0.007   4.557   6.460
  256WAT     H2 1011   0.044   4.433   6.367
  257WAT      O 1012   9.335   6.121   4.625
  257WAT     H1 1013   9.279   6.200   4.601
  257WAT     H2 1014   9.356   6.068   4.542
  258WAT      O 1015   6.324   4.092   6.483
  258WAT     H1 1016   6.314   4.074   6.581
  258WAT     H2 1017   6.277   4.020   6.432
  259WAT      O 1018   7.928   2.021   6.885
  259WAT     H1 1019   7.957   1.943   6.830
  259WAT     H2 1020   7.869   1.990   6.960
  260WAT      O 1021   7.363   2.580   7.475
  260WAT     H1 1022   7.390   2.636   7.396
  260WAT     H2 1023   7.417   2.606   7.555
  261WAT      O 1024   4.154   9.519   7.629
  261WAT     H1 1025   4.136   9.497   7.725
  261WAT     H2 1026   4.109   9.452   7.570
  262WAT      O 1027   6.273   8.599   8.316
  262WAT     H1 1028   6.218   8.526   8.275
  262WAT     H2 1029   6.238   8.621   8.407
  263WAT      O 1030   7.139   3.978   2.939
  263WAT     H1 1031   7.089   3.993   2.854
  263WAT     H2 1032   7.168   4.065   2.978
  264WAT      O 1033   7.477   6.970   8.602
  264WAT     H1 1034   7.506   7.040   8.666
  264WAT     H2 1035   7.379   6.980   8.583
  265WAT      O 1036   6.035   2.430   8.536
  265WAT     H1 1037   6.055   2.516   8.584
  265WAT     H2 1038   5.971   2.448   8.461
  266WAT      O 1039   6.354   9.655   7.120
  266WAT     H1 1040   6.410   9.731   7.152
  266WAT     H2 1041   6.268   9.690   7.083
  267WAT      O 1042   9.885   1.185   0.694
  267WAT     H1 1043   9.906   1.110   0.631
  267WAT     H2 1044   9.844   1.147   0.777
  268WAT      O 1045   5.195   6.553   1.155
  268WAT     H1 1046   5.219   6.504   1.071
  268WAT     H2 1047   5.260   6.628   1.169
  269WAT      O 1048   3.203   1.360   7.753
  269WAT     H1 1049   3.281   1.345   7.814
  269WAT     H2 1050   3.127   1.302   7.781
  270WAT      O 1051   6.933   1.514   0.893
  270WAT     H1 1052   6.987   1.599   0.895
  270WAT     H2 1053   6.841   1.532   0.929
  271WAT      O 1054   3.716   2.978   2.890
  271WAT     H1 1055   3.692   3.071   2.917
  271WAT     H2 1056   3.794   2.946   2.945
  272WAT      O 1057   1.621   1.534   9.294
  272WAT     H1 1058   1.641   1.577   9.206
  272WAT     H2 1059   1.575   1.600   9.354
  273WAT      O 1060   2.288   7.245   4.391
  273WAT     H1 1061   2.339   7.307   4.450
  273WAT     H2 1062   2.329   7.244   4.300
  274WAT      O 1063   8.862   3.223   2.078
  274WAT     H1 1064   8.823   3.292   2.138
  274WAT     H2 1065   8.887   3.142   2.131
  275WAT      O 1066   9.377   1.163   3.554
  275WAT     H1 1067   9.463   1.178   3.505
  275WAT     H2 1068   9.301   1.166   3.489
  276WAT      O 1069   8.512   8.609   8.758
  276WAT     H1 1070   8.469   8.695   8.734
  276WAT     H2 1071   8.448   8.552   8.809
  277WAT      O 1072   3.269   6.396   4.141
  277WAT     H1 1073   3.325   6.475   4.163
  277WAT     H2 1074   3.302   6.316   4.192
  278WAT      O 1075   5.788   7.302   9.892
  278WAT     H1 1076   5.690   7.280   9.900
  278WAT     H2 1077   5.833   7.230   9.840
  279WAT      O 1078   2.432   8.918   0.030
  279WAT     H1 1079   2.457   8.955  -0.060
  279WAT     H2 1080   2.492   8.957   0.100
  280WAT      O 1081   5.275   3.317   1.300
  280WAT     H1 1082   5.195   3.269   1.264
  280WAT     H2 1083   5.337   3.252   1.343
  281WAT      O 1084   3.608   0.251   7.132
  281WAT     H1 1085   3.642   0.343   7.113
  281WAT     H2 1086   3.549   0.222   7.056
  282WAT      O 1087   3.802   1.319   7.699
  282WAT     H1 1088   3.866   1.338   7.625
  282WAT     H2 1089   3.834   1.363   7.783
  283WAT      O 1090   9.551   9.364   0.457
  283WAT     H1 1091   9.589   9.351   0.549
  283WAT     H2 1092   9.626   9.373   0.391
  284WAT      O 1093   0.351   7.896   6.615
  284WAT     H1 1094   0.432   7.857   6.570
  284WAT     H2 1095   0.269   7.852   6.578
  285WAT      O 1096   8.684   1.708   6.561
  285WAT     H1 1097   8.595   1.729   6.520
  285WAT     H2 1098   8.756   1.722   6.493
  286WAT      O 1099   4.931   7.959   1.660
  286WAT     H1 1100   4.988   7.925   1.735
  286WAT     H2 1101   4.900   8.051   1.681
  287WAT      O 1102   6.203   8.678   1.728
  287WAT     H1 1103   6.220   8.744   1.801
  287WAT     H2 1104   6.259   8.700   1.648
  288WAT      O 1105   0.014   2.863   2.787
  288WAT     H1 1106  -0.046   2.939   2.813
  288WAT     H2 1107  -0.008   2.783   2.842
  289WAT      O 1108   3.170   2.520   8.770
  289WAT     H1 1109   3.219   2.436   8.744
  289WAT     H2 1110   3.072   2.507   8.754
  290WAT      O 1111   6.837   9.787   7.966
  290WAT     H1 1112   6.804   9.724   7.897
  290WAT     H2 1113   6.775   9.788   8.044
  291WAT      O 1114   5.895   7.003   3.706
  291WAT     H1 1115   5.838   6.984   3.626
  291WAT     H2 1116   5.858   6.954   3.785
  292WAT      O 1117   4.914   8.960   9.400
  292WAT     H1 1118   4.913   8.948   9.499
  292WAT     H2 1119   4.970   9.040   9.377
  293WAT      O 1120   9.311   3.049   2.219
  293WAT     H1 1121   9.223   3.097   2.218
  293WAT     H2 1122   9.358   3.070   2.305
  294WAT      O 1123   1.701   8.004   7.275
  294WAT     H1 1124   1.681   8.067   7.199
  294WAT     H2 1125   1.702   7.910   7.240
  295WAT      O 1126   4.580   1.131   4.508
  295WAT     H1 1127   4.489   1.170   4.521
  295WAT     H2 1128   4.592   1.054   4.571
  296WAT      O 1129   9.361   1.382   5.922
  296WAT     H1 1130   9.388   1.356   5.829
  296WAT     H2 1131   9.350   1.481   5.928
  297WAT      O 1132   6.844   5.319   5.924
  297WAT     H1 1133   6.775   5.280   5.985
  297WAT     H2 1134   6.920   5.256   5.916
  298WAT      O 1135   4.237   4.700   2.054
  298WAT     H1 1136   4.323   4.745   2.079
  298WAT     H2 1137   4.183   4.683   2.137
  299WAT      O 1138   8.207   3.370   1.642
  299WAT     H1 1139   8.229   3.359   1.545
  299WAT     H2 1140   8.124   3.424   1.652
  300WAT      O 1141   0.302   9.823   1.282
  300WAT     H1 1142   0.313   9.876   1.198
  300WAT     H2 1143   0.294   9.884   1.360
  301WAT      O 1144   1.007   1.584   2.457
  301WAT     H1 1145   1.049   1.675   2.448
  301WAT     H2 1146   1.002   1.559   2.553
  302WAT      O 1147   9.241   6.360   9.590
  302WAT     H1 1148   9.225   6.435   9.655
  302WAT     H2 1149   9.271   6.398   9.503
  303WAT      O 1150   5.574   5.867   9.736
  303WAT     H1 1151   5.508   5.893   9.665
  303WAT     H2 1152   5.608   5.775   9.717
  304WAT      O 1153   4.438   3.995   3.372
  304WAT     H1 1154   4.524   3.983   3.421
  304WAT     H2 1155   4.455   3.994   3.273
  305WAT      O 1156   4.859   7.033   4.905
  305WAT     H1 1157   4.862   7.079   4.993
  305WAT     H2 1158   4.788   7.075   4.848
  306WAT      O 1159   6.094   5.368   4.008
  306WAT     H1 1160   6.071   5.286   3.955
  306WAT     H2 1161   6.112   5.444   3.946
  307WAT      O 1162   8.427   8.545   1.449
  307WAT     H1 1163   8.355   8.502   1.394
  307WAT     H2 1164   8.434   8.498   1.537
  308WAT      O 1165   9.698   0.174   1.621
  308WAT     H1 1166   9.717   0.204   1.527
  308WAT     H2 1167   9.650   0.086   1.618
  309WAT      O 1168   1.684   6.582   9.773
  309WAT     H1 1169   1.777   6.605   9.744
  309WAT     H2 1170   1.652   6.651   9.838
  310WAT      O 1171   2.615   6.291   5.957
  310WAT     H1 1172   2.706   6.270   5.922
  310WAT     H2 1173   2.608   6.388   5.978
  311WAT      O 1174   4.152   9.396   5.964
  311WAT     H1 1175   4.099   9.450   5.899
  311WAT     H2 1176   4.127   9.420   6.057
  312WAT      O 1177   5.899   8.096   1.759
  312WAT     H1 1178   5.933   8.124   1.849
  312WAT     H2 1179   5.945   8.012   1.731
  313WAT      O 1180   8.488   4.660   0.836
  313WAT     H1 1181   8.485   4.758   0.820
  313WAT     H2 1182   8.444   4.612   0.759
  314WAT      O 1183   3.485   8.129   5.548
  314WAT     H1 1184   3.469   8.034   5.522
  314WAT     H2 1185   3.570   8.135   5.600
  315WAT      O 1186   5.260   5.695   7.795
  315WAT     H1 1187   5.244   5.598   7.778
  315WAT     H2 1188   5.172   5.744   7.793
  316WAT      O 1189   3.641   7.078   6.694
  316WAT     H1 1190   3.651   7.027   6.779
  316WAT     H2 1191   3.544   7.081   6.668
  317WAT      O 1192   2.265   7.950   5.450
  317WAT     H1 1193   2.265   7.855   5.481
  317WAT     H2 1194   2.319   8.005   5.512
  318WAT      O 1195   2.934   1.144   1.078
  318WAT     H1 1196   2.845   1.161   1.036
  318WAT     H2 1197   2.925   1.075   1.149
  319WAT      O 1198   3.966   5.230   7.288
  319WAT     H1 1199   3.971   5.233   7.188
  319WAT     H2 1200   4.009   5.146   7.321
  320WAT      O 1201   5.945   4.283   8.804
  320WAT     H1 1202   5.978   4.210   8.744
  320WAT     H2 1203   5.997   4.281   8.889
  321WAT      O 1204   1.866   0.761   9.749
  321WAT     H1 1205   1.851   0.807   9.662
  321WAT     H2 1206   1.965   0.751   9.765
  322WAT      O 1207   5.910   7.853   8.470
  322WAT     H1 1208   5.831   7.915   8.472
  322WAT     H2 1209   5.973   7.878   8.543
  323WAT      O 1210   6.179   9.493   5.280
  323WAT     H1 1211   6.167   9.590   5.258
  323WAT     H2 1212   6.251   9.455   5.223
  324WAT      O 1213   2.045   6.225   6.161
  324WAT     H1 1214   2.127   6.169   6.173
  324WAT     H2 1215   2.019   6.265   6.249
  325WAT      O 1216   1.398   7.469   8.519
  325WAT     H1 1217   1.391   7.428   8.610
  325WAT     H2 1218   1.350   7.411   8.453
  326WAT      O 1219   4.477   9.601   7.156
  326WAT     H1 1220   4.573   9.617   7.131
  326WAT     H2 1221   4.471   9.517   7.210
  327WAT      O 1222   4.910   5.654   1.017
  327WAT     H1 1223   4.851   5.590   1.065
  327WAT     H2 1224   4.856   5.707   0.951
  328WAT      O 1225   9.084   2.368   3.788
  328WAT     H1 1226   8.987   2.349   3.804
  328WAT     H2 1227   9.100   2.380   3.690
  329WAT      O 1228   9.198   5.757   4.780
  329WAT     H1 1229   9.255   5.681   4.813
  329WAT     H2 1230   9.107   5.749   4.819
  330WAT      O 1231   7.552   5.623   1.094
  330WAT     H1 1232   7.599   5.536   1.109
  330WAT     H2 1233   7.567   5.652   0.999
  331WAT      O 1234   0.831   9.222   8.346
  331WAT     H1 1235   0.740   9.223   8.305
  331WAT     H2 1236   0.823   9.233   8.445
  332WAT      O 1237   0.281   2.328   0.468
  332WAT     H1 1238   0.365   2.293   0.425
  332WAT     H2 1239   0.281   2.428   0.464
  333WAT      O 1240   4.158   6.043   7.634
  333WAT     H1 1241   4.085   5.997   7.583
  333WAT     H2 1242   4.244   6.033   7.585
  334WAT      O 1243   8.418   2.021   7.437
  334WAT     H1 1244   8.333   1.988   7.397
  334WAT     H2 1245   8.397   2.071   7.522
  335WAT      O 1246   2.387   0.610   4.652
  335WAT     H1 1247   2.307   0.668   4.639
  335WAT     H2 1248   2.425   0.626   4.744
  336WAT      O 1249   4.167   9.669   9.342
  336WAT     H1 1250   4.097   9.740   9.356
  336WAT     H2 1251   4.129   9.597   9.284
  337WAT      O 1252   4.703   9.609   7.796
  337WAT     H1 1253   4.661   9.586   7.884
  337WAT     H2 1254   4.704   9.529   7.737
  338WAT      O 1255   2.606   1.259   2.930
  338WAT     H1 1256   2.520   1.296   2.895
  338WAT     H2 1257   2.659   1.334   2.971
  339WAT      O 1258   6.792   1.631   7.078
  339WAT     H1 1259   6.882   1.620   7.035
  339WAT     H2 1260   6.721   1.617   7.009
  340WAT      O 1261   9.737   8.309   0.513
  340WAT     H1 1262   9.829   8.344   0.496
  340WAT     H2 1263   9.719   8.231   0.454
  341WAT      O 1264   5.465   7.809   1.217
  341WAT     H1 1265   5.484   7.891   1.163
  341WAT     H2 1266   5.366   7.795   1.221
  342WAT      O 1267   1.217   2.585   1.806
  342WAT     H1 1268   1.153   2.546   1.741
  342WAT     H2 1269   1.284   2.642   1.758
  343WAT      O 1270   8.476   6.858   1.105
  343WAT     H1 1271   8.574   6.879   1.107
  343WAT     H2 1272   8.453   6.812   1.019
  344WAT      O 1273   7.125   9.263   2.635
  344WAT     H1 1274   7.163   9.177   2.668
  344WAT     H2 1275   7.041   9.244   2.583
  345WAT      O 1276   9.861   0.004   7.588
  345WAT     H1 1277   9.898   0.092   7.559
  345WAT     H2 1278   9.928  -0.043   7.646
  346WAT      O 1279   8.225   7.136   5.925
  346WAT     H1 1280   8.246   7.174   5.835
  346WAT     H2 1281   8.238   7.037   5.923
  347WAT      O 1282   7.489   6.160   4.402
  347WAT     H1 1283   7.588   6.149   4.409
  347WAT     H2 1284   7.464   6.179   4.307
  348WAT      O 1285   2.244   2.160   7.396
  348WAT     H1 1286   2.231   2.227   7.323
  348WAT     H2 1287   2.217   2.202   7.483
  349WAT      O 1288   5.351   6.931   4.046
  349WAT     H1 1289   5.350   6.832   4.036
  349WAT     H2 1290   5.259   6.967   4.027
  350WAT      O 1291   9.197   5.720   1.254
  350WAT     H1 1292   9.171   5.629   1.286
  350WAT     H2 1293   9.220   5.716   1.157
  351WAT      O 1294   1.974   5.942   3.125
  351WAT     H1 1295   2.063   5.987   3.134
  351WAT     H2 1296   1.985   5.857   3.074
  352WAT      O 1297   5.159   2.182   3.707
  352WAT     H1 1298   5.122   2.273   3.726
  352WAT     H2 1299   5.252   2.176   3.744
  353WAT      O 1300   5.767   3.243   0.248
  353WAT     H1 1301   5.768   3.317   0.181
  353WAT     H2 1302   5.782   3.281   0.339
  354WAT      O 1303   4.478   0.059   3.460
  354WAT     H1 1304   4.487   0.072   3.559
  354WAT     H2 1305   4.389   0.016   3.440
  355WAT      O 1306   2.494   7.921   1.517
  355WAT     H1 1307   2.538   7.968   1.441
  355WAT     H2 1308   2.562   7.896   1.585
  356WAT      O 1309   6.999   0.366   5.122
  356WAT     H1 1310   6.935   0.435   5.087
  356WAT     H2 1311   7.063   0.409   5.186
  357WAT      O 1312   6.389   8.441   6.177
  357WAT     H1 1313   6.488   8.455   6.182
  357WAT     H2 1314   6.355   8.414   6.268
  358WAT      O 1315   4.771   7.686   3.941
  358WAT     H1 1316   4.824   7.748   3.999
  358WAT     H2 1317   4.788   7.708   3.845
  359WAT      O 1318   9.742   8.647   5.771
  359WAT     H1 1319   9.755   8.708   5.850
  359WAT     H2 1320   9.735   8.552   5.804
  360WAT      O 1321   7.408   4.115   0.951
  360WAT     H1 1322   7.448   4.025   0.933
  360WAT     H2 1323   7.480   4.180   0.973
  361WAT      O 1324   6.161   9.392   9.118
  361WAT     H1 1325   6.248   9.437   9.098
  361WAT     H2 1326   6.145   9.392   9.216
  362WAT      O 1327   9.140   2.544   1.355
  362WAT     H1 1328   9.218   2.482   1.349
  362WAT     H2 1329   9.058   2.492   1.381
  363WAT      O 1330   8.635   3.501   4.236
  363WAT     H1 1331   8.577   3.525   4.314
  363WAT     H2 1332   8.721   3.463   4.270
  364WAT      O 1333   0.202   8.495   6.844
  364WAT     H1 1334   0.156   8.515   6.757
  364WAT     H2 1335   0.142   8.518   6.920
  365WAT      O 1336   6.772   7.904   4.411
  365WAT     H1 1337   6.817   7.827   4.366
  365WAT     H2 1338   6.683   7.920   4.369
  366WAT      O 1339   6.213   4.283   7.404
  366WAT     H1 1340   6.263   4.197   7.417
  366WAT     H2 1341   6.199   4.298   7.306
  367WAT      O 1342   9.291   1.678   9.201
  367WAT     H1 1343   9.275   1.713   9.294
  367WAT     H2 1344   9.207   1.687   9.148
  368WAT      O 1345   7.044   6.902   4.382
  368WAT     H1 1346   7.124   6.952   4.413
  368WAT     H2 1347   7.053   6.884   4.284
  369WAT      O 1348   3.716   2.874   5.949
  369WAT     H1 1349   3.718   2.820   5.864
  369WAT     H2 1350   3.794   2.936   5.951
  370WAT      O 1351   2.642   3.484   9.055
  370WAT     H1 1352   2.643   3.402   9.112
  370WAT     H2 1353   2.736   3.513   9.037
  371WAT      O 1354   8.853   1.745   7.926
  371WAT     H1 1355   8.867   1.681   8.002
  371WAT     H2 1356   8.755   1.757   7.910
  372WAT      O 1357   6.439   8.537   1.231
  372WAT     H1 1358   6.502   8.485   1.288
  372WAT     H2 1359   6.415   8.483   1.150
  373WAT      O 1360   2.987   0.415   5.788
  373WAT     H1 1361   2.924   0.338   5.772
  373WAT     H2 1362   2.939   0.501   5.772
  374WAT      O 1363   3.879   2.932   3.914
  374WAT     H1 1364   3.919   2.994   3.847
  374WAT     H2 1365   3.869   2.841   3.873
  375WAT      O 1366   4.332   5.367   3.603
  375WAT     H1 1367   4.375   5.281   3.629
  375WAT     H2 1368   4.397   5.421   3.549
  376WAT      O 1369   8.720   5.364   4.971
  376WAT     H1 1370   8.666   5.378   4.889
  376WAT     H2 1371   8.813   5.399   4.957
  377WAT      O 1372   4.176   9.003   2.819
  377WAT     H1 1373   4.092   9.057   2.810
  377WAT     H2 1374   4.195   8.956   2.733
  378WAT      O 1375   0.345   9.026   2.314
  378WAT     H1 1376   0.265   9.087   2.316
  378WAT     H2 1377   0.324   8.946   2.258
  379WAT      O 1378   5.693   7.881   3.547
  379WAT     H1 1379   5.613   7.865   3.490
  379WAT     H2 1380   5.765   7.925   3.493
  380WAT      O 1381   2.342   3.194   2.212
  380WAT     H1 1382   2.309   3.161   2.300
  380WAT     H2 1383   2.295   3.147   2.138
  381WAT      O 1384   0.855   6.332   6.304
  381WAT     H1 1385   0.835   6.235   6.322
  381WAT     H2 1386   0.784   6.370   6.245
  382WAT      O 1387   9.050   6.963   1.692
  382WAT     H1 1388   9.028   6.977   1.789
  382WAT     H2 1389   9.148   6.976   1.678
  383WAT      O 1390   4.616   8.542   7.249
  383WAT     H1 1391   4.554   8.547   7.327
  383WAT     H2 1392   4.609   8.452   7.206
  384WAT      O 1393   5.605   8.257   7.478
  384WAT     H1 1394   5.694   8.243   7.521
  384WAT     H2 1395   5.540   8.293   7.545
  385WAT      O 1396   4.286   3.309   1.282
  385WAT     H1 1397   4.261   3.216   1.309
  385WAT     H2 1398   4.384   3.312   1.260
  386WAT      O 1399   4.099   1.351   6.178
  386WAT     H1 1400   4.070   1.406   6.257
  386WAT     H2 1401   4.193   1.319   6.193
  387WAT      O 1402   6.855   0.584   5.459
  387WAT     H1 1403   6.876   0.528   5.540
  387WAT     H2 1404   6.872   0.530   5.377
  388WAT      O 1405   9.244   8.905   4.653
  388WAT     H1 1406   9.213   8.999   4.669
  388WAT     H2 1407   9.179   8.841   4.696
  389WAT      O 1408   5.068   5.500   0.862
  389WAT     H1 1409   4.995   5.562   0.891
  389WAT     H2 1410   5.074   5.500   0.762
  390WAT      O 1411   5.004   6.755   4.768
  390WAT     H1 1412   4.985   6.749   4.866
  390WAT     H2 1413   5.092   6.712   4.748
  391WAT      O 1414   8.676   5.804   1.557
  391WAT     H1 1415   8.618   5.782   1.636
  391WAT     H2 1416   8.706   5.899   1.564
  392WAT      O 1417   8.327   5.880   1.042
  392WAT     H1 1418   8.346   5.895   0.945
  392WAT     H2 1419   8.350   5.786   1.065
  393WAT      O 1420   7.964   5.119   4.879
  393WAT     H1 1421   7.872   5.131   4.841
  393WAT     H2 1422   7.996   5.026   4.860
  394WAT      O 1423   7.756   4.556   2.593
  394WAT     H1 1424   7.775   4.458   2.590
  394WAT     H2 1425   7.808   4.602   2.521
  395WAT      O 1426   2.513   6.719   3.082
  395WAT     H1 1427   2.498   6.807   3.037
  395WAT     H2 1428   2.610   6.709   3.106
  396WAT      O 1429   6.954   2.466   8.130
  396WAT     H1 1430   6.911   2.468   8.221
  396WAT     H2 1431   6.913   2.393   8.075
  397WAT      O 1432   6.971   8.493   1.322
  397WAT     H1 1433   6.959   8.521   1.227
  397WAT     H2 1434   7.066   8.506   1.350
  398WAT      O 1435   8.451   1.959   0.382
  398WAT     H1 1436   8.431   1.987   0.289
  398WAT     H2 1437   8.547   1.977   0.403
  399WAT      O 1438   4.316   8.680   9.617
  399WAT     H1 1439   4.344   8.605   9.677
  399WAT     H2 1440   4.381   8.687   9.541
  400WAT      O 1441   4.719   5.341   0.528
  400WAT     H1 1442   4.688   5.336   0.623
  400WAT     H2 1443   4.777   5.262   0.508
  401WAT      O 1444   5.415   1.246   0.119
  401WAT     H1 1445   5.366   1.257   0.205
  401WAT     H2 1446   5.391   1.321   0.057
  402WAT      O 1447   4.284   9.618   4.673
  402WAT     H1 1448   4.321   9.585   4.587
  402WAT     H2 1449   4.185   9.632   4.664
  403WAT      O 1450   2.688   4.077   9.497
  403WAT     H1 1451   2.703   4.092   9.399
  403WAT     H2 1452   2.635   4.153   9.534
  404WAT      O 1453   0.121   7.266   2.717
  404WAT     H1 1454   0.152   7.214   2.796
  404WAT     H2 1455   0.199   7.289   2.659
  405WAT      O 1456   9.891   5.102   3.545
  405WAT     H1 1457   9.895   5.008   3.511
  405WAT     H2 1458   9.829   5.156   3.486
  406WAT      O 1459   1.303   9.466   6.999
  406WAT     H1 1460   1.320   9.489   7.095
  406WAT     H2 1461   1.379   9.410   6.964
  407WAT      O 1462   4.085   5.145   3.396
  407WAT     H1 1463   4.086   5.052   3.360
  407WAT     H2 1464   4.106   5.211   3.324
  408WAT      O 1465   1.259   5.871   3.244
  408WAT     H1 1466   1.222   5.784   3.212
  408WAT     H2 1467   1.359   5.866   3.245
  409WAT      O 1468   8.745   8.272   3.235
  409WAT     H1 1469   8.766   8.307   3.326
  409WAT     H2 1470   8.655   8.306   3.206
  410WAT      O 1471   2.827   5.586   8.828
  410WAT     H1 1472   2.740   5.575   8.779
  410WAT     H2 1473   2.822   5.539   8.916
  411WAT      O 1474   5.669   3.500   1.296
  411WAT     H1 1475   5.651   3.590   1.335
  411WAT     H2 1476   5.656   3.430   1.366
  412WAT      O 1477   5.236   3.668   6.323
  412WAT     H1 1478   5.259   3.573   6.345
  412WAT     H2 1479   5.142   3.687   6.349
  413WAT      O 1480   0.918   6.845   1.237
  413WAT     H1 1481   0.976   6.842   1.318
  413WAT     H2 1482   0.954   6.781   1.168
  414WAT      O 1483   1.874   5.375   7.253
  414WAT     H1 1484   1.860   5.282   7.287
  414WAT     H2 1485   1.806   5.436   7.293
  415WAT      O 1486   6.709   3.508   3.763
  415WAT     H1 1487   6.799   3.500   3.807
  415WAT     H2 1488   6.674   3.601   3.776
  416WAT      O 1489   2.090   8.564   5.461
  416WAT     H1 1490   2.064   8.467   5.466
  416WAT     H2 1491   2.189   8.571   5.451
  417WAT      O 1492   4.201   6.222   5.285
  417WAT     H1 1493   4.151   6.304   5.256
  417WAT     H2 1494   4.273   6.202   5.219
  418WAT      O 1495   3.260   4.575   1.026
  418WAT     H1 1496   3.302   4.642   1.087
  418WAT     H2 1497   3.251   4.487   1.074
  419WAT      O 1498   9.129   2.761   7.737
  419WAT     H1 1499   9.126   2.719   7.646
  419WAT     H2 1500   9.098   2.695   7.805
  420WAT      O 1501   1.714   5.791   1.719
  420WAT     H1 1502   1.797   5.785   1.775
  420WAT     H2 1503   1.730   5.748   1.631
  421WAT      O 1504   2.107   7.273   1.806
  421WAT     H1 1505   2.189   7.216   1.816
  421WAT     H2 1506   2.025   7.217   1.822
  422WAT      O 1507   3.530   1.305   2.644
  422WAT     H1 1508   3.557   1.388   2.693
  422WAT     H2 1509   3.503   1.235   2.710
  423WAT      O 1510   8.871   6.778   0.436
  423WAT     H1 1511   8.893   6.693   0.484
  423WAT     H2 1512   8.822   6.839   0.498
  424WAT      O 1513   1.000   4.312   8.631
  424WAT     H1 1514   0.956   4.384   8.576
  424WAT     H2 1515   0.930   4.248   8.663
  425WAT      O 1516   4.289   6.027   8.276
  425WAT     H1 1517   4.235   6.089   8.218
  425WAT     H2 1518   4.382   6.019   8.239
  426WAT      O 1519   2.085   9.649   5.984
  426WAT     H1 1520   2.165   9.621   5.932
  426WAT     H2 1521   2.113   9.680   6.075
  427WAT      O 1522   8.201   7.525   0.725
  427WAT     H1 1523   8.123   7.521   0.788
  427WAT     H2 1524   8.263   7.448   0.744
  428WAT      O 1525   0.264   4.740   5.744
  428WAT     H1 1526   0.339   4.688   5.702
  428WAT     H2 1527   0.211   4.680   5.803
  429WAT      O 1528   1.685   1.247   1.160
  429WAT     H1 1529   1.598   1.236   1.209
  429WAT     H2 1530   1.694   1.341   1.129
  430WAT      O 1531   1.965   4.602   2.397
  430WAT     H1 1532   2.050   4.584   2.445
  430WAT     H2 1533   1.916   4.516   2.382
  431WAT      O 1534   5.732   1.586   7.059
  431WAT     H1 1535   5.802   1.540   7.005
  431WAT     H2 1536   5.725   1.542   7.149
  432WAT      O 1537   8.705   8.850   9.430
  432WAT     H1 1538   8.700   8.929   9.491
  432WAT     H2 1539   8.751   8.877   9.345
  433WAT      O 1540   9.343   7.796   1.044
  433WAT     H1 1541   9.429   7.823   1.001
  433WAT     H2 1542   9.359   7.719   1.106
  434WAT      O 1543   2.623   5.066   0.323
  434WAT     H1 1544   2.627   4.969   0.300
  434WAT     H2 1545   2.710   5.109   0.300
  435WAT      O 1546   2.790   9.373   8.683
  435WAT     H1 1547   2.883   9.341   8.703
  435WAT     H2 1548   2.784   9.471   8.698
  436WAT      O 1549   4.111   1.946   3.504
  436WAT     H1 1550   4.141   1.903   3.589
  436WAT     H2 1551   4.024   1.993   3.518
  437WAT      O 1552   0.961   6.282   4.722
  437WAT     H1 1553   0.865   6.306   4.737
  437WAT     H2 1554   1.015   6.310   4.802
  438WAT      O 1555   3.266   1.182   0.797
  438WAT     H1 1556   3.360   1.159   0.771
  438WAT     H2 1557   3.234   1.119   0.868
  439WAT      O 1558   6.371   6.262   2.136
  439WAT     H1 1559   6.405   6.231   2.225
  439WAT     H2 1560   6.426   6.220   2.064
  440WAT      O 1561   0.111   0.792   8.367
  440WAT     H1 1562   0.102   0.724   8.295
  440WAT     H2 1563   0.156   0.873   8.332
  441WAT      O 1564   7.816   9.388   3.757
  441WAT     H1 1565   7.756   9.313   3.785
  441WAT     H2 1566   7.836   9.380   3.660
  442WAT      O 1567   7.153   2.445   5.534
  442WAT     H1 1568   7.157   2.364   5.592
  442WAT     H2 1569   7.156   2.417   5.438
  443WAT      O 1570   8.212   3.789   0.926
  443WAT     H1 1571   8.265   3.749   0.852
  443WAT     H2 1572   8.186   3.883   0.902
  444WAT      O 1573   3.387   0.094   4.550
  444WAT     H1 1574   3.459   0.033   4.581
  444WAT     H2 1575   3.414   0.135   4.462
  445WAT      O 1576   0.966   8.859   8.511
  445WAT     H1 1577   1.003   8.802   8.437
  445WAT     H2 1578   1.042   8.902   8.560
  446WAT      O 1579   3.008   2.533   5.707
  446WAT     H1 1580   2.940   2.578   5.650
  446WAT     H2 1581   3.095   2.582   5.700
  447WAT      O 1582   3.634   4.767   7.497
  447WAT     H1 1583   3.662   4.681   7.541
  447WAT     H2 1584   3.666   4.844   7.551
  448WAT      O 1585   1.327   2.116   5.136
  448WAT     H1 1586   1.370   2.201   5.164
  448WAT     H2 1587   1.363   2.041   5.191
  449WAT      O 1588   9.127   8.132   0.917
  449WAT     H1 1589   9.091   8.041   0.939
  449WAT     H2 1590   9.066   8.202   0.955
  450WAT      O 1591   1.888   7.988   8.445
  450WAT     H1 1592   1.869   7.890   8.437
  450WAT     H2 1593   1.866   8.034   8.358
  451WAT      O 1594   2.772   6.434   6.383
  451WAT     H1 1595   2.805   6.345   6.351
  451WAT     H2 1596   2.846   6.481   6.431
  452WAT      O 1597   4.620   0.347   2.095
  452WAT     H1 1598   4.539   0.307   2.139
  452WAT     H2 1599   4.690   0.276   2.085
  453WAT      O 1600   3.545   6.792   8.625
  453WAT     H1 1601   3.548   6.708   8.570
  453WAT     H2 1602   3.530   6.870   8.564
  454WAT      O 1603   2.540   4.168   6.720
  454WAT     H1 1604   2.586   4.095   6.771
  454WAT     H2 1605   2.445   4.142   6.702
  455WAT      O 1606   9.526   8.271   1.399
  455WAT     H1 1607   9.560   8.222   1.479
  455WAT     H2 1608   9.572   8.238   1.317
  456WAT      O 1609   6.953   1.343   8.852
  456WAT     H1 1610   6.918   1.424   8.806
  456WAT     H2 1611   7.053   1.350   8.860
  457WAT      O 1612   9.063   0.218   0.859
  457WAT     H1 1613   8.976   0.227   0.809
  457WAT     H2 1614   9.118   0.301   0.847
  458WAT      O 1615   7.342   7.757   7.197
  458WAT     H1 1616   7.405   7.681   7.180
  458WAT     H2 1617   7.273   7.729   7.264
  459WAT      O 1618   0.722   8.261   7.185
  459WAT     H1 1619   0.701   8.347   7.138
  459WAT     H2 1620   0.818   8.237   7.171
  460WAT      O 1621   5.222   3.905   8.274
  460WAT     H1 1622   5.280   3.981   8.247
  460WAT     H2 1623   5.128   3.937   8.286
  461WAT      O 1624   6.715   2.954   1.624
  461WAT     H1 1625   6.749   2.864   1.650
  461WAT     H2 1626   6.642   2.943   1.556
  462WAT      O 1627   3.336   7.145   6.929
  462WAT     H1 1628   3.362   7.112   7.019
  462WAT     H2 1629   3.381   7.233   6.912
  463WAT      O 1630   3.004   4.624   0.934
  463WAT     H1 1631   2.960   4.712   0.952
  463WAT     H2 1632   3.091   4.619   0.983
  464WAT      O 1633   0.127   4.838   5.008
  464WAT     H1 1634   0.081   4.861   5.093
  464WAT     H2 1635   0.196   4.908   4.988
  465WAT      O 1636   9.803   4.855   0.986
  465WAT     H1 1637   9.848   4.784   0.932
  465WAT     H2 1638   9.748   4.912   0.925
  466WAT      O 1639   2.521   5.072   3.906
  466WAT     H1 1640   2.523   5.142   3.977
  466WAT     H2 1641   2.575   4.993   3.936
  467WAT      O 1642   5.124   3.738   1.338
  467WAT     H1 1643   5.088   3.646   1.353
  467WAT     H2 1644   5.070   3.784   1.268
  468WAT      O 1645   2.143   6.752   4.643
  468WAT     H1 1646   2.069   6.754   4.576
  468WAT     H2 1647   2.153   6.659   4.678
  469WAT      O 1648   0.290   3.571   0.788
  469WAT     H1 1649   0.339   3.596   0.705
  469WAT     H2 1650   0.317   3.632   0.863
  470WAT      O 1651   3.096   9.433   0.508
  470WAT     H1 1652   3.138   9.389   0.587
  470WAT     H2 1653   3.117   9.531   0.509
  471WAT      O 1654   9.671   9.250   9.172
  471WAT     H1 1655   9.737   9.268   9.244
  471WAT     H2 1656   9.654   9.334   9.120
  472WAT      O 1657   5.685   6.109   3.287
  472WAT     H1 1658   5.618   6.056   3.234
  472WAT     H2 1659   5.660   6.206   3.283
  473WAT      O 1660   2.801   1.509   8.287
  473WAT     H1 1661   2.880   1.522   8.227
  473WAT     H2 1662   2.832   1.499   8.382
  474WAT      O 1663   6.254   1.410   7.904
  474WAT     H1 1664   6.339   1.380   7.862
  474WAT     H2 1665   6.220   1.491   7.856
  475WAT      O 1666   4.512   2.211   3.879
  475WAT     H1 1667   4.529   2.248   3.970
  475WAT     H2 1668   4.560   2.267   3.811
  476WAT      O 1669   4.011   5.269   4.846
  476WAT     H1 1670   3.993   5.368   4.842
  476WAT     H2 1671   3.927   5.221   4.870
  477WAT      O 1672   6.895   5.032   5.126
  477WAT     H1 1673   6.869   4.961   5.191
  477WAT     H2 1674   6.828   5.036   5.052
  478WAT      O 1675   4.680   4.992   7.590
  478WAT     H1 1676   4.688   4.904   7.543
  478WAT     H2 1677   4.583   5.015   7.600
  479WAT      O 1678   2.405   9.618   6.837
  479WAT     H1 1679   2.384   9.629   6.740
  479WAT     H2 1680   2.359   9.690   6.890
  480WAT      O 1681   7.889   6.699   1.427
  480WAT     H1 1682   7.921   6.764   1.358
  480WAT     H2 1683   7.947   6.707   1.508
  481WAT      O 1684   5.460   0.211   5.070
  481WAT     H1 1685   5.384   0.179   5.127
  481WAT     H2 1686   5.535   0.145   5.074
  482WAT      O 1687   1.506   0.328   3.387
  482WAT     H1 1688   1.504   0.269   3.468
  482WAT     H2 1689   1.465   0.416   3.409
  483WAT      O 1690   6.472   3.887   9.154
  483WAT     H1 1691   6.478   3.874   9.253
  483WAT     H2 1692   6.382   3.925   9.132
  484WAT      O 1693   6.855   0.374   3.475
  484WAT     H1 1694   6.781   0.311   3.498
  484WAT     H2 1695   6.924   0.326   3.421
  485WAT      O 1696   7.233   1.343   8.919
  485WAT     H1 1697   7.274   1.340   9.011
  485WAT     H2 1698   7.294   1.297   8.854
  486WAT      O 1699   9.752   5.152   2.008
  486WAT     H1 1700   9.774   5.098   1.927
  486WAT     H2 1701   9.693   5.098   2.069
  487WAT      O 1702   1.549   9.419   6.865
  487WAT     H1 1703   1.572   9.399   6.770
  487WAT     H2 1704   1.620   9.383   6.925
  488WAT      O 1705   2.392   5.638   4.298
  488WAT     H1 1706   2.371   5.589   4.383
  488WAT     H2 1707   2.489   5.625   4.276
  489WAT      O 1708   1.659   2.039   8.750
  489WAT     H1 1709   1.630   1.944   8.765
  489WAT     H2 1710   1.579   2.094   8.725
  490WAT      O 1711   4.604   9.037   0.152
  490WAT     H1 1712   4.575   8.941   0.146
  490WAT     H2 1713   4.639   9.067   0.063
  491WAT      O 1714   6.249   7.372   0.770
  491WAT     H1 1715   6.295   7.342   0.687
  491WAT     H2 1716   6.180   7.442   0.747
  492WAT      O 1717   1.290   7.224   1.572
  492WAT     H1 1718   1.213   7.186   1.521
  492WAT     H2 1719   1.283   7.324   1.573
  493WAT      O 1720   1.273   5.237   3.195
  493WAT     H1 1721   1.298   5.318   3.248
  493WAT     H2 1722   1.184   5.203   3.225
  494WAT      O 1723   5.231   4.226   3.661
  494WAT     H1 1724   5.255   4.315   3.700
  494WAT     H2 1725   5.147   4.234   3.608
  495WAT      O 1726   3.862   5.751   6.792
  495WAT     H1 1727   3.936   5.685   6.775
  495WAT     H2 1728   3.900   5.833   6.835
  496WAT      O 1729   2.257   8.038   1.693
  496WAT     H1 1730   2.170   8.056   1.647
  496WAT     H2 1731   2.315   7.983   1.634
  497WAT      O 1732   0.976   7.955   4.864
  497WAT     H1 1733   0.956   8.039   4.914
  497WAT     H2 1734   0.996   7.882   4.930
  498WAT      O 1735   0.499   1.343   1.865
  498WAT     H1 1736   0.432   1.388   1.806
  498WAT     H2 1737   0.476   1.246   1.873
  499WAT      O 1738   4.935   1.978   3.820
  499WAT     H1 1739   5.018   1.954   3.770
  499WAT     H2 1740   4.860   1.919   3.789
  500WAT      O 1741   3.787   3.110   9.015
  500WAT     H1 1742   3.755   3.031   9.067
  500WAT     H2 1743   3.883   3.127   9.037
  501WAT      O 1744   0.564   5.208   1.154
  501WAT     H1 1745   0.472   5.245   1.151
  501WAT     H2 1746   0.599   5.210   1.248
  502WAT      O 1747   3.463   8.114   8.536
  502WAT     H1 1748   3.554   8.073   8.549
  502WAT     H2 1749   3.473   8.207   8.502
  503WAT      O 1750   3.179   2.452   4.496
  503WAT     H1 1751   3.093   2.456   4.547
  503WAT     H2 1752   3.229   2.370   4.523
  504WAT      O 1753   6.687   2.258   4.974
  504WAT     H1 1754   6.701   2.204   5.057
  504WAT     H2 1755   6.603   2.230   4.929
  505WAT      O 1756   6.244   6.021   0.747
  505WAT     H1 1757   6.220   6.002   0.842
  505WAT     H2 1758   6.162   6.048   0.697
  506WAT      O 1759   5.490   6.069   3.086
  506WAT     H1 1760   5.396   6.098   3.098
  506WAT     H2 1761   5.520   6.087   2.992
  507WAT      O 1762   4.441   2.088   3.408
  507WAT     H1 1763   4.421   2.001   3.363
  507WAT     H2 1764   4.524   2.127   3.368
  508WAT      O 1765   8.868   5.900   2.108
  508WAT     H1 1766   8.965   5.922   2.118
  508WAT     H2 1767   8.831   5.948   2.028
  509WAT      O 1768   3.225   0.969   3.326
  509WAT     H1 1769   3.310   0.917   3.317
  509WAT     H2 1770   3.148   0.913   3.294
  510WAT      O 1771   7.534   3.372   0.372
  510WAT     H1 1772   7.443   3.330   0.376
  510WAT     H2 1773   7.571   3.362   0.280
  511WAT      O 1774   6.449   5.710   4.961
  511WAT     H1 1775   6.544   5.734   4.942
  511WAT     H2 1776   6.392   5.731   4.882
  512WAT      O 1777   9.121   9.467   4.257
  512WAT     H1 1778   9.194   9.460   4.190
  512WAT     H2 1779   9.037   9.498   4.212
  513WAT      O 1780   7.569   5.200   2.514
  513WAT     H1 1781   7.614   5.287   2.536
  513WAT     H2 1782   7.472   5.216   2.496
  514WAT      O 1783   3.099   9.562   2.049
  514WAT     H1 1784   3.048   9.505   1.984
  514WAT     H2 1785   3.056   9.558   2.139
  515WAT      O 1786   9.797   6.920   4.558
  515WAT     H1 1787   9.827   6.860   4.484
  515WAT     H2 1788   9.875   6.941   4.618
  516WAT      O 1789   3.005   0.637   6.932
  516WAT     H1 1790   2.905   0.646   6.934
  516WAT     H2 1791   3.028   0.540   6.921
  517WAT      O 1792   3.084   2.071   6.187
  517WAT     H1 1793   3.159   2.060   6.253
  517WAT     H2 1794   3.064   2.168   6.175
  518WAT      O 1795   8.209   9.758   6.234
  518WAT     H1 1796   8.185   9.841   6.184
  518WAT     H2 1797   8.293   9.719   6.196
  519WAT      O 1798   8.221   8.283   0.082
  519WAT     H1 1799   8.267   8.232   0.010
  519WAT     H2 1800   8.191   8.221   0.154
  520WAT      O 1801   9.651   3.195   4.419
  520WAT     H1 1802   9.554   3.207   4.399
  520WAT     H2 1803   9.683   3.109   4.379
  521WAT      O 1804   4.798   2.622   2.059
  521WAT     H1 1805   4.896   2.624   2.040
  521WAT     H2 1806   4.749   2.669   1.985
  522WAT      O 1807   0.370   3.197   3.876
  522WAT     H1 1808   0.394   3.287   3.840
  522WAT     H2 1809   0.427   3.128   3.832
  523WAT      O 1810   9.520   8.656   8.364
  523WAT     H1 1811   9.499   8.746   8.326
  523WAT     H2 1812   9.619   8.639   8.355
  524WAT      O 1813   9.009   4.110   0.685
  524WAT     H1 1814   9.058   4.167   0.619
  524WAT     H2 1815   9.026   4.013   0.665
  525WAT      O 1816   9.412   2.542   0.830
  525WAT     H1 1817   9.373   2.628   0.800
  525WAT     H2 1818   9.495   2.559   0.883
  526WAT      O 1819   3.481   2.779   7.139
  526WAT     H1 1820   3.423   2.861   7.138
  526WAT     H2 1821   3.511   2.762   7.233
  527WAT      O 1822   3.441   8.702   1.893
  527WAT     H1 1823   3.361   8.700   1.832
  527WAT     H2 1824   3.471   8.608   1.910
  528WAT      O 1825   1.116   4.455   5.245
  528WAT     H1 1826   1.054   4.388   5.204
  528WAT     H2 1827   1.088   4.547   5.217
  529WAT      O 1828   2.826   4.004   2.709
  529WAT     H1 1829   2.854   4.095   2.736
  529WAT     H2 1830   2.744   4.009   2.652
  530WAT      O 1831   2.899   7.607   1.710
  530WAT     H1 1832   2.960   7.663   1.767
  530WAT     H2 1833   2.954   7.542   1.657
  531WAT      O 1834   8.750   7.397   8.537
  531WAT     H1 1835   8.693   7.479   8.544
  531WAT     H2 1836   8.807   7.403   8.454
  532WAT      O 1837   4.646   4.540   6.094
  532WAT     H1 1838   4.670   4.602   6.020
  532WAT     H2 1839   4.565   4.575   6.141
  533WAT      O 1840   0.450   2.759   9.539
  533WAT     H1 1841   0.403   2.845   9.556
  533WAT     H2 1842   0.474   2.752   9.442
  534WAT      O 1843   3.916   3.350   4.456
  534WAT     H1 1844   3.851   3.412   4.413
  534WAT     H2 1845   3.894   3.341   4.553
  535WAT      O 1846   4.740   7.862   6.886
  535WAT     H1 1847   4.688   7.778   6.870
  535WAT     H2 1848   4.755   7.909   6.799
  536WAT      O 1849   2.709   1.727   3.274
  536WAT     H1 1850   2.616   1.751   3.299
  536WAT     H2 1851   2.761   1.703   3.356
  537WAT      O 1852   0.678   1.460   6.336
  537WAT     H1 1853   0.677   1.548   6.289
  537WAT     H2 1854   0.680   1.476   6.435
  538WAT      O 1855   5.327   8.786   9.514
  538WAT     H1 1856   5.299   8.881   9.500
  538WAT     H2 1857   5.413   8.769   9.465
  539WAT      O 1858   6.584   4.548   2.133
  539WAT     H1 1859   6.655   4.492   2.176
  539WAT     H2 1860   6.603   4.557   2.036
  540WAT      O 1861   1.412   5.235   6.077
  540WAT     H1 1862   1.506   5.219   6.044
  540WAT     H2 1863   1.380   5.154   6.126
  541WAT      O 1864   8.714   1.734   3.432
  541WAT     H1 1865   8.774   1.703   3.506
  541WAT     H2 1866   8.716   1.667   3.358
  542WAT      O 1867   5.844   0.053   1.354
  542WAT     H1 1868   5.817   0.148   1.340
  542WAT     H2 1869   5.931   0.036   1.308
  543WAT      O 1870   3.913   1.765   0.584
  543WAT     H1 1871   3.976   1.843   0.589
  543WAT     H2 1872   3.861   1.759   0.669
  544WAT      O 1873   0.190   1.814   0.880
  544WAT     H1 1874   0.171   1.893   0.939
  544WAT     H2 1875   0.271   1.832   0.825
  545WAT      O 1876   8.034   2.785   5.909
  545WAT     H1 1877   8.024   2.766   6.007
  545WAT     H2 1878   7.946   2.811   5.870
  546WAT      O 1879   1.021   1.324   1.432
  546WAT     H1 1880   1.030   1.351   1.528
  546WAT     H2 1881   1.046   1.402   1.374
  547WAT      O 1882   4.261   8.142   5.528
  547WAT     H1 1883   4.359   8.129   5.539
  547WAT     H2 1884   4.243   8.235   5.495
  548WAT      O 1885   8.505   3.812   2.139
  548WAT     H1 1886   8.520   3.725   2.185
  548WAT     H2 1887   8.585   3.871   2.153
  549WAT      O 1888   4.406   7.060   2.690
  549WAT     H1 1889   4.336   7.131   2.683
  549WAT     H2 1890   4.490   7.093   2.648
  550WAT      O 1891   8.091   2.056   5.369
  550WAT     H1 1892   8.106   2.117   5.446
  550WAT     H2 1893   7.993   2.041   5.356
  551WAT      O 1894   0.523   3.521   6.342
  551WAT     H1 1895   0.544   3.454   6.412
  551WAT     H2 1896   0.508   3.475   6.254
  552WAT      O 1897   7.892   4.944   2.078
  552WAT     H1 1898   7.867   4.938   1.982
  552WAT     H2 1899   7.984   4.981   2.087
  553WAT      O 1900   5.484   2.937   7.846
  553WAT     H1 1901   5.566   2.977   7.804
  553WAT     H2 1902   5.484   2.955   7.944
  554WAT      O 1903   8.349   7.995   4.536
  554WAT     H1 1904   8.322   8.089   4.560
  554WAT     H2 1905   8.443   7.979   4.566
  555WAT      O 1906   5.665   8.735   2.533
  555WAT     H1 1907   5.667   8.803   2.607
  555WAT     H2 1908   5.599   8.764   2.463
  556WAT      O 1909   1.141   8.090   6.000
  556WAT     H1 1910   1.190   8.045   6.074
  556WAT     H2 1911   1.206   8.114   5.927
  557WAT      O 1912   4.631   4.360   8.128
  557WAT     H1 1913   4.612   4.457   8.141
  557WAT     H2 1914   4.714   4.334   8.177
  558WAT      O 1915   7.315   6.108   5.932
  558WAT     H1 1916   7.339   6.028   5.987
  558WAT     H2 1917   7.218   6.128   5.943
  559WAT      O 1918   9.643   5.956   4.455
  559WAT     H1 1919   9.611   5.869   4.493
  559WAT     H2 1920   9.565   6.018   4.444
  560WAT      O 1921   5.986   7.296   5.603
  560WAT     H1 1922   6.012   7.393   5.594
  560WAT     H2 1923   6.066   7.239   5.586
  561WAT      O 1924   9.791   7.286   8.482
  561WAT     H1 1925   9.727   7.262   8.408
  561WAT     H2 1926   9.740   7.302   8.566
  562WAT      O 1927   8.148   5.173   6.534
  562WAT     H1 1928   8.131   5.145   6.629
  562WAT     H2 1929   8.241   5.147   6.509
  563WAT      O 1930   1.359   0.716   7.422
  563WAT     H1 1931   1.443   0.695   7.372
  563WAT     H2 1932   1.302   0.778   7.368
  564WAT      O 1933   7.201   8.722   6.303
  564WAT     H1 1934   7.174   8.679   6.217
  564WAT     H2 1935   7.121   8.729   6.363
  565WAT      O 1936   5.437   6.021   4.602
  565WAT     H1 1937   5.407   5.984   4.690
  565WAT     H2 1938   5.440   6.120   4.607
  566WAT      O 1939   3.131   9.538   5.019
  566WAT     H1 1940   3.143   9.573   5.112
  566WAT     H2 1941   3.179   9.596   4.954
  567WAT      O 1942   6.825   7.194   3.614
  567WAT     H1 1943   6.837   7.275   3.671
  567WAT     H2 1944   6.914   7.151   3.599
  568WAT      O 1945   5.223   7.518   9.126
  568WAT     H1 1946   5.253   7.428   9.094
  568WAT     H2 1947   5.298   7.563   9.175
  569WAT      O 1948   2.832   9.641   3.398
  569WAT     H1 1949   2.760   9.584   3.358
  569WAT     H2 1950   2.921   9.616   3.359
  570WAT      O 1951   4.098   7.480   1.806
  570WAT     H1 1952   4.147   7.565   1.785
  570WAT     H2 1953   4.101   7.420   1.726
  571WAT      O 1954   5.094   7.152   4.624
  571WAT     H1 1955   5.097   7.053   4.617
  571WAT     H2 1956   5.091   7.193   4.533
  572WAT      O 1957   8.139   1.350   2.226
  572WAT     H1 1958   8.153   1.445   2.199
  572WAT     H2 1959   8.061   1.312   2.175
  573WAT      O 1960   9.647   2.574   7.157
  573WAT     H1 1961   9.662   2.670   7.179
  573WAT     H2 1962   9.671   2.518   7.237
  574WAT      O 1963   4.236   9.498   0.234
  574WAT     H1 1964   4.143   9.524   0.258
  574WAT     H2 1965   4.289   9.482   0.317
  575WAT      O 1966   9.447   9.803   3.126
  575WAT     H1 1967   9.539   9.777   3.153
  575WAT     H2 1968   9.396   9.836   3.206
  576WAT      O 1969   1.096   6.110   1.380
  576WAT     H1 1970   1.077   6.083   1.285
  576WAT     H2 1971   1.085   6.031   1.440
  577WAT      O 1972   3.717   0.326   6.769
  577WAT     H1 1973   3.725   0.334   6.869
  577WAT     H2 1974   3.623   0.346   6.742
  578WAT      O 1975   3.889   2.900   3.098
  578WAT     H1 1976   3.934   2.867   3.182
  578WAT     H2 1977   3.958   2.929   3.032
  579WAT      O 1978   4.484   4.023   6.260
  579WAT     H1 1979   4.543   4.002   6.183
  579WAT     H2 1980   4.520   3.980   6.343
  580WAT      O 1981   2.606   2.149   4.048
  580WAT     H1 1982   2.642   2.073   3.993
  580WAT     H2 1983   2.657   2.232   4.028
  581WAT      O 1984   0.888   6.457   6.798
  581WAT     H1 1985   0.860   6.368   6.834
  581WAT     H2 1986   0.979   6.449   6.757
  582WAT      O 1987   6.952   3.588   8.732
  582WAT     H1 1988   6.986   3.625   8.646
  582WAT     H2 1989   6.939   3.663   8.797
  583WAT      O 1990   4.397   7.630   2.705
  583WAT     H1 1991   4.301   7.611   2.683
  583WAT     H2 1992   4.402   7.695   2.780
  584WAT      O 1993   9.811   1.837   5.987
  584WAT     H1 1994   9.751   1.917   5.994
  584WAT     H2 1995   9.900   1.866   5.951
  585WAT      O 1996   3.900   2.430   0.411
  585WAT     H1 1997   3.893   2.330   0.404
  585WAT     H2 1998   3.811   2.467   0.439
  586WAT      O 1999   6.250   6.013   8.050
  586WAT     H1 2000   6.315   5.944   8.019
  586WAT     H2 2001   6.218   5.989   8.141
  587WAT      O 2002   1.905   5.027   1.727
  587WAT     H1 2003   1.880   4.989   1.816
  587WAT     H2 2004   2.004   5.016   1.712
  588WAT      O 2005   3.112   3.069   2.147
  588WAT     H1 2006   3.062   3.044   2.064
  588WAT     H2 2007   3.092   3.164   2.171
  589WAT      O 2008   9.406   7.437   9.054
  589WAT     H1 2009   9.307   7.430   9.070
  589WAT     H2 2010   9.450   7.473   9.137
  590WAT      O 2011   9.095   9.562   3.200
  590WAT     H1 2012   9.181   9.538   3.245
  590WAT     H2 2013   9.111   9.637   3.136
  591WAT      O 2014   1.439   8.088   9.750
  591WAT     H1 2015   1.463   8.185   9.742
  591WAT     H2 2016   1.502   8.043   9.813
  592WAT      O 2017   1.923   5.912   9.711
  592WAT     H1 2018   1.900   5.869   9.798
  592WAT     H2 2019   1.989   5.986   9.726
  593WAT      O 2020   1.737   4.606   4.372
  593WAT     H1 2021   1.658   4.666   4.361
  593WAT     H2 2022   1.808   4.632   4.306
  594WAT      O 2023   5.252   5.248   3.065
  594WAT     H1 2024   5.309   5.325   3.038
  594WAT     H2 2025   5.310   5.167   3.079
  595WAT      O 2026   1.195   3.445   2.827
  595WAT     H1 2027   1.098   3.426   2.810
  595WAT     H2 2028   1.221   3.409   2.917
  596WAT      O 2029   7.038   7.711   8.729
  596WAT     H1 2030   7.074   7.725   8.637
  596WAT     H2 2031   7.034   7.798   8.778
  597WAT      O 2032   3.610   3.134   0.895
  597WAT     H1 2033   3.524   3.082   0.902
  597WAT     H2 2034   3.640   3.136   0.800
  598WAT      O 2035   2.925   7.970   0.894
  598WAT     H1 2036   3.004   7.914   0.919
  598WAT     H2 2037   2.912   8.042   0.963
  599WAT      O 2038   9.594   8.012   0.125
  599WAT     H1 2039   9.638   7.969   0.046
  599WAT     H2 2040   9.505   7.970   0.140
  600WAT      O 2041   9.648   1.423   9.114
  600WAT     H1 2042   9.742   1.401   9.088
  600WAT     H2 2043   9.598   1.457   9.034
  601WAT      O 2044   0.139   4.446   0.297
  601WAT     H1 2045   0.200   4.371   0.271
  601WAT     H2 2046   0.173   4.532   0.258
  602WAT      O 2047   3.920   0.929   3.440
  602WAT     H1 2048   3.997   0.931   3.375
  602WAT     H2 2049   3.937   0.859   3.509
  603WAT      O 2050   3.410   7.778   3.290
  603WAT     H1 2051   3.425   7.692   3.240
  603WAT     H2 2052   3.441   7.855   3.234
  604WAT      O 2053   3.572   0.965   1.541
  604WAT     H1 2054   3.554   0.874   1.577
  604WAT     H2 2055   3.532   1.034   1.601
  605WAT      O 2056   2.708   8.480   2.540
  605WAT     H1 2057   2.708   8.543   2.462
  605WAT     H2 2058   2.780   8.412   2.528
  606WAT      O 2059   8.755   6.765   8.646
  606WAT     H1 2060   8.730   6.823   8.569
  606WAT     H2 2061   8.767   6.671   8.615
  607WAT      O 2062   9.075   9.657   7.015
  607WAT     H1 2063   9.037   9.728   7.075
  607WAT     H2 2064   9.173   9.669   7.007
  608WAT      O 2065   3.338   1.496   1.890
  608WAT     H1 2066   3.289   1.502   1.977
  608WAT     H2 2067   3.413   1.430   1.899
  609WAT      O 2068   9.608   0.112   4.236
  609WAT     H1 2069   9.670   0.106   4.158
  609WAT     H2 2070   9.556   0.026   4.244
  610WAT      O 2071   9.201   3.617   6.079
  610WAT     H1 2072   9.271   3.614   6.150
  610WAT     H2 2073   9.203   3.532   6.026
  611WAT      O 2074   5.753   9.398   0.010
  611WAT     H1 2075   5.739   9.383   0.108
  611WAT     H2 2076   5.820   9.332  -0.024
  612WAT      O 2077   8.414   8.335   3.236
  612WAT     H1 2078   8.429   8.433   3.248
  612WAT     H2 2079   8.316   8.316   3.230
  613WAT      O 2080   3.737   9.023   6.674
  613WAT     H1 2081   3.789   8.972   6.604
  613WAT     H2 2082   3.673   9.085   6.629
  614WAT      O 2083   4.838   4.447   5.270
  614WAT     H1 2084   4.867   4.542   5.275
  614WAT     H2 2085   4.854   4.411   5.178
  615WAT      O 2086   1.996   6.888   8.620
  615WAT     H1 2087   2.093   6.866   8.627
  615WAT     H2 2088   1.981   6.949   8.543
  616WAT      O 2089   1.989   6.351   3.944
  616WAT     H1 2090   1.894   6.365   3.972
  616WAT     H2 2091   2.041   6.312   4.020
  617WAT      O 2092   9.591   6.909   4.799
  617WAT     H1 2093   9.626   6.983   4.856
  617WAT     H2 2094   9.657   6.888   4.727
  618WAT      O 2095   4.764   8.055   2.370
  618WAT     H1 2096   4.695   7.984   2.353
  618WAT     H2 2097   4.743   8.103   2.455
  619WAT      O 2098   6.282   2.400   2.639
  619WAT     H1 2099   6.371   2.433   2.669
  619WAT     H2 2100   6.292   2.354   2.551
  620WAT      O 2101   5.814   4.500   7.138
  620WAT     H1 2102   5.821   4.521   7.040
  620WAT     H2 2103   5.893   4.537   7.185
  621WAT      O 2104   4.158   6.679   0.330
  621WAT     H1 2105   4.137   6.584   0.307
  621WAT     H2 2106   4.232   6.711   0.272
  622WAT      O 2107   5.766   0.173   8.465
  622WAT     H1 2108   5.750   0.132   8.554
  622WAT     H2 2109   5.757   0.104   8.393
  623WAT      O 2110   5.945   5.253   6.331
  623WAT     H1 2111   5.984   5.188   6.266
  623WAT     H2 2112   5.856   5.284   6.299
  624WAT      O 2113   2.605   7.031   9.490
  624WAT     H1 2114   2.586   7.045   9.393
  624WAT     H2 2115   2.566   7.107   9.543
  625WAT      O 2116   8.232   9.505   3.239
  625WAT     H1 2117   8.298   9.561   3.289
  625WAT     H2 2118   8.273   9.415   3.219
  626WAT      O 2119   3.797   1.544   0.482
  626WAT     H1 2120   3.790   1.541   0.382
  626WAT     H2 2121   3.866   1.611   0.509
  627WAT      O 2122   7.286   1.292   5.469
  627WAT     H1 2123   7.331   1.380   5.456
  627WAT     H2 2124   7.341   1.234   5.529
  628WAT      O 2125   4.795   4.068   5.768
  628WAT     H1 2126   4.727   3.997   5.791
  628WAT     H2 2127   4.838   4.045   5.681
  629WAT      O 2128   9.442   9.494   7.620
  629WAT     H1 2129   9.441   9.594   7.610
  629WAT     H2 2130   9.534   9.460   7.599
  630WAT      O 2131   3.877   1.441   0.022
  630WAT     H1 2132   3.806   1.381  -0.015
  630WAT     H2 2133   3.959   1.434  -0.034
  631WAT      O 2134   8.099   3.745   8.697
  631WAT     H1 2135   8.059   3.663   8.736
  631WAT     H2 2136   8.120   3.729   8.601
  632WAT      O 2137   2.632   5.669   7.895
  632WAT     H1 2138   2.707   5.620   7.938
  632WAT     H2 2139   2.557   5.606   7.876
  633WAT      O 2140   5.378   4.602   1.050
  633WAT     H1 2141   5.309   4.562   1.110
  633WAT     H2 2142   5.395   4.540   0.973
  634WAT      O 2143   7.290   6.828   9.631
  634WAT     H1 2144   7.296   6.764   9.707
  634WAT     H2 2145   7.366   6.893   9.636
  635WAT      O 2146   5.586   0.092   9.435
  635WAT     H1 2147   5.664   0.155   9.437
  635WAT     H2 2148   5.586   0.041   9.349
  636WAT      O 2149   6.593   1.737   1.470
  636WAT     H1 2150   6.609   1.681   1.551
  636WAT     H2 2151   6.495   1.741   1.451
  637WAT      O 2152   8.514   8.245   4.824
  637WAT     H1 2153   8.431   8.195   4.801
  637WAT     H2 2154   8.555   8.281   4.740
  638WAT      O 2155   9.092   6.378   0.245
  638WAT     H1 2156   9.014   6.370   0.183
  638WAT     H2 2157   9.168   6.323   0.210
  639WAT      O 2158   1.392   9.530   0.912
  639WAT     H1 2159   1.430   9.622   0.918
  639WAT     H2 2160   1.383   9.492   1.004
  640WAT      O 2161   8.068   2.933   3.650
  640WAT     H1 2162   8.152   2.880   3.666
  640WAT     H2 2163   7.989   2.878   3.675
  641WAT      O 2164   4.286   8.683   8.710
  641WAT     H1 2165   4.252   8.775   8.693
  641WAT     H2 2166   4.385   8.685   8.720
  642WAT      O 2167   1.027   1.843   6.161
  642WAT     H1 2168   1.079   1.831   6.077
  642WAT     H2 2169   1.062   1.782   6.232
  643WAT      O 2170   3.831   5.556   0.649
  643WAT     H1 2171   3.925   5.533   0.673
  643WAT     H2 2172   3.829   5.647   0.607
  644WAT      O 2173   1.164   8.157   8.382
  644WAT     H1 2174   1.235   8.093   8.353
  644WAT     H2 2175   1.162   8.161   8.482
  645WAT      O 2176   6.476   4.734   5.146
  645WAT     H1 2177   6.540   4.694   5.211
  645WAT     H2 2178   6.484   4.688   5.058
  646WAT      O 2179   4.851   7.130   6.836
  646WAT     H1 2180   4.762   7.106   6.875
  646WAT     H2 2181   4.909   7.170   6.907
  647WAT      O 2182   8.104   2.289   6.181
  647WAT     H1 2183   8.068   2.228   6.251
  647WAT     H2 2184   8.197   2.316   6.204
  648WAT      O 2185   3.308   3.245   5.729
  648WAT     H1 2186   3.350   3.294   5.653
  648WAT     H2 2187   3.301   3.148   5.707
  649WAT      O 2188   7.760   2.709   5.622
  649WAT     H1 2189   7.770   2.762   5.707
  649WAT     H2 2190   7.838   2.725   5.563
  650WAT      O 2191   2.759   1.615   3.922
  650WAT     H1 2192   2.670   1.580   3.893
  650WAT     H2 2193   2.762   1.620   4.022
  651WAT      O 2194   3.264   0.099   9.230
  651WAT     H1 2195   3.176   0.118   9.185
  651WAT     H2 2196   3.261   0.133   9.324
  652WAT      O 2197   6.714   2.180   1.416
  652WAT     H1 2198   6.679   2.242   1.485
  652WAT     H2 2199   6.639   2.146   1.359
  653WAT      O 2200   7.459   8.655   1.507
  653WAT     H1 2201   7.422   8.748   1.510
  653WAT     H2 2202   7.541   8.654   1.450
  654WAT      O 2203   0.843   8.866   7.640
  654WAT     H1 2204   0.766   8.832   7.694
  654WAT     H2 2205   0.928   8.850   7.690
  655WAT      O 2206   8.165   8.382   3.919
  655WAT     H1 2207   8.089   8.434   3.957
  655WAT     H2 2208   8.165   8.289   3.958
  656WAT      O 2209   1.711   9.364   9.182
  656WAT     H1 2210   1.779   9.315   9.237
  656WAT     H2 2211   1.637   9.396   9.241
  657WAT      O 2212   3.712   1.538   5.052
  657WAT     H1 2213   3.719   1.472   5.127
  657WAT     H2 2214   3.635   1.513   4.994
  658WAT      O 2215   0.434   1.484   6.493
  658WAT     H1 2216   0.397   1.567   6.450
  658WAT     H2 2217   0.526   1.502   6.527
  659WAT      O 2218   6.660   0.083   2.832
  659WAT     H1 2219   6.662   0.059   2.929
  659WAT     H2 2220   6.669   0.000   2.777
  660WAT      O 2221   8.337   0.988   4.216
  660WAT     H1 2222   8.282   1.054   4.165
  660WAT     H2 2223   8.395   1.036   4.281
  661WAT      O 2224   9.461   8.096   3.432
  661WAT     H1 2225   9.559   8.078   3.423
  661WAT     H2 2226   9.437   8.105   3.529
  662WAT      O 2227   8.494   4.887   6.830
  662WAT     H1 2228   8.578   4.844   6.864
  662WAT     H2 2229   8.516   4.943   6.749
  663WAT      O 2230   5.791   1.350   8.894
  663WAT     H1 2231   5.758   1.294   8.819
  663WAT     H2 2232   5.738   1.434   8.900
  664WAT      O 2233   8.639   1.832   7.225
  664WAT     H1 2234   8.723   1.886   7.216
  664WAT     H2 2235   8.565   1.892   7.256
  665WAT      O 2236   5.420   5.363   4.978
  665WAT     H1 2237   5.356   5.419   5.030
  665WAT     H2 2238   5.370   5.310   4.910
  666WAT      O 2239   7.384   6.241   1.342
  666WAT     H1 2240   7.354   6.333   1.317
  666WAT     H2 2241   7.461   6.214   1.285
  667WAT      O 2242   4.056   2.750   1.598
  667WAT     H1 2243   4.031   2.825   1.537
  667WAT     H2 2244   4.140   2.773   1.647
  668WAT      O 2245   6.279   6.803   6.919
  668WAT     H1 2246   6.373   6.815   6.951
  668WAT     H2 2247   6.250   6.709   6.936
  669WAT      O 2248   3.357   8.176   5.979
  669WAT     H1 2249   3.326   8.228   5.899
  669WAT     H2 2250   3.280   8.129   6.020
  670WAT      O 2251   2.225   2.471   4.448
  670WAT     H1 2252   2.233   2.398   4.381
  670WAT     H2 2253   2.190   2.554   4.405
  671WAT      O 2254   4.307   1.116   2.264
  671WAT     H1 2255   4.281   1.144   2.171
  671WAT     H2 2256   4.343   1.195   2.314
  672WAT      O 2257   7.170   9.694   0.512
  672WAT     H1 2258   7.130   9.678   0.602
  672WAT     H2 2259   7.099   9.683   0.442
  673WAT      O 2260   7.765   7.486   7.085
  673WAT     H1 2261   7.753   7.418   7.012
  673WAT     H2 2262   7.859   7.518   7.086
  674WAT      O 2263   9.092   6.670   3.848
  674WAT     H1 2264   9.125   6.744   3.790
  674WAT     H2 2265   8.992   6.666   3.844
  675WAT      O 2266   4.866   8.743   4.163
  675WAT     H1 2267   4.853   8.827   4.111
  675WAT     H2 2268   4.892   8.669   4.101
  676WAT      O 2269   6.743   8.250   9.704
  676WAT     H1 2270   6.808   8.318   9.669
  676WAT     H2 2271   6.789   8.189   9.768
  677WAT      O 2272   8.724   0.988   1.971
  677WAT     H1 2273   8.713   1.078   1.928
  677WAT     H2 2274   8.669   0.921   1.922
  678WAT      O 2275   4.816   3.101   5.845
  678WAT     H1 2276   4.848   3.020   5.797
  678WAT     H2 2277   4.727   3.129   5.808
  679WAT      O 2278   9.623   0.127   7.127
  679WAT     H1 2279   9.563   0.132   7.047
  679WAT     H2 2280   9.613   0.210   7.182
  680WAT      O 2281   1.906   8.513   9.146
  680WAT     H1 2282   1.843   8.477   9.215
  680WAT     H2 2283   1.987   8.550   9.191
  681WAT      O 2284   3.511   2.696   0.715
  681WAT     H1 2285   3.546   2.746   0.794
  681WAT     H2 2286   3.540   2.600   0.720
  682WAT      O 2287   7.932   0.730   3.446
  682WAT     H1 2288   8.002   0.668   3.483
  682WAT     H2 2289   7.954   0.752   3.351
  683WAT      O 2290   2.988   2.750   1.633
  683WAT     H1 2291   2.925   2.827   1.648
  683WAT     H2 2292   3.051   2.772   1.560
  684WAT      O 2293   3.476   2.266   6.166
  684WAT     H1 2294   3.517   2.175   6.165
  684WAT     H2 2295   3.548   2.335   6.179
  685WAT      O 2296   0.719   8.576   4.373
  685WAT     H1 2297   0.674   8.606   4.289
  685WAT     H2 2298   0.800   8.522   4.350
  686WAT      O 2299   1.764   6.014   3.458
  686WAT     H1 2300   1.796   5.922   3.478
  686WAT     H2 2301   1.670   6.025   3.489
  687WAT      O 2302   1.846   7.173   5.669
  687WAT     H1 2303   1.869   7.249   5.730
  687WAT     H2 2304   1.896   7.091   5.699
  688WAT      O 2305   0.783   7.954   6.798
  688WAT     H1 2306   0.819   7.881   6.740
  688WAT     H2 2307   0.758   8.032   6.741
  689WAT      O 2308   6.764   0.622   8.534
  689WAT     H1 2309   6.665   0.620   8.529
  689WAT     H2 2310   6.793   0.626   8.630
  690WAT      O 2311   5.374   5.219   5.361
  690WAT     H1 2312   5.303   5.199   5.293
  690WAT     H2 2313   5.408   5.312   5.347
  691WAT      O 2314   4.627   1.953   6.087
  691WAT     H1 2315   4.558   1.972   6.157
  691WAT     H2 2316   4.607   2.007   6.005
  692WAT      O 2317   7.012   5.965   4.839
  692WAT     H1 2318   7.065   5.914   4.907
  692WAT     H2 2319   6.948   5.904   4.793
  693WAT      O 2320   1.762   9.716   7.246
  693WAT     H1 2321   1.793   9.628   7.281
  693WAT     H2 2322   1.759   9.714   7.146
  694WAT      O 2323   2.587   1.870   2.620
  694WAT     H1 2324   2.661   1.895   2.682
  694WAT     H2 2325   2.626   1.823   2.540
  695WAT      O 2326   1.694   2.202   6.928
  695WAT     H1 2327   1.595   2.198   6.918
  695WAT     H2 2328   1.725   2.297   6.922
  696WAT      O 2329   5.677   6.607   0.687
  696WAT     H1 2330   5.628   6.549   0.622
  696WAT     H2 2331   5.627   6.694   0.697
  697WAT      O 2332   6.143   0.853   1.144
  697WAT     H1 2333   6.230   0.851   1.193
  697WAT     H2 2334   6.136   0.939   1.092
  698WAT      O 2335   5.067   7.598   4.134
  698WAT     H1 2336   5.143   7.588   4.199
  698WAT     H2 2337   5.019   7.684   4.151
  699WAT      O 2338   2.431   2.092   6.194
  699WAT     H1 2339   2.414   2.068   6.289
  699WAT     H2 2340   2.475   2.182   6.189
  700WAT      O 2341   6.835   4.810   5.807
  700WAT     H1 2342   6.918   4.758   5.825
  700WAT     H2 2343   6.765   4.749   5.770
  701WAT      O 2344   3.453   9.472   8.896
  701WAT     H1 2345   3.457   9.542   8.967
  701WAT     H2 2346   3.365   9.425   8.900
  702WAT      O 2347   6.938   4.786   6.836
  702WAT     H1 2348   7.036   4.790   6.818
  702WAT     H2 2349   6.918   4.829   6.924
  703WAT      O 2350   4.998   0.726   8.494
  703WAT     H1 2351   5.088   0.747   8.455
  703WAT     H2 2352   5.010   0.685   8.584
  704WAT      O 2353   6.025   0.532   7.879
  704WAT     H1 2354   5.994   0.583   7.959
  704WAT     H2 2355   6.108   0.574   7.842
  705WAT      O 2356   1.156   4.338   6.799
  705WAT     H1 2357   1.212   4.417   6.822
  705WAT     H2 2358   1.215   4.263   6.769
  706WAT      O 2359   9.836   2.839   3.475
  706WAT     H1 2360   9.876   2.748   3.463
  706WAT     H2 2361   9.874   2.882   3.557
  707WAT      O 2362   4.012   1.859   1.484
  707WAT     H1 2363   4.043   1.866   1.389
  707WAT     H2 2364   3.917   1.831   1.486
  708WAT      O 2365   4.108   8.854   1.331
  708WAT     H1 2366   4.060   8.885   1.414
  708WAT     H2 2367   4.189   8.911   1.317
  709WAT      O 2368   7.198   5.425   1.314
  709WAT     H1 2369   7.198   5.414   1.413
  709WAT     H2 2370   7.117   5.380   1.275
  710WAT      O 2371   2.424   0.414   9.532
  710WAT     H1 2372   2.355   0.465   9.583
  710WAT     H2 2373   2.394   0.404   9.437
  711WAT      O 2374   2.843   2.340   9.349
  711WAT     H1 2375   2.778   2.413   9.371
  711WAT     H2 2376   2.904   2.372   9.276
  712WAT      O 2377   1.862   4.187   3.292
  712WAT     H1 2378   1.828   4.164   3.384
  712WAT     H2 2379   1.953   4.149   3.280
  713WAT      O 2380   5.324   6.246   6.065
  713WAT     H1 2381   5.254   6.176   6.078
  713WAT     H2 2382   5.344   6.290   6.152
  714WAT      O 2383   3.843   7.047   9.871
  714WAT     H1 2384   3.769   6.984   9.844
  714WAT     H2 2385   3.930   7.012   9.837
  715WAT      O 2386   1.606   3.369   2.527
  715WAT     H1 2387   1.593   3.322   2.614
  715WAT     H2 2388   1.517   3.379   2.482
  716WAT      O 2389   6.086   8.849   7.783
  716WAT     H1 2390   6.032   8.765   7.793
  716WAT     H2 2391   6.055   8.898   7.701
  717WAT      O 2392   6.945   5.805   3.725
  717WAT     H1 2393   6.935   5.795   3.626
  717WAT     H2 2394   7.021   5.748   3.756
  718WAT      O 2395   2.371   7.190   6.228
  718WAT     H1 2396   2.432   7.172   6.151
  718WAT     H2 2397   2.381   7.285   6.257
  719WAT      O 2398   9.738   7.715   8.165
  719WAT     H1 2399   9.765   7.656   8.241
  719WAT     H2 2400   9.818   7.737   8.110
  720WAT      O 2401   0.049   0.192   8.454
  720WAT     H1 2402   0.085   0.283   8.436
  720WAT     H2 2403   0.078   0.162   8.545
  721WAT      O 2404   1.535   3.097   0.459
  721WAT     H1 2405   1.569   3.142   0.542
  721WAT     H2 2406   1.459   3.036   0.483
  722WAT      O 2407   3.312   3.261   1.704
  722WAT     H1 2408   3.240   3.192   1.702
  722WAT     H2 2409   3.282   3.339   1.759
  723WAT      O 2410   7.291   6.803   1.796
  723WAT     H1 2411   7.320   6.727   1.854
  723WAT     H2 2412   7.303   6.779   1.700
  724WAT      O 2413   4.717   4.185   1.761
  724WAT     H1 2414   4.734   4.131   1.679
  724WAT     H2 2415   4.771   4.269   1.757
  725WAT      O 2416   0.520   6.863   7.078
  725WAT     H1 2417   0.508   6.899   6.986
  725WAT     H2 2418   0.613   6.829   7.089
  726WAT      O 2419   1.390   4.250   4.700
  726WAT     H1 2420   1.306   4.210   4.737
  726WAT     H2 2421   1.464   4.183   4.704
  727WAT      O 2422   8.019   9.324   4.077
  727WAT     H1 2423   7.929   9.327   4.034
  727WAT     H2 2424   8.051   9.418   4.092
  728WAT      O 2425   3.800   2.693   1.923
  728WAT     H1 2426   3.823   2.779   1.877
  728WAT     H2 2427   3.869   2.674   1.993
  729WAT      O 2428   6.764   6.614   5.321
  729WAT     H1 2429   6.791   6.688   5.259
  729WAT     H2 2430   6.672   6.583   5.298
  730WAT      O 2431   5.124   6.898   0.505
  730WAT     H1 2432   5.096   6.921   0.599
  730WAT     H2 2433   5.180   6.973   0.469
  731WAT      O 2434   2.772   0.650   6.456
  731WAT     H1 2435   2.781   0.635   6.358
  731WAT     H2 2436   2.837   0.720   6.486
  732WAT      O 2437   7.918   4.570   0.072
  732WAT     H1 2438   8.015   4.549   0.085
  732WAT     H2 2439   7.897   4.573  -0.026
  733WAT      O 2440   5.421   6.371   7.969
  733WAT     H1 2441   5.386   6.464   7.981
  733WAT     H2 2442   5.507   6.374   7.919
  734WAT      O 2443   9.256   1.370   9.709
  734WAT     H1 2444   9.268   1.457   9.758
  734WAT     H2 2445   9.167   1.369   9.663
  735WAT      O 2446   3.773   2.517   1.434
  735WAT     H1 2447   3.787   2.578   1.512
  735WAT     H2 2448   3.828   2.435   1.446
  736WAT      O 2449   7.176   6.111   1.711
  736WAT     H1 2450   7.233   6.049   1.763
  736WAT     H2 2451   7.080   6.088   1.724
  737WAT      O 2452   7.771   0.833   8.317
  737WAT     H1 2453   7.779   0.849   8.219
  737WAT     H2 2454   7.708   0.900   8.357
  738WAT      O 2455   6.121   3.233   1.453
  738WAT     H1 2456   6.083   3.230   1.361
  738WAT     H2 2457   6.190   3.161   1.463
  739WAT      O 2458   0.040   8.807   6.755
  739WAT     H1 2459  -0.026   8.864   6.707
  739WAT     H2 2460   0.096   8.757   6.689
  740WAT      O 2461   0.013   3.821   9.144
  740WAT     H1 2462  -0.063   3.857   9.089
  740WAT     H2 2463   0.094   3.877   9.129
  741WAT      O 2464   8.744   2.400   3.378
  741WAT     H1 2465   8.780   2.411   3.470
  741WAT     H2 2466   8.777   2.314   3.339
  742WAT      O 2467   9.826   5.622   4.551
  742WAT     H1 2468   9.842   5.525   4.568
  742WAT     H2 2469   9.909   5.664   4.515
  743WAT      O 2470   3.905   3.313   1.474
  743WAT     H1 2471   3.935   3.325   1.380
  743WAT     H2 2472   3.984   3.287   1.531
  744WAT      O 2473   6.304   8.555   3.083
  744WAT     H1 2474   6.243   8.631   3.063
  744WAT     H2 2475   6.309   8.542   3.182
  745WAT      O 2476   7.637   2.491   0.178
  745WAT     H1 2477   7.676   2.403   0.149
  745WAT     H2 2478   7.652   2.503   0.276
  746WAT      O 2479   5.082   2.204   2.276
  746WAT     H1 2480   5.006   2.264   2.302
  746WAT     H2 2481   5.159   2.221   2.339
  747WAT      O 2482   2.806   5.720   1.621
  747WAT     H1 2483   2.876   5.740   1.552
  747WAT     H2 2484   2.716   5.722   1.578
  748WAT      O 2485   5.040   5.309   2.844
  748WAT     H1 2486   5.009   5.385   2.901
  748WAT     H2 2487   5.103   5.251   2.896
  749WAT      O 2488   5.482   2.247   7.335
  749WAT     H1 2489   5.385   2.234   7.316
  749WAT     H2 2490   5.504   2.208   7.424
  750WAT      O 2491   8.435   5.831   8.028
  750WAT     H1 2492   8.443   5.893   7.950
  750WAT     H2 2493   8.511   5.766   8.027
  751WAT      O 2494   5.911   6.545   1.499
  751WAT     H1 2495   5.849   6.603   1.553
  751WAT     H2 2496   5.921   6.582   1.407
  752WAT      O 2497   7.454   4.052   1.763
  752WAT     H1 2498   7.499   3.997   1.833
  752WAT     H2 2499   7.466   4.149   1.783
  753WAT      O 2500   5.890   1.520   7.474
  753WAT     H1 2501   5.928   1.603   7.515
  753WAT     H2 2502   5.951   1.488   7.401
  754WAT      O 2503   6.248   7.195   9.432
  754WAT     H1 2504   6.320   7.238   9.376
  754WAT     H2 2505   6.227   7.105   9.395
  755WAT      O 2506   3.151   3.276   3.280
  755WAT     H1 2507   3.173   3.179   3.283
  755WAT     H2 2508   3.230   3.329   3.312
  756WAT      O 2509   0.137   8.677   9.055
  756WAT     H1 2510   0.059   8.660   8.995
  756WAT     H2 2511   0.212   8.718   9.003
  757WAT      O 2512   0.101   8.857   5.057
  757WAT     H1 2513   0.188   8.872   5.103
  757WAT     H2 2514   0.073   8.761   5.067
  758WAT      O 2515   5.030   5.904   6.280
  758WAT     H1 2516   5.052   5.866   6.190
  758WAT     H2 2517   5.019   5.830   6.346
  759WAT      O 2518   0.525   0.684   9.468
  759WAT     H1 2519   0.579   0.642   9.396
  759WAT     H2 2520   0.470   0.758   9.430
  760WAT      O 2521   8.920   9.642   4.848
  760WAT     H1 2522   8.832   9.614   4.808
  760WAT     H2 2523   8.994   9.624   4.784
  761WAT      O 2524   1.228   9.087   9.369
  761WAT     H1 2525   1.211   9.174   9.416
  761WAT     H2 2526   1.293   9.102   9.295
  762WAT      O 2527   6.819   1.824   6.342
  762WAT     H1 2528   6.771   1.741   6.371
  762WAT     H2 2529   6.752   1.889   6.305
  763WAT      O 2530  -0.003   2.781   3.165
  763WAT     H1 2531  -0.030   2.867   3.211
  763WAT     H2 2532   0.095   2.766   3.178
  764WAT      O 2533   0.549   7.099   9.875
  764WAT     H1 2534   0.571   7.179   9.932
  764WAT     H2 2535   0.583   7.115   9.782
  765WAT      O 2536   2.815   3.065   3.131
  765WAT     H1 2537   2.872   3.140   3.096
  765WAT     H2 2538   2.832   2.983   3.076
  766WAT      O 2539   8.286   5.647   2.691
  766WAT     H1 2540   8.315   5.643   2.786
  766WAT     H2 2541   8.290   5.741   2.658
  767WAT      O 2542   0.030   2.549   7.613
  767WAT     H1 2543   0.110   2.606   7.601
  767WAT     H2 2544   0.055   2.466   7.664
  768WAT      O 2545   9.731   1.550   2.795
  768WAT     H1 2546   9.674   1.488   2.742
  768WAT     H2 2547   9.789   1.497   2.857
  769WAT      O 2548   2.735   4.459   1.695
  769WAT     H1 2549   2.664   4.427   1.633
  769WAT     H2 2550   2.697   4.526   1.759
  770WAT      O 2551   0.762   7.426   4.775
  770WAT     H1 2552   0.808   7.496   4.829
  770WAT     H2 2553   0.828   7.383   4.713
  771WAT      O 2554   7.505   3.276   6.391
  771WAT     H1 2555   7.554   3.205   6.341
  771WAT     H2 2556   7.568   3.326   6.450
  772WAT      O 2557   7.875   1.066   1.154
  772WAT     H1 2558   7.784   1.098   1.127
  772WAT     H2 2559   7.924   1.141   1.198
  773WAT      O 2560   6.040   7.903   7.204
  773WAT     H1 2561   6.036   7.855   7.292
  773WAT     H2 2562   6.130   7.946   7.194
  774WAT      O 2563   1.541   7.079   6.690
  774WAT     H1 2564   1.512   6.996   6.738
  774WAT     H2 2565   1.484   7.091   6.609
  775WAT      O 2566   8.776   1.337   8.050
  775WAT     H1 2567   8.813   1.308   7.962
  775WAT     H2 2568   8.825   1.289   8.123
  776WAT      O 2569   9.868   1.543   7.209
  776WAT     H1 2570   9.793   1.519   7.271
  776WAT     H2 2571   9.831   1.562   7.118
  777WAT      O 2572   0.523   5.521   7.965
  777WAT     H1 2573   0.569   5.601   8.004
  777WAT     H2 2574   0.445   5.549   7.911
  778WAT      O 2575   0.735   3.769   2.786
  778WAT     H1 2576   0.740   3.854   2.734
  778WAT     H2 2577   0.668   3.708   2.745
  779WAT      O 2578   0.018   7.779   3.592
  779WAT     H1 2579  -0.040   7.861   3.587
  779WAT     H2 2580   0.061   7.774   3.682
  780WAT      O 2581   8.642   7.440   3.195
  780WAT     H1 2582   8.564   7.470   3.250
  780WAT     H2 2583   8.720   7.420   3.254
  781WAT      O 2584   8.926   6.286   5.034
  781WAT     H1 2585   8.965   6.361   5.087
  781WAT     H2 2586   8.826   6.292   5.037
  782WAT      O 2587   2.796   9.276   3.812
  782WAT     H1 2588   2.875   9.276   3.751
  782WAT     H2 2589   2.742   9.359   3.797
  783WAT      O 2590   8.002   5.198   9.437
  783WAT     H1 2591   7.918   5.143   9.438
  783WAT     H2 2592   7.987   5.280   9.381
  784WAT      O 2593   5.092   8.146   9.828
  784WAT     H1 2594   5.098   8.108   9.735
  784WAT     H2 2595   5.174   8.200   9.847
  785WAT      O 2596   1.742   4.749   0.684
  785WAT     H1 2597   1.786   4.751   0.773
  785WAT     H2 2598   1.737   4.842   0.647
  786WAT      O 2599   6.781   2.657   4.697
  786WAT     H1 2600   6.740   2.744   4.727
  786WAT     H2 2601   6.806   2.603   4.777
  787WAT      O 2602   0.119   0.264   0.312
  787WAT     H1 2603   0.098   0.295   0.405
  787WAT     H2 2604   0.176   0.332   0.266
  788WAT      O 2605   7.205   7.722   8.495
  788WAT     H1 2606   7.282   7.666   8.525
  788WAT     H2 2607   7.237   7.814   8.472
  789WAT      O 2608   1.700   8.221   8.839
  789WAT     H1 2609   1.789   8.235   8.883
  789WAT     H2 2610   1.699   8.131   8.795
  790WAT      O 2611   8.096   5.495   0.928
  790WAT     H1 2612   8.148   5.551   0.992
  790WAT     H2 2613   8.048   5.423   0.978
  791WAT      O 2614   1.087   6.671   4.326
  791WAT     H1 2615   1.008   6.616   4.352
  791WAT     H2 2616   1.055   6.754   4.278
  792WAT      O 2617   6.442   3.201   6.135
  792WAT     H1 2618   6.439   3.101   6.133
  792WAT     H2 2619   6.425   3.236   6.043
  793WAT      O 2620   1.723   4.911   5.670
  793WAT     H1 2621   1.796   4.846   5.651
  793WAT     H2 2622   1.719   4.931   5.768
  794WAT      O 2623   3.305   2.934   7.706
  794WAT     H1 2624   3.365   2.885   7.769
  794WAT     H2 2625   3.296   3.029   7.736
  795WAT      O 2626   5.685   5.697   5.824
  795WAT     H1 2627   5.637   5.684   5.910
  795WAT     H2 2628   5.674   5.792   5.794
  796WAT      O 2629   0.599   7.368   0.875
  796WAT     H1 2630   0.525   7.387   0.940
  796WAT     H2 2631   0.673   7.434   0.887
  797WAT      O 2632   8.180   1.725   9.284
  797WAT     H1 2633   8.100   1.779   9.261
  797WAT     H2 2634   8.210   1.673   9.204
  798WAT      O 2635   3.102   1.157   2.461
  798WAT     H1 2636   3.118   1.168   2.363
  798WAT     H2 2637   3.159   1.222   2.511
  799WAT      O 2638   0.481   5.470   6.589
  799WAT     H1 2639   0.411   5.420   6.641
  799WAT     H2 2640   0.520   5.409   6.520
  800WAT      O 2641   4.544   4.587   3.278
  800WAT     H1 2642   4.613   4.517   3.293
  800WAT     H2 2643   4.583   4.661   3.223
  801WAT      O 2644   7.125   9.085   1.849
  801WAT     H1 2645   7.167   9.157   1.794
  801WAT     H2 2646   7.195   9.036   1.899
  802WAT      O 2647   0.339   1.930   5.091
  802WAT     H1 2648   0.320   1.876   5.009
  802WAT     H2 2649   0.253   1.955   5.135
  803WAT      O 2650   6.744   4.446   9.237
  803WAT     H1 2651   6.794   4.529   9.213
  803WAT     H2 2652   6.757   4.377   9.166
  804WAT      O 2653   1.341   1.827   5.034
  804WAT     H1 2654   1.406   1.759   5.002
  804WAT     H2 2655   1.362   1.851   5.129
  805WAT      O 2656   8.353   6.347   8.959
  805WAT     H1 2657   8.351   6.320   8.863
  805WAT     H2 2658   8.420   6.291   9.008
  806WAT      O 2659   7.153   4.189   3.264
  806WAT     H1 2660   7.166   4.152   3.172
  806WAT     H2 2661   7.221   4.261   3.281
  807WAT      O 2662   9.331   1.322   3.796
  807WAT     H1 2663   9.335   1.283   3.704
  807WAT     H2 2664   9.424   1.334   3.831
  808WAT      O 2665   3.103   2.339   2.454
  808WAT     H1 2666   3.178   2.403   2.470
  808WAT     H2 2667   3.111   2.262   2.517
  809WAT      O 2668   3.380   8.294   2.740
  809WAT     H1 2669   3.430   8.302   2.826
  809WAT     H2 2670   3.444   8.299   2.663
  810WAT      O 2671   3.879   3.463   5.466
  810WAT     H1 2672   3.925   3.461   5.555
  810WAT     H2 2673   3.855   3.370   5.439
  811WAT      O 2674   6.044   5.826   2.801
  811WAT     H1 2675   6.081   5.906   2.848
  811WAT     H2 2676   6.061   5.836   2.703
  812WAT      O 2677   3.834   2.117   4.697
  812WAT     H1 2678   3.840   2.075   4.607
  812WAT     H2 2679   3.742   2.152   4.712
  813WAT      O 2680   1.660   1.137   6.378
  813WAT     H1 2681   1.729   1.197   6.417
  813WAT     H2 2682   1.569   1.174   6.395
  814WAT      O 2683   4.730   0.086   4.897
  814WAT     H1 2684   4.742   0.185   4.897
  814WAT     H2 2685   4.665   0.060   4.825
  815WAT      O 2686   2.558   1.838   8.977
  815WAT     H1 2687   2.592   1.916   9.030
  815WAT     H2 2688   2.460   1.849   8.963
  816WAT      O 2689   1.387   2.436   4.652
  816WAT     H1 2690   1.384   2.340   4.622
  816WAT     H2 2691   1.413   2.440   4.749
  817WAT      O 2692   3.627   6.721   1.854
  817WAT     H1 2693   3.616   6.801   1.795
  817WAT     H2 2694   3.723   6.708   1.876
  818WAT      O 2695   1.649   2.118   9.269
  818WAT     H1 2696   1.563   2.156   9.234
  818WAT     H2 2697   1.716   2.114   9.195
  819WAT      O 2698   1.446   8.996   8.404
  819WAT     H1 2699   1.416   8.972   8.311
  819WAT     H2 2700   1.479   8.914   8.451
  820WAT      O 2701   0.795   6.481   9.207
  820WAT     H1 2702   0.799   6.476   9.307
  820WAT     H2 2703   0.857   6.413   9.168
  821WAT      O 2704   7.704   3.022   0.755
  821WAT     H1 2705   7.694   3.109   0.707
  821WAT     H2 2706   7.614   2.982   0.772
  822WAT      O 2707   5.668   4.795   2.814
  822WAT     H1 2708   5.621   4.847   2.886
  822WAT     H2 2709   5.762   4.776   2.842
  823WAT      O 2710   0.196   4.588   4.504
  823WAT     H1 2711   0.218   4.686   4.506
  823WAT     H2 2712   0.263   4.538   4.558
  824WAT      O 2713   1.673   2.015   6.324
  824WAT     H1 2714   1.719   1.983   6.241
  824WAT     H2 2715   1.579   1.979   6.325
  825WAT      O 2716   9.143   8.832   9.000
  825WAT     H1 2717   9.123   8.810   8.905
  825WAT     H2 2718   9.091   8.772   9.060
  826WAT      O 2719   1.066   8.466   8.058
  826WAT     H1 2720   1.143   8.403   8.047
  826WAT     H2 2721   0.981   8.419   8.035
  827WAT      O 2722   6.576   7.885   4.863
  827WAT     H1 2723   6.626   7.916   4.782
  827WAT     H2 2724   6.484   7.856   4.835
  828WAT      O 2725   6.843   0.864   5.254
  828WAT     H1 2726   6.876   0.818   5.336
  828WAT     H2 2727   6.805   0.953   5.278
  829WAT      O 2728   4.415   8.443   4.394
  829WAT     H1 2729   4.467   8.509   4.449
  829WAT     H2 2730   4.478   8.396   4.331
  830WAT      O 2731   0.892   7.979   3.799
  830WAT     H1 2732   0.907   7.934   3.887
  830WAT     H2 2733   0.804   8.028   3.802
  831WAT      O 2734   4.754   6.612   6.528
  831WAT     H1 2735   4.679   6.676   6.511
  831WAT     H2 2736   4.726   6.521   6.498
  832WAT      O 2737   0.775   7.490   3.516
  832WAT     H1 2738   0.699   7.524   3.571
  832WAT     H2 2739   0.781   7.541   3.431
  833WAT      O 2740   9.042   0.731   9.839
  833WAT     H1 2741   9.098   0.689   9.911
  833WAT     H2 2742   8.989   0.806   9.879
  834WAT      O 2743   8.863   2.769   9.704
  834WAT     H1 2744   8.876   2.796   9.799
  834WAT     H2 2745   8.951   2.745   9.663
  835WAT      O 2746   2.570   8.566   5.644
  835WAT     H1 2747   2.514   8.550   5.726
  835WAT     H2 2748   2.594   8.662   5.638
  836WAT      O 2749   9.730   1.356   1.098
  836WAT     H1 2750   9.788   1.437   1.089
  836WAT     H2 2751   9.779   1.276   1.062
  837WAT      O 2752   1.492   0.967   8.206
  837WAT     H1 2753   1.551   0.918   8.143
  837WAT     H2 2754   1.502   0.929   8.298
  838WAT      O 2755   2.534   1.124   3.720
  838WAT     H1 2756   2.547   1.031   3.752
  838WAT     H2 2757   2.454   1.164   3.765
  839WAT      O 2758   3.397   1.395   4.038
  839WAT     H1 2759   3.297   1.400   4.045
  839WAT     H2 2760   3.437   1.382   4.129
  840WAT      O 2761   8.382   6.383   4.361
  840WAT     H1 2762   8.305   6.328   4.394
  840WAT     H2 2763   8.366   6.408   4.266
  841WAT      O 2764   6.361   9.336   5.974
  841WAT     H1 2765   6.280   9.278   5.967
  841WAT     H2 2766   6.341   9.426   5.938
  842WAT      O 2767   1.175   8.427   9.357
  842WAT     H1 2768   1.180   8.524   9.381
  842WAT     H2 2769   1.152   8.418   9.260
  843WAT      O 2770   3.158   4.057   7.206
  843WAT     H1 2771   3.079   4.086   7.151
  843WAT     H2 2772   3.151   3.960   7.227
  844WAT      O 2773   1.686   8.004   8.676
  844WAT     H1 2774   1.766   7.998   8.617
  844WAT     H2 2775   1.641   7.915   8.681
  845WAT      O 2776   0.883   5.070   2.223
  845WAT     H1 2777   0.835   5.154   2.249
  845WAT     H2 2778   0.981   5.082   2.238
  846WAT      O 2779   0.710   4.413   3.904
  846WAT     H1 2780   0.708   4.513   3.911
  846WAT     H2 2781   0.785   4.385   3.843
  847WAT      O 2782   3.879   1.779   7.920
  847WAT     H1 2783   3.853   1.851   7.984
  847WAT     H2 2784   3.927   1.819   7.843
  848WAT      O 2785   7.179   8.428   3.208
  848WAT     H1 2786   7.147   8.503   3.149
  848WAT     H2 2787   7.121   8.422   3.289
  849WAT      O 2788   5.743   4.141   4.961
  849WAT     H1 2789   5.680   4.131   5.037
  849WAT     H2 2790   5.737   4.061   4.901
  850WAT      O 2791   9.878   4.991   1.308
  850WAT     H1 2792   9.906   5.000   1.213
  850WAT     H2 2793   9.815   4.914   1.317
  851WAT      O 2794   4.966   7.698   4.679
  851WAT     H1 2795   4.996   7.792   4.697
  851WAT     H2 2796   4.998   7.670   4.589
  852WAT      O 2797   0.715   4.548   1.763
  852WAT     H1 2798   0.760   4.629   1.801
  852WAT     H2 2799   0.755   4.465   1.802
  853WAT      O 2800   5.282   6.608   0.871
  853WAT     H1 2801   5.281   6.572   0.778
  853WAT     H2 2802   5.375   6.603   0.908
  854WAT      O 2803   1.210   2.677   6.561
  854WAT     H1 2804   1.226   2.756   6.501
  854WAT     H2 2805   1.267   2.601   6.532
  855WAT      O 2806   2.421   3.746   4.468
  855WAT     H1 2807   2.475   3.672   4.507
  855WAT     H2 2808   2.481   3.805   4.414
  856WAT      O 2809   7.750   3.357   5.777
  856WAT     H1 2810   7.693   3.403   5.709
  856WAT     H2 2811   7.807   3.288   5.732
  857WAT      O 2812   4.010   7.759   4.122
  857WAT     H1 2813   3.978   7.714   4.039
  857WAT     H2 2814   4.093   7.713   4.155
  858WAT      O 2815   7.870   3.932   2.180
  858WAT     H1 2816   7.939   3.964   2.244
  858WAT     H2 2817   7.883   3.835   2.162
  859WAT      O 2818   7.139   0.920   2.699
  859WAT     H1 2819   7.208   0.886   2.763
  859WAT     H2 2820   7.059   0.952   2.749
  860WAT      O 2821   8.542   1.096   2.429
  860WAT     H1 2822   8.475   1.024   2.446
  860WAT     H2 2823   8.612   1.094   2.500
  861WAT      O 2824   5.032   6.922   2.419
  861WAT     H1 2825   5.061   6.827   2.406
  861WAT     H2 2826   5.096   6.983   2.373
  862WAT      O 2827   2.654   0.140   9.289
  862WAT     H1 2828   2.753   0.150   9.298
  862WAT     H2 2829   2.618   0.098   9.372
  863WAT      O 2830   0.981   2.295   7.261
  863WAT     H1 2831   0.891   2.328   7.231
  863WAT     H2 2832   0.989   2.197   7.241
  864WAT      O 2833   5.696   1.480   0.505
  864WAT     H1 2834   5.781   1.440   0.469
  864WAT     H2 2835   5.619   1.422   0.479
  865WAT      O 2836   3.921   1.512   0.952
  865WAT     H1 2837   3.853   1.476   0.888
  865WAT     H2 2838   3.933   1.610   0.936
  866WAT      O 2839   3.156   6.601   7.706
  866WAT     H1 2840   3.170   6.700   7.709
  866WAT     H2 2841   3.102   6.572   7.785
  867WAT      O 2842   3.033   5.337   7.824
  867WAT     H1 2843   3.017   5.331   7.726
  867WAT     H2 2844   3.106   5.402   7.843
  868WAT      O 2845   6.248   0.781   9.754
  868WAT     H1 2846   6.304   0.863   9.763
  868WAT     H2 2847   6.287   0.721   9.685
  869WAT      O 2848   2.731   8.719   1.435
  869WAT     H1 2849   2.795   8.792   1.412
  869WAT     H2 2850   2.708   8.724   1.533
  870WAT      O 2851   3.957   0.731   2.581
  870WAT     H1 2852   3.941   0.827   2.562
  870WAT     H2 2853   3.918   0.707   2.670
  871WAT      O 2854   3.279   0.942   7.480
  871WAT     H1 2855   3.226   1.015   7.437
  871WAT     H2 2856   3.295   0.869   7.413
  872WAT      O 2857   2.505   0.897   2.189
  872WAT     H1 2858   2.445   0.829   2.230
  872WAT     H2 2859   2.584   0.912   2.248
  873WAT      O 2860   8.337   9.499   7.163
  873WAT     H1 2861   8.426   9.454   7.174
  873WAT     H2 2862   8.282   9.484   7.245
  874WAT      O 2863   7.097   4.431   1.887
  874WAT     H1 2864   7.102   4.407   1.790
  874WAT     H2 2865   7.138   4.358   1.942
  875WAT      O 2866   2.227   2.947   4.654
  875WAT     H1 2867   2.136   2.915   4.628
  875WAT     H2 2868   2.289   2.868   4.660
  876WAT      O 2869   6.425   2.951   1.798
  876WAT     H1 2870   6.496   2.909   1.855
  876WAT     H2 2871   6.399   3.039   1.838
  877WAT      O 2872   8.144   5.872   5.868
  877WAT     H1 2873   8.174   5.777   5.859
  877WAT     H2 2874   8.205   5.931   5.814
  878WAT      O 2875   0.683   1.407   0.757
  878WAT     H1 2876   0.693   1.436   0.852
  878WAT     H2 2877   0.586   1.401   0.733
  879WAT      O 2878   6.639   1.356   7.340
  879WAT     H1 2879   6.654   1.339   7.242
  879WAT     H2 2880   6.541   1.354   7.360
  880WAT      O 2881   5.218   9.509   7.221
  880WAT     H1 2882   5.155   9.565   7.276
  880WAT     H2 2883   5.243   9.558   7.138
  881WAT      O 2884   7.025   9.721   1.938
  881WAT     H1 2885   7.082   9.701   1.858
  881WAT     H2 2886   7.083   9.747   2.015
  882WAT      O 2887   4.506   5.532   5.451
  882WAT     H1 2888   4.516   5.604   5.383
  882WAT     H2 2889   4.535   5.445   5.412
  883WAT      O 2890   8.416   9.034   5.633
  883WAT     H1 2891   8.429   9.121   5.585
  883WAT     H2 2892   8.477   9.030   5.713
  884WAT      O 2893   9.337   0.221   9.002
  884WAT     H1 2894   9.319   0.248   9.096
  884WAT     H2 2895   9.415   0.158   8.999
  885WAT      O 2896   9.662   6.136   9.771
  885WAT     H1 2897   9.617   6.048   9.757
  885WAT     H2 2898   9.749   6.123   9.818
  886WAT      O 2899   4.205   3.717   5.761
  886WAT     H1 2900   4.259   3.665   5.827
  886WAT     H2 2901   4.209   3.673   5.671
  887WAT      O 2902   2.098   4.765   6.092
  887WAT     H1 2903   2.115   4.861   6.115
  887WAT     H2 2904   2.185   4.715   6.092
  888WAT      O 2905   5.235   4.936   2.894
  888WAT     H1 2906   5.243   4.871   2.818
  888WAT     H2 2907   5.140   4.966   2.903
  889WAT      O 2908   9.492   1.820   8.160
  889WAT     H1 2909   9.424   1.868   8.215
  889WAT     H2 2910   9.449   1.740   8.117
  890WAT      O 2911   2.484   8.202   8.291
  890WAT     H1 2912   2.523   8.115   8.261
  890WAT     H2 2913   2.394   8.214   8.249
  891WAT      O 2914   4.909   4.725   7.166
  891WAT     H1 2915   4.961   4.802   7.128
  891WAT     H2 2916   4.920   4.724   7.266
  892WAT      O 2917   1.234   7.883   4.021
  892WAT     H1 2918   1.300   7.828   3.969
  892WAT     H2 2919   1.196   7.954   3.962
  893WAT      O 2920   5.216   2.235   7.239
  893WAT     H1 2921   5.196   2.309   7.175
  893WAT     H2 2922   5.158   2.243   7.320
  894WAT      O 2923   2.697   7.162   2.715
  894WAT     H1 2924   2.787   7.202   2.734
  894WAT     H2 2925   2.626   7.224   2.747
  895WAT      O 2926   3.198   5.158   3.937
  895WAT     H1 2927   3.155   5.148   4.027
  895WAT     H2 2928   3.173   5.080   3.879
  896WAT      O 2929   6.072   8.543   3.540
  896WAT     H1 2930   6.076   8.499   3.630
  896WAT     H2 2931   6.009   8.492   3.481
  897WAT      O 2932   0.990   7.095   1.162
  897WAT     H1 2933   0.972   6.999   1.184
  897WAT     H2 2934   0.971   7.111   1.065
  898WAT      O 2935   0.729   7.298   0.518
  898WAT     H1 2936   0.688   7.260   0.436
  898WAT     H2 2937   0.668   7.285   0.596
  899WAT      O 2938   0.178   3.436   3.238
  899WAT     H1 2939   0.113   3.478   3.175
  899WAT     H2 2940   0.129   3.378   3.303
  900WAT      O 2941   3.315   5.359   8.399
  900WAT     H1 2942   3.269   5.286   8.349
  900WAT     H2 2943   3.326   5.332   8.495
  901WAT      O 2944   9.569   4.216   6.505
  901WAT     H1 2945   9.476   4.181   6.496
  901WAT     H2 2946   9.630   4.141   6.533
  902WAT      O 2947   1.085   6.345   5.410
  902WAT     H1 2948   1.161   6.332   5.474
  902WAT     H2 2949   1.036   6.429   5.433
  903WAT      O 2950   1.969   0.475   4.696
  903WAT     H1 2951   2.018   0.415   4.761
  903WAT     H2 2952   1.910   0.538   4.747
  904WAT      O 2953   6.168   3.272   5.538
  904WAT     H1 2954   6.119   3.209   5.598
  904WAT     H2 2955   6.192   3.225   5.453
  905WAT      O 2956   8.432   8.274   8.681
  905WAT     H1 2957   8.396   8.357   8.637
  905WAT     H2 2958   8.363   8.235   8.742
  906WAT      O 2959   2.846   9.154   6.234
  906WAT     H1 2960   2.896   9.144   6.148
  906WAT     H2 2961   2.749   9.133   6.219
  907WAT      O 2962   4.091   2.350   6.329
  907WAT     H1 2963   4.083   2.379   6.425
  907WAT     H2 2964   4.055   2.423   6.270
  908WAT      O 2965   8.524   0.787   8.293
  908WAT     H1 2966   8.515   0.694   8.260
  908WAT     H2 2967   8.578   0.787   8.377
  909WAT      O 2968   2.016   8.797   6.391
  909WAT     H1 2969   2.049   8.887   6.418
  909WAT     H2 2970   1.923   8.784   6.425
  910WAT      O 2971   9.783   7.590   9.851
  910WAT     H1 2972   9.683   7.597   9.854
  910WAT     H2 2973   9.817   7.570   9.943
  911WAT      O 2974   0.787   1.558   0.286
  911WAT     H1 2975   0.795   1.472   0.237
  911WAT     H2 2976   0.697   1.598   0.270
  912WAT      O 2977   2.965   9.192   4.877
  912WAT     H1 2978   2.931   9.124   4.813
  912WAT     H2 2979   2.948   9.162   4.971
  913WAT      O 2980   6.713   3.039   3.863
  913WAT     H1 2981   6.719   3.080   3.773
  913WAT     H2 2982   6.657   3.096   3.923
  914WAT      O 2983   4.854   3.962   5.514
  914WAT     H1 2984   4.948   3.991   5.497
  914WAT     H2 2985   4.795   3.995   5.440
  915WAT      O 2986   2.497   5.854   1.255
  915WAT     H1 2987   2.549   5.927   1.299
  915WAT     H2 2988   2.433   5.894   1.189
  916WAT      O 2989   3.835   4.724   0.273
  916WAT     H1 2990   3.766   4.676   0.328
  916WAT     H2 2991   3.831   4.822   0.292
  917WAT      O 2992   2.453   2.102   5.784
  917WAT     H1 2993   2.500   2.099   5.872
  917WAT     H2 2994   2.520   2.100   5.710
  918WAT      O 2995   5.492   9.291   3.486
  918WAT     H1 2996   5.435   9.209   3.480
  918WAT     H2 2997   5.451   9.364   3.432
  919WAT      O 2998   5.647   4.739   1.705
  919WAT     H1 2999   5.712   4.664   1.695
  919WAT     H2 3000   5.697   4.825   1.718
  920WAT      O 3001   1.847   3.760   4.364
  920WAT     H1 3002   1.927   3.812   4.336
  920WAT     H2 3003   1.862   3.719   4.454
  921WAT      O 3004   1.366   7.590   5.313
  921WAT     H1 3005   1.410   7.537   5.385
  921WAT     H2 3006   1.436   7.640   5.261
  922WAT      O 3007   9.797   8.247   6.893
  922WAT     H1 3008   9.791   8.168   6.832
  922WAT     H2 3009   9.711   8.297   6.891
  923WAT      O 3010   3.000   1.517   1.582
  923WAT     H1 3011   3.089   1.509   1.626
  923WAT     H2 3012   2.946   1.436   1.601
  924WAT      O 3013   7.552   2.026   5.769
  924WAT     H1 3014   7.496   2.108   5.774
  924WAT     H2 3015   7.510   1.960   5.708
  925WAT      O 3016   8.987   7.514   4.666
  925WAT     H1 3017   9.081   7.544   4.680
  925WAT     H2 3018   8.986   7.417   4.642
  926WAT      O 3019   3.010   7.714   0.138
  926WAT     H1 3020   3.038   7.779   0.068
  926WAT     H2 3021   3.091   7.665   0.172
  927WAT      O 3022   8.492   8.444   2.795
  927WAT     H1 3023   8.581   8.490   2.791
  927WAT     H2 3024   8.482   8.384   2.716
  928WAT      O 3025   2.457   8.556   9.502
  928WAT     H1 3026   2.387   8.539   9.572
  928WAT     H2 3027   2.460   8.653   9.481
  929WAT      O 3028   4.005   6.010   0.109
  929WAT     H1 3029   3.956   6.045   0.189
  929WAT     H2 3030   3.951   5.936   0.068
  930WAT      O 3031   6.274   6.495   1.762
  930WAT     H1 3032   6.177   6.479   1.745
  930WAT     H2 3033   6.320   6.408   1.783
  931WAT      O 3034   3.551   4.088   3.830
  931WAT     H1 3035   3.644   4.121   3.852
  931WAT     H2 3036   3.540   4.083   3.731
  932WAT      O 3037   8.042   8.343   4.960
  932WAT     H1 3038   8.132   8.366   4.998
  932WAT     H2 3039   7.978   8.327   5.035
  933WAT      O 3040   6.849   4.443   9.560
  933WAT     H1 3041   6.841   4.436   9.460
  933WAT     H2 3042   6.946   4.451   9.585
  934WAT      O 3043   3.635   2.027   4.245
  934WAT     H1 3044   3.651   1.995   4.152
  934WAT     H2 3045   3.603   1.951   4.302
  935WAT      O 3046   2.618   7.819   2.095
  935WAT     H1 3047   2.649   7.912   2.116
  935WAT     H2 3048   2.559   7.786   2.169
  936WAT      O 3049   2.871   3.607   4.838
  936WAT     H1 3050   2.896   3.532   4.900
  936WAT     H2 3051   2.792   3.656   4.874
  937WAT      O 3052   2.978   2.294   0.762
  937WAT     H1 3053   3.020   2.270   0.675
  937WAT     H2 3054   2.972   2.213   0.820
  938WAT      O 3055   4.415   6.084   2.141
  938WAT     H1 3056   4.404   6.183   2.153
  938WAT     H2 3057   4.504   6.056   2.176
  939WAT      O 3058   4.511   3.401   5.342
  939WAT     H1 3059   4.529   3.493   5.308
  939WAT     H2 3060   4.477   3.344   5.267
  940WAT      O 3061   3.265   5.294   3.264
  940WAT     H1 3062   3.286   5.201   3.292
  940WAT     H2 3063   3.338   5.329   3.205
  941WAT      O 3064   9.060   9.197   7.466
  941WAT     H1 3065   9.103   9.283   7.492
  941WAT     H2 3066   9.048   9.193   7.367
  942WAT      O 3067   8.592   2.893   0.222
  942WAT     H1 3068   8.620   2.811   0.272
  942WAT     H2 3069   8.673   2.935   0.181
  943WAT      O 3070   7.229   0.715   0.662
  943WAT     H1 3071   7.178   0.758   0.735
  943WAT     H2 3072   7.314   0.766   0.645
  944WAT      O 3073   9.058   6.687   5.586
  944WAT     H1 3074   9.049   6.621   5.512
  944WAT     H2 3075   9.063   6.639   5.674
  945WAT      O 3076   6.702   0.044   0.954
  945WAT     H1 3077   6.620   0.004   0.995
  945WAT     H2 3078   6.678   0.086   0.867
  946WAT      O 3079   4.629   2.002   5.203
  946WAT     H1 3080   4.701   1.944   5.164
  946WAT     H2 3081   4.539   1.968   5.175
  947WAT      O 3082   0.287   6.381   9.486
  947WAT     H1 3083   0.378   6.423   9.488
  947WAT     H2 3084   0.266   6.343   9.576
  948WAT      O 3085   8.896   4.959   7.107
  948WAT     H1 3086   8.937   4.967   7.198
  948WAT     H2 3087   8.896   5.048   7.062
  949WAT      O 3088   4.196   8.362   3.548
  949WAT     H1 3089   4.228   8.453   3.576
  949WAT     H2 3090   4.267   8.295   3.569
  950WAT      O 3091   3.603   1.094   2.838
  950WAT     H1 3092   3.559   1.036   2.907
  950WAT     H2 3093   3.674   1.149   2.881
  951WAT      O 3094   0.965   0.786   3.613
  951WAT     H1 3095   1.056   0.824   3.627
  951WAT     H2 3096   0.896   0.858   3.624
  952WAT      O 3097   0.117   8.011   9.681
  952WAT     H1 3098   0.111   7.912   9.695
  952WAT     H2 3099   0.213   8.037   9.672
  953WAT      O 3100   8.767   7.481   5.222
  953WAT     H1 3101   8.697   7.514   5.159
  953WAT     H2 3102   8.816   7.404   5.179
  954WAT      O 3103   0.690   7.254   2.505
  954WAT     H1 3104   0.651   7.265   2.413
  954WAT     H2 3105   0.623   7.286   2.572
  955WAT      O 3106   3.775   9.338   6.673
  955WAT     H1 3107   3.697   9.313   6.615
  955WAT     H2 3108   3.855   9.356   6.616
  956WAT      O 3109   2.842   9.733   1.826
  956WAT     H1 3110   2.846   9.641   1.863
  956WAT     H2 3111   2.779   9.788   1.881
  957WAT      O 3112   6.214   6.863   8.886
  957WAT     H1 3113   6.153   6.857   8.966
  957WAT     H2 3114   6.166   6.829   8.805
  958WAT      O 3115   0.206   0.996   4.549
  958WAT     H1 3116   0.168   0.941   4.624
  958WAT     H2 3117   0.295   1.031   4.576
  959WAT      O 3118   4.379   2.471   1.581
  959WAT     H1 3119   4.391   2.390   1.525
  959WAT     H2 3120   4.448   2.471   1.654
  960WAT      O 3121   1.975   7.667   5.544
  960WAT     H1 3122   1.888   7.621   5.532
  960WAT     H2 3123   2.013   7.646   5.634
  961WAT      O 3124   8.633   8.877   7.863
  961WAT     H1 3125   8.637   8.904   7.767
  961WAT     H2 3126   8.665   8.783   7.872
  962WAT      O 3127   3.715   4.368   3.815
  962WAT     H1 3128   3.707   4.368   3.716
  962WAT     H2 3129   3.715   4.463   3.848
  963WAT      O 3130   6.976   5.046   9.781
  963WAT     H1 3131   6.942   4.953   9.795
  963WAT     H2 3132   6.984   5.092   9.869
  964WAT      O 3133   5.078   9.500   0.080
  964WAT     H1 3134   5.158   9.440   0.086
  964WAT     H2 3135   4.995   9.445   0.090
  965WAT      O 3136   8.141   2.948   5.519
  965WAT     H1 3137   8.224   2.924   5.469
  965WAT     H2 3138   8.164   2.995   5.604
  966WAT      O 3139   2.303   9.761   4.933
  966WAT     H1 3140   2.350   9.682   4.972
  966WAT     H2 3141   2.370   9.832   4.910
  967WAT      O 3142   1.338   6.638   8.047
  967WAT     H1 3143   1.362   6.652   8.143
  967WAT     H2 3144   1.419   6.611   7.996
  968WAT      O 3145   4.659   1.709   4.893
  968WAT     H1 3146   4.567   1.745   4.908
  968WAT     H2 3147   4.653   1.626   4.838
  969WAT      O 3148   6.578   1.540   1.288
  969WAT     H1 3149   6.576   1.616   1.353
  969WAT     H2 3150   6.615   1.459   1.333
  970WAT      O 3151   7.381   5.007   0.243
  970WAT     H1 3152   7.433   4.962   0.316
  970WAT     H2 3153   7.444   5.038   0.171
  971WAT      O 3154   7.068   6.180   2.716
  971WAT     H1 3155   7.068   6.197   2.815
  971WAT     H2 3156   7.160   6.194   2.680
  972WAT      O 3157   8.871   7.936   8.101
  972WAT     H1 3158   8.779   7.961   8.131
  972WAT     H2 3159   8.868   7.847   8.056
  973WAT      O 3160   6.085   0.921   4.930
  973WAT     H1 3161   6.045   1.002   4.971
  973WAT     H2 3162   6.178   0.941   4.898
  974WAT      O 3163   4.108   4.277   7.265
  974WAT     H1 3164   4.183   4.327   7.309
  974WAT     H2 3165   4.022   4.324   7.284
  975WAT      O 3166   0.653   1.594   6.937
  975WAT     H1 3167   0.624   1.660   7.007
  975WAT     H2 3168   0.746   1.616   6.908
  976WAT      O 3169   7.639   6.513   2.705
  976WAT     H1 3170   7.726   6.500   2.752
  976WAT     H2 3171   7.653   6.572   2.625
  977WAT      O 3172   2.634   5.125   2.119
  977WAT     H1 3173   2.631   5.065   2.039
  977WAT     H2 3174   2.595   5.077   2.198
  978WAT      O 3175   0.161   3.709   2.569
  978WAT     H1 3176   0.205   3.792   2.534
  978WAT     H2 3177   0.137   3.722   2.665
  979WAT      O 3178   1.997   4.142   7.264
  979WAT     H1 3179   2.076   4.131   7.324
  979WAT     H2 3180   1.944   4.222   7.293
  980WAT      O 3181   4.453   8.934   5.478
  980WAT     H1 3182   4.399   8.850   5.469
  980WAT     H2 3183   4.465   8.956   5.575
  981WAT      O 3184   9.332   9.739   0.122
  981WAT     H1 3185   9.260   9.672   0.138
  981WAT     H2 3186   9.308   9.796   0.044
  982WAT      O 3187   7.191   1.409   0.249
  982WAT     H1 3188   7.191   1.311   0.234
  982WAT     H2 3189   7.273   1.450   0.208
  983WAT      O 3190   8.786   3.416   4.000
  983WAT     H1 3191   8.780   3.489   3.932
  983WAT     H2 3192   8.756   3.450   4.089
  984WAT      O 3193   8.453   1.002   5.326
  984WAT     H1 3194   8.403   1.089   5.321
  984WAT     H2 3195   8.393   0.932   5.364
  985WAT      O 3196   8.689   7.802   9.687
  985WAT     H1 3197   8.672   7.801   9.588
  985WAT     H2 3198   8.602   7.793   9.735
  986WAT      O 3199   9.378   9.280   1.782
  986WAT     H1 3200   9.462   9.234   1.811
  986WAT     H2 3201   9.364   9.266   1.684
  987WAT      O 3202   4.845   1.470   4.960
  987WAT     H1 3203   4.938   1.492   4.929
  987WAT     H2 3204   4.781   1.476   4.884
  988WAT      O 3205   2.506   6.955   3.524
  988WAT     H1 3206   2.572   7.005   3.581
  988WAT     H2 3207   2.475   7.015   3.449
  989WAT      O 3208   1.206   4.655   0.297
  989WAT     H1 3209   1.194   4.598   0.215
  989WAT     H2 3210   1.302   4.652   0.326
  990WAT      O 3211   8.281   0.234   5.020
  990WAT     H1 3212   8.206   0.234   5.087
  990WAT     H2 3213   8.252   0.185   4.938
  991WAT      O 3214   7.342   1.436   6.136
  991WAT     H1 3215   7.377   1.447   6.229
  991WAT     H2 3216   7.243   1.452   6.136
  992WAT      O 3217   0.617   7.132   8.837
  992WAT     H1 3218   0.649   7.039   8.820
  992WAT     H2 3219   0.693   7.196   8.826
  993WAT      O 3220   9.572   4.700   8.233
  993WAT     H1 3221   9.576   4.606   8.268
  993WAT     H2 3222   9.490   4.712   8.178
  994WAT      O 3223   7.183   1.837   3.578
  994WAT     H1 3224   7.147   1.814   3.668
  994WAT     H2 3225   7.135   1.917   3.542
  995WAT      O 3226   4.221   8.503   9.275
  995WAT     H1 3227   4.177   8.534   9.360
  995WAT     H2 3228   4.237   8.405   9.281
  996WAT      O 3229   6.103   6.414   6.190
  996WAT     H1 3230   6.106   6.326   6.238
  996WAT     H2 3231   6.105   6.398   6.091
  997WAT      O 3232   4.408   4.418   1.995
  997WAT     H1 3233   4.479   4.475   1.954
  997WAT     H2 3234   4.437   4.392   2.087
  998WAT      O 3235   5.512   9.790   5.746
  998WAT     H1 3236   5.570   9.791   5.665
  998WAT     H2 3237   5.439   9.722   5.734
  999WAT      O 3238   5.644   6.793   5.779
  999WAT     H1 3239   5.718   6.759   5.722
  999WAT     H2 3240   5.656   6.891   5.795
 1000WAT      O 3241   8.757   1.516   9.466
 1000WAT     H1 3242   8.676   1.530   9.409
 1000WAT     H2 3243   8.794   1.604   9.494
 1001WAT      O 3244   9.066   3.551   9.581
 1001WAT     H1 3245   9.099   3.475   9.525
 1001WAT     H2 3246   9.127   3.563   9.660
 1002WAT      O 3247   6.552   0.862   4.075
 1002WAT     H1 3248   6.637   0.811   4.074
 1002WAT     H2 3249   6.488   0.824   4.008
 1003WAT      O 3250   1.672   6.555   8.778
 1003WAT     H1 3251   1.656   6.582   8.873
 1003WAT     H2 3252   1.756   6.600   8.746
 1004WAT      O 3253   4.386   8.611   1.146
 1004WAT     H1 3254   4.344   8.563   1.069
 1004WAT     H2 3255   4.436   8.691   1.112
 1005WAT      O 3256   0.744   2.784   4.889
 1005WAT     H1 3257   0.811   2.782   4.814
 1005WAT     H2 3258   0.767   2.714   4.956
 1006WAT      O 3259   9.761   8.207   0.812
 1006WAT     H1 3260   9.674   8.246   0.840
 1006WAT     H2 3261   9.769   8.208   0.713
 1007WAT      O 3262   9.602   7.952   5.239
 1007WAT     H1 3263   9.688   7.985   5.278
 1007WAT     H2 3264   9.526   7.973   5.301
 1008WAT      O 3265   0.313   8.083   3.997
 1008WAT     H1 3266   0.248   8.056   3.926
 1008WAT     H2 3267   0.328   8.005   4.059
 1009WAT      O 3268   1.802   4.039   3.919
 1009WAT     H1 3269   1.770   3.986   3.841
 1009WAT     H2 3270   1.856   3.981   3.979
 1010WAT      O 3271   6.367   3.125   3.367
 1010WAT     H1 3272   6.373   3.213   3.319
 1010WAT     H2 3273   6.275   3.114   3.405
 1011WAT      O 3274   8.473   3.299   4.123
 1011WAT     H1 3275   8.550   3.340   4.172
 1011WAT     H2 3276   8.434   3.224   4.178
 1012WAT      O 3277   7.958   0.349   2.754
 1012WAT     H1 3278   8.042   0.330   2.805
 1012WAT     H2 3279   7.975   0.341   2.656
 1013WAT      O 3280   6.612   9.122   3.120
 1013WAT     H1 3281   6.660   9.097   3.036
 1013WAT     H2 3282   6.514   9.130   3.100
 1014WAT      O 3283   7.139   8.696   5.687
 1014WAT     H1 3284   7.048   8.660   5.669
 1014WAT     H2 3285   7.134   8.795   5.697
 1015WAT      O 3286   6.933   1.379   6.418
 1015WAT     H1 3287   6.874   1.423   6.351
 1015WAT     H2 3288   7.016   1.347   6.372
 1016WAT      O 3289   0.758   2.707   7.016
 1016WAT     H1 3290   0.718   2.656   7.092
 1016WAT     H2 3291   0.848   2.669   6.994
 1017WAT      O 3292   6.172   9.103   7.624
 1017WAT     H1 3293   6.194   9.086   7.528
 1017WAT     H2 3294   6.093   9.164   7.631
 1018WAT      O 3295   8.007   0.240   7.061
 1018WAT     H1 3296   8.083   0.175   7.063
 1018WAT     H2 3297   8.018   0.307   7.135
 1019WAT      O 3298   1.799   4.802   8.521
 1019WAT     H1 3299   1.818   4.855   8.604
 1019WAT     H2 3300   1.700   4.790   8.511
 1020WAT      O 3301   8.481   5.434   3.834
 1020WAT     H1 3302   8.443   5.497   3.901
 1020WAT     H2 3303   8.581   5.430   3.845
 1021WAT      O 3304   6.626   5.322   9.138
 1021WAT     H1 3305   6.674   5.391   9.084
 1021WAT     H2 3306   6.533   5.310   9.102
 1022WAT      O 3307   4.890   1.922   2.639
 1022WAT     H1 3308   4.894   1.962   2.731
 1022WAT     H2 3309   4.855   1.828   2.645
 1023WAT      O 3310   3.106   3.196   4.879
 1023WAT     H1 3311   3.183   3.240   4.832
 1023WAT     H2 3312   3.020   3.230   4.842
 1024WAT      O 3313   2.752   7.278   6.172
 1024WAT     H1 3314   2.696   7.255   6.093
 1024WAT     H2 3315   2.848   7.266   6.149
 1025WAT      O 3316   7.075   6.214   0.954
 1025WAT     H1 3317   7.104   6.187   1.045
 1025WAT     H2 3318   7.146   6.271   0.912
 1026WAT      O 3319   1.432   8.138   5.551
 1026WAT     H1 3320   1.440   8.039   5.565
 1026WAT     H2 3321   1.522   8.177   5.534
 1027WAT      O 3322   7.937   1.249   2.106
 1027WAT     H1 3323   7.874   1.173   2.121
 1027WAT     H2 3324   7.896   1.314   2.042
 1028WAT      O 3325   0.880   5.258   7.265
 1028WAT     H1 3326   0.795   5.229   7.222
 1028WAT     H2 3327   0.947   5.280   7.194
 1029WAT      O 3328   3.406   4.847   4.643
 1029WAT     H1 3329   3.497   4.870   4.679
 1029WAT     H2 3330   3.403   4.866   4.545
 1030WAT      O 3331   0.864   1.629   5.552
 1030WAT     H1 3332   0.871   1.599   5.456
 1030WAT     H2 3333   0.908   1.718   5.562
 1031WAT      O 3334   1.709   6.540   7.122
 1031WAT     H1 3335   1.805   6.526   7.100
 1031WAT     H2 3336   1.678   6.469   7.185
 1032WAT      O 3337   4.860   6.384   7.011
 1032WAT     H1 3338   4.931   6.425   6.954
 1032WAT     H2 3339   4.772   6.426   6.990
 1033WAT      O 3340   1.673   9.012   4.003
 1033WAT     H1 3341   1.634   9.063   4.080
 1033WAT     H2 3342   1.772   9.024   4.002
 1034WAT      O 3343   7.083   2.614   3.802
 1034WAT     H1 3344   7.041   2.524   3.810
 1034WAT     H2 3345   7.144   2.629   3.880
 1035WAT      O 3346   8.874   4.170   3.262
 1035WAT     H1 3347   8.870   4.193   3.165
 1035WAT     H2 3348   8.913   4.079   3.273
 1036WAT      O 3349   7.405   0.432   1.748
 1036WAT     H1 3350   7.357   0.487   1.680
 1036WAT     H2 3351   7.363   0.342   1.755
 1037WAT      O 3352   7.059   5.002   5.581
 1037WAT     H1 3353   7.102   4.912   5.582
 1037WAT     H2 3354   7.111   5.064   5.523
 1038WAT      O 3355   4.912   0.007   7.832
 1038WAT     H1 3356   4.822  -0.028   7.808
 1038WAT     H2 3357   4.910   0.044   7.925
 1039WAT      O 3358   5.405   8.523   1.803
 1039WAT     H1 3359   5.371   8.504   1.712
 1039WAT     H2 3360   5.386   8.618   1.827
 1040WAT      O 3361   9.531   4.126   7.663
 1040WAT     H1 3362   9.436   4.157   7.669
 1040WAT     H2 3363   9.543   4.045   7.720
 1041WAT      O 3364   8.955   0.781   0.772
 1041WAT     H1 3365   9.039   0.783   0.826
 1041WAT     H2 3366   8.960   0.851   0.701
 1042WAT      O 3367   7.531   0.162   4.085
 1042WAT     H1 3368   7.592   0.213   4.024
 1042WAT     H2 3369   7.577   0.147   4.173
 1043WAT      O 3370   1.439   7.132   5.960
 1043WAT     H1 3371   1.484   7.219   5.938
 1043WAT     H2 3372   1.358   7.121   5.903
 1044WAT      O 3373   8.062   5.081   7.758
 1044WAT     H1 3374   8.000   5.139   7.704
 1044WAT     H2 3375   8.031   4.986   7.754
 1045WAT      O 3376   3.717   3.509   5.188
 1045WAT     H1 3377   3.718   3.587   5.126
 1045WAT     H2 3378   3.733   3.541   5.282
 1046WAT      O 3379   9.317   2.467   8.400
 1046WAT     H1 3380   9.346   2.420   8.482
 1046WAT     H2 3381   9.392   2.471   8.334
 1047WAT      O 3382   7.950   0.433   4.025
 1047WAT     H1 3383   7.890   0.467   4.097
 1047WAT     H2 3384   8.039   0.479   4.030
 1048WAT      O 3385   1.553   1.101   0.188
 1048WAT     H1 3386   1.512   1.164   0.121
 1048WAT     H2 3387   1.646   1.078   0.160
 1049WAT      O 3388   8.280   7.736   5.093
 1049WAT     H1 3389   8.240   7.780   5.012
 1049WAT     H2 3390   8.217   7.747   5.170
 1050WAT      O 3391   9.815   3.833   5.428
 1050WAT     H1 3392   9.876   3.795   5.359
 1050WAT     H2 3393   9.868   3.855   5.510
 1051WAT      O 3394   4.604   1.503   2.618
 1051WAT     H1 3395   4.655   1.417   2.613
 1051WAT     H2 3396   4.533   1.503   2.547
 1052WAT      O 3397   3.667   7.678   1.892
 1052WAT     H1 3398   3.589   7.626   1.857
 1052WAT     H2 3399   3.634   7.761   1.936
 1053WAT      O 3400   1.518   6.499   6.939
 1053WAT     H1 3401   1.552   6.488   6.846
 1053WAT     H2 3402   1.595   6.516   7.001
 1054WAT      O 3403   0.527   3.091   6.398
 1054WAT     H1 3404   0.505   3.009   6.344
 1054WAT     H2 3405   0.461   3.163   6.376
 1055WAT      O 3406   6.378   9.395   8.297
 1055WAT     H1 3407   6.411   9.357   8.383
 1055WAT     H2 3408   6.383   9.495   8.301
 1056WAT      O 3409   9.635   8.647   9.406
 1056WAT     H1 3410   9.609   8.557   9.441
 1056WAT     H2 3411   9.593   8.718   9.463
 1057WAT      O 3412   9.432   5.285   6.029
 1057WAT     H1 3413   9.492   5.230   5.971
 1057WAT     H2 3414   9.429   5.379   5.995
 1058WAT      O 3415   3.957   3.265   7.489
 1058WAT     H1 3416   4.023   3.249   7.562
 1058WAT     H2 3417   3.910   3.351   7.505
 1059WAT      O 3418   6.041   8.919   3.777
 1059WAT     H1 3419   6.094   8.835   3.783
 1059WAT     H2 3420   6.081   8.979   3.707
 1060WAT      O 3421   3.206   5.167   1.972
 1060WAT     H1 3422   3.107   5.167   1.985
 1060WAT     H2 3423   3.234   5.082   1.928
 1061WAT      O 3424   2.655   2.549   6.419
 1061WAT     H1 3425   2.622   2.459   6.448
 1061WAT     H2 3426   2.689   2.600   6.498
 1062WAT      O 3427   8.434   5.254   6.965
 1062WAT     H1 3428   8.497   5.241   7.042
 1062WAT     H2 3429   8.427   5.351   6.943
 1063WAT      O 3430   7.478   4.449   5.950
 1063WAT     H1 3431   7.519   4.532   5.911
 1063WAT     H2 3432   7.426   4.400   5.880
 1064WAT      O 3433   0.040   8.839   2.609
 1064WAT     H1 3434   0.138   8.843   2.594
 1064WAT     H2 3435   0.011   8.921   2.659
 1065WAT      O 3436   5.480   9.484   6.580
 1065WAT     H1 3437   5.408   9.417   6.562
 1065WAT     H2 3438   5.525   9.461   6.667
 1066WAT      O 3439   2.610   1.776   9.462
 1066WAT     H1 3440   2.594   1.783   9.560
 1066WAT     H2 3441   2.550   1.840   9.414
 1067WAT      O 3442   5.201   0.762   9.712
 1067WAT     H1 3443   5.120   0.728   9.759
 1067WAT     H2 3444   5.280   0.705   9.736
 1068WAT      O 3445   5.906   8.371   5.404
 1068WAT     H1 3446   5.922   8.422   5.488
 1068WAT     H2 3447   5.808   8.363   5.387
 1069WAT      O 3448   4.819   8.915   3.976
 1069WAT     H1 3449   4.847   8.921   3.880
 1069WAT     H2 3450   4.750   8.985   3.995
 1070WAT      O 3451   0.964   8.289   3.064
 1070WAT     H1 3452   0.938   8.267   3.159
 1070WAT     H2 3453   0.994   8.206   3.018
 1071WAT      O 3454   5.201   1.526   1.147
 1071WAT     H1 3455   5.234   1.621   1.141
 1071WAT     H2 3456   5.170   1.496   1.057
 1072WAT      O 3457   5.200   7.185   0.733
 1072WAT     H1 3458   5.137   7.107   0.734
 1072WAT     H2 3459   5.262   7.180   0.811
 1073WAT      O 3460   8.522   2.952   7.289
 1073WAT     H1 3461   8.472   2.972   7.373
 1073WAT     H2 3462   8.586   3.027   7.270
 1074WAT      O 3463   6.840   0.849   2.015
 1074WAT     H1 3464   6.741   0.854   2.014
 1074WAT     H2 3465   6.878   0.936   2.046
 1075WAT      O 3466   0.179   8.176   2.790
 1075WAT     H1 3467   0.227   8.203   2.706
 1075WAT     H2 3468   0.231   8.206   2.869
 1076WAT      O 3469   5.719   9.248   3.661
 1076WAT     H1 3470   5.712   9.149   3.657
 1076WAT     H2 3471   5.638   9.289   3.618
 1077WAT      O 3472   1.377   9.815   7.303
 1077WAT     H1 3473   1.278   9.807   7.294
 1077WAT     H2 3474   1.419   9.818   7.212
 1078WAT      O 3475   4.434   5.082   1.532
 1078WAT     H1 3476   4.531   5.055   1.532
 1078WAT     H2 3477   4.382   5.015   1.479
 1079WAT      O 3478   4.575   8.568   0.399
 1079WAT     H1 3479   4.512   8.628   0.447
 1079WAT     H2 3480   4.636   8.524   0.465
 1080WAT      O 3481   8.767   2.388   1.711
 1080WAT     H1 3482   8.702   2.422   1.779
 1080WAT     H2 3483   8.729   2.307   1.666
 1081WAT      O 3484   7.776   0.484   4.205
 1081WAT     H1 3485   7.791   0.472   4.303
 1081WAT     H2 3486   7.694   0.538   4.190
 1082WAT      O 3487   8.423   3.584   3.801
 1082WAT     H1 3488   8.325   3.599   3.801
 1082WAT     H2 3489   8.464   3.628   3.881
 1083WAT      O 3490   4.395   3.232   8.501
 1083WAT     H1 3491   4.396   3.330   8.520
 1083WAT     H2 3492   4.422   3.217   8.406
 1084WAT      O 3493   7.818   8.815   8.292
 1084WAT     H1 3494   7.844   8.840   8.199
 1084WAT     H2 3495   7.846   8.721   8.311
 1085WAT      O 3496   1.015   5.927   6.181
 1085WAT     H1 3497   1.108   5.963   6.173
 1085WAT     H2 3498   0.974   5.921   6.089
 1086WAT      O 3499   7.280   3.111   6.123
 1086WAT     H1 3500   7.225   3.194   6.119
 1086WAT     H2 3501   7.374   3.131   6.097
 1087WAT      O 3502   2.390   5.574   7.860
 1087WAT     H1 3503   2.355   5.649   7.805
 1087WAT     H2 3504   2.363   5.487   7.819
 1088WAT      O 3505   5.422   3.696   4.331
 1088WAT     H1 3506   5.482   3.633   4.381
 1088WAT     H2 3507   5.424   3.672   4.234
 1089WAT      O 3508   9.212   8.876   5.060
 1089WAT     H1 3509   9.286   8.838   5.004
 1089WAT     H2 3510   9.128   8.824   5.042
 1090WAT      O 3511   6.272   3.972   1.273
 1090WAT     H1 3512   6.272   3.951   1.175
 1090WAT     H2 3513   6.182   3.949   1.311
 1091WAT      O 3514   5.975   1.865   6.384
 1091WAT     H1 3515   6.017   1.939   6.437
 1091WAT     H2 3516   6.013   1.865   6.291
 1092WAT      O 3517   4.227   6.297   8.577
 1092WAT     H1 3518   4.149   6.235   8.565
 1092WAT     H2 3519   4.307   6.245   8.607
 1093WAT      O 3520   6.937   5.236   1.317
 1093WAT     H1 3521   6.860   5.288   1.353
 1093WAT     H2 3522   6.989   5.197   1.393
 1094WAT      O 3523   2.956   4.712   8.835
 1094WAT     H1 3524   2.933   4.777   8.763
 1094WAT     H2 3525   2.904   4.734   8.918
 1095WAT      O 3526   0.640   3.809   0.628
 1095WAT     H1 3527   0.581   3.868   0.684
 1095WAT     H2 3528   0.583   3.753   0.568
 1096WAT      O 3529   7.839   9.730   5.115
 1096WAT     H1 3530   7.917   9.789   5.094
 1096WAT     H2 3531   7.771   9.738   5.042
 1097WAT      O 3532   3.042   7.336   1.859
 1097WAT     H1 3533   3.121   7.385   1.823
 1097WAT     H2 3534   2.986   7.302   1.784
 1098WAT      O 3535   7.250   2.285   0.434
 1098WAT     H1 3536   7.171   2.241   0.392
 1098WAT     H2 3537   7.317   2.308   0.364
 1099WAT      O 3538   1.491   4.819   3.332
 1099WAT     H1 3539   1.432   4.783   3.404
 1099WAT     H2 3540   1.580   4.774   3.337
 1100WAT      O 3541   8.422   5.133   6.473
 1100WAT     H1 3542   8.443   5.087   6.386
 1100WAT     H2 3543   8.489   5.105   6.542
 1101WAT      O 3544   0.029   1.080   9.429
 1101WAT     H1 3545  -0.059   1.054   9.470
 1101WAT     H2 3546   0.022   1.172   9.391
 1102WAT      O 3547   2.225   5.878   2.452
 1102WAT     H1 3548   2.307   5.870   2.508
 1102WAT     H2 3549   2.146   5.841   2.501
 1103WAT      O 3550   6.878   3.588   7.974
 1103WAT     H1 3551   6.829   3.505   7.944
 1103WAT     H2 3552   6.884   3.651   7.897
 1104WAT      O 3553   3.266   6.088   9.182
 1104WAT     H1 3554   3.323   6.044   9.113
 1104WAT     H2 3555   3.259   6.186   9.162
 1105WAT      O 3556   5.978   2.313   6.085
 1105WAT     H1 3557   5.914   2.236   6.084
 1105WAT     H2 3558   6.031   2.312   6.170
 1106WAT      O 3559   6.207   2.863   7.360
 1106WAT     H1 3560   6.257   2.776   7.360
 1106WAT     H2 3561   6.153   2.871   7.277
 1107WAT      O 3562   0.156   9.592   1.308
 1107WAT     H1 3563   0.227   9.522   1.313
 1107WAT     H2 3564   0.196   9.677   1.273
 1108WAT      O 3565   0.881   1.526   4.856
 1108WAT     H1 3566   0.864   1.605   4.797
 1108WAT     H2 3567   0.835   1.445   4.818
 1109WAT      O 3568   5.979   8.658   9.853
 1109WAT     H1 3569   6.041   8.617   9.920
 1109WAT     H2 3570   5.970   8.756   9.871
 1110WAT      O 3571   2.659   4.250   5.385
 1110WAT     H1 3572   2.622   4.240   5.293
 1110WAT     H2 3573   2.701   4.164   5.413
 1111WAT      O 3574   5.314   0.413   3.874
 1111WAT     H1 3575   5.224   0.385   3.908
 1111WAT     H2 3576   5.311   0.422   3.774
 1112WAT      O 3577   3.771   2.166   9.264
 1112WAT     H1 3578   3.717   2.235   9.214
 1112WAT     H2 3579   3.710   2.097   9.302
 1113WAT      O 3580   3.330   6.367   5.342
 1113WAT     H1 3581   3.385   6.420   5.277
 1113WAT     H2 3582   3.390   6.331   5.414
 1114WAT      O 3583   9.414   3.357   4.372
 1114WAT     H1 3584   9.327   3.315   4.400
 1114WAT     H2 3585   9.408   3.386   4.277
 1115WAT      O 3586   5.917   2.646   3.786
 1115WAT     H1 3587   6.015   2.653   3.803
 1115WAT     H2 3588   5.870   2.622   3.872
 1116WAT      O 3589   6.436   2.993   0.133
 1116WAT     H1 3590   6.342   2.995   0.166
 1116WAT     H2 3591   6.467   3.086   0.113
 1117WAT      O 3592   7.636   1.836   9.717
 1117WAT     H1 3593   7.704   1.764   9.702
 1117WAT     H2 3594   7.677   1.925   9.696
 1118WAT      O 3595   2.090   5.998   7.088
 1118WAT     H1 3596   2.150   6.046   7.025
 1118WAT     H2 3597   2.025   6.062   7.129
 1119WAT      O 3598   2.237   5.989   5.846
 1119WAT     H1 3599   2.262   5.930   5.923
 1119WAT     H2 3600   2.214   5.932   5.767
 1120WAT      O 3601   4.312   3.251   6.928
 1120WAT     H1 3602   4.275   3.158   6.925
 1120WAT     H2 3603   4.356   3.272   6.841
 1121WAT      O 3604   5.936   1.953   1.254
 1121WAT     H1 3605   5.991   2.015   1.198
 1121WAT     H2 3606   5.994   1.913   1.325
 1122WAT      O 3607   3.665   6.034   6.176
 1122WAT     H1 3608   3.713   6.119   6.155
 1122WAT     H2 3609   3.569   6.053   6.196
 1123WAT      O 3610   1.814   3.483   8.319
 1123WAT     H1 3611   1.763   3.538   8.252
 1123WAT     H2 3612   1.762   3.401   8.342
 1124WAT      O 3613   8.624   1.457   3.547
 1124WAT     H1 3614   8.613   1.463   3.646
 1124WAT     H2 3615   8.721   1.441   3.526
 1125WAT      O 3616   3.691   7.089   9.217
 1125WAT     H1 3617   3.749   7.165   9.248
 1125WAT     H2 3618   3.749   7.017   9.180
 1126WAT      O 3619   1.167   1.731   8.348
 1126WAT     H1 3620   1.143   1.640   8.382
 1126WAT     H2 3621   1.104   1.799   8.386
 1127WAT      O 3622   0.078   0.642   0.402
 1127WAT     H1 3623   0.033   0.663   0.489
 1127WAT     H2 3624   0.158   0.585   0.418
 1128WAT      O 3625   9.160   5.800   6.560
 1128WAT     H1 3626   9.220   5.814   6.638
 1128WAT     H2 3627   9.074   5.759   6.591
 1129WAT      O 3628   9.231   3.521   3.649
 1129WAT     H1 3629   9.206   3.444   3.708
 1129WAT     H2 3630   9.311   3.567   3.686
 1130WAT      O 3631   7.076   7.340   3.476
 1130WAT     H1 3632   7.088   7.248   3.512
 1130WAT     H2 3633   7.116   7.406   3.540
 1131WAT      O 3634   1.172   2.444   5.913
 1131WAT     H1 3635   1.182   2.531   5.961
 1131WAT     H2 3636   1.077   2.413   5.921
 1132WAT      O 3637   8.264   4.242   7.489
 1132WAT     H1 3638   8.353   4.249   7.534
 1132WAT     H2 3639   8.274   4.266   7.392
 1133WAT      O 3640   6.004   0.380   6.375
 1133WAT     H1 3641   6.073   0.413   6.440
 1133WAT     H2 3642   6.028   0.287   6.347
 1134WAT      O 3643   9.811   7.176   9.219
 1134WAT     H1 3644   9.895   7.138   9.180
 1134WAT     H2 3645   9.756   7.219   9.147
 1135WAT      O 3646   3.395   5.626   2.250
 1135WAT     H1 3647   3.488   5.611   2.217
 1135WAT     H2 3648   3.332   5.565   2.202
 1136WAT      O 3649   1.627   3.354   0.035
 1136WAT     H1 3650   1.698   3.421   0.056
 1136WAT     H2 3651   1.589   3.318   0.120
 1137WAT      O 3652   0.472   0.894   8.910
 1137WAT     H1 3653   0.390   0.881   8.964
 1137WAT     H2 3654   0.539   0.946   8.963
 1138WAT      O 3655   6.702   5.364   1.438
 1138WAT     H1 3656   6.731   5.321   1.524
 1138WAT     H2 3657   6.603   5.350   1.427
 1139WAT      O 3658   5.776   1.326   6.342
 1139WAT     H1 3659   5.698   1.263   6.347
 1139WAT     H2 3660   5.776   1.386   6.422
 1140WAT      O 3661   9.741   3.919   5.690
 1140WAT     H1 3662   9.702   3.827   5.693
 1140WAT     H2 3663   9.729   3.963   5.778
 1141WAT      O 3664   2.848   8.491   4.762
 1141WAT     H1 3665   2.777   8.439   4.713
 1141WAT     H2 3666   2.888   8.433   4.833
 1142WAT      O 3667   4.127   4.643   0.111
 1142WAT     H1 3668   4.092   4.571   0.171
 1142WAT     H2 3669   4.203   4.606   0.057
 1143WAT      O 3670   4.255   3.004   0.644
 1143WAT     H1 3671   4.280   3.101   0.648
 1143WAT     H2 3672   4.170   2.994   0.592
 1144WAT      O 3673   5.349   9.279   4.617
 1144WAT     H1 3674   5.427   9.325   4.574
 1144WAT     H2 3675   5.354   9.291   4.716
 1145WAT      O 3676   3.599   5.451   1.073
 1145WAT     H1 3677   3.578   5.356   1.053
 1145WAT     H2 3678   3.566   5.474   1.165
 1146WAT      O 3679   0.447   9.403   7.079
 1146WAT     H1 3680   0.407   9.334   7.018
 1146WAT     H2 3681   0.445   9.369   7.173
 1147WAT      O 3682   0.724   8.287   7.622
 1147WAT     H1 3683   0.693   8.215   7.560
 1147WAT     H2 3684   0.817   8.268   7.652
 1148WAT      O 3685   7.902   0.248   2.082
 1148WAT     H1 3686   7.829   0.260   2.150
 1148WAT     H2 3687   7.990   0.276   2.122
 1149WAT      O 3688   8.933   8.699   0.171
 1149WAT     H1 3689   8.974   8.713   0.081
 1149WAT     H2 3690   8.971   8.616   0.213
 1150WAT      O 3691   6.065   5.692   2.569
 1150WAT     H1 3692   6.102   5.694   2.476
 1150WAT     H2 3693   6.098   5.610   2.617
 1151WAT      O 3694   8.981   8.263   7.722
 1151WAT     H1 3695   9.001   8.219   7.809
 1151WAT     H2 3696   9.061   8.257   7.662
 1152WAT      O 3697   3.726   7.875   6.299
 1152WAT     H1 3698   3.679   7.959   6.269
 1152WAT     H2 3699   3.693   7.798   6.245
 1153WAT      O 3700   6.435   1.607   5.487
 1153WAT     H1 3701   6.530   1.593   5.460
 1153WAT     H2 3702   6.424   1.588   5.584
 1154WAT      O 3703   7.488   5.093   8.919
 1154WAT     H1 3704   7.481   5.188   8.891
 1154WAT     H2 3705   7.554   5.045   8.861
 1155WAT      O 3706   9.223   2.515   5.569
 1155WAT     H1 3707   9.285   2.436   5.566
 1155WAT     H2 3708   9.241   2.569   5.651
 1156WAT      O 3709   9.833   4.091   5.247
 1156WAT     H1 3710   9.736   4.064   5.247
 1156WAT     H2 3711   9.884   4.030   5.186
 1157WAT      O 3712   0.020   2.316   7.771
 1157WAT     H1 3713  -0.006   2.244   7.706
 1157WAT     H2 3714  -0.062   2.359   7.807
 1158WAT      O 3715   2.599   0.536   2.553
 1158WAT     H1 3716   2.543   0.602   2.604
 1158WAT     H2 3717   2.567   0.443   2.571
 1159WAT      O 3718   0.810   1.111   6.518
 1159WAT     H1 3719   0.754   1.100   6.435
 1159WAT     H2 3720   0.808   1.027   6.572
 1160WAT      O 3721   0.046   3.626   0.359
 1160WAT     H1 3722   0.120   3.557   0.358
 1160WAT     H2 3723   0.086   3.717   0.354
 1161WAT      O 3724   8.182   7.212   2.886
 1161WAT     H1 3725   8.155   7.119   2.911
 1161WAT     H2 3726   8.255   7.243   2.946
 1162WAT      O 3727   3.195   8.266   0.952
 1162WAT     H1 3728   3.213   8.172   0.925
 1162WAT     H2 3729   3.237   8.284   1.041
 1163WAT      O 3730   6.954   3.875   3.564
 1163WAT     H1 3731   6.872   3.928   3.542
 1163WAT     H2 3732   7.011   3.927   3.628
 1164WAT      O 3733   1.792   2.748   4.656
 1164WAT     H1 3734   1.766   2.816   4.725
 1164WAT     H2 3735   1.867   2.785   4.600
 1165WAT      O 3736   4.122   1.126   8.320
 1165WAT     H1 3737   4.097   1.078   8.404
 1165WAT     H2 3738   4.079   1.217   8.320
 1166WAT      O 3739   1.662   6.991   9.613
 1166WAT     H1 3740   1.716   7.001   9.696
 1166WAT     H2 3741   1.696   6.914   9.559
 1167WAT      O 3742   7.061   1.984   1.434
 1167WAT     H1 3743   6.971   1.946   1.455
 1167WAT     H2 3744   7.115   1.991   1.518
 1168WAT      O 3745   1.711   7.239   8.011
 1168WAT     H1 3746   1.805   7.243   8.043
 1168WAT     H2 3747   1.649   7.239   8.090
 1169WAT      O 3748   2.641   0.821   7.800
 1169WAT     H1 3749   2.593   0.908   7.803
 1169WAT     H2 3750   2.613   0.770   7.719
 1170WAT      O 3751   4.627   0.443   0.881
 1170WAT     H1 3752   4.659   0.459   0.975
 1170WAT     H2 3753   4.703   0.458   0.817
 1171WAT      O 3754   2.174   5.947   7.330
 1171WAT     H1 3755   2.167   5.987   7.239
 1171WAT     H2 3756   2.266   5.962   7.366
 1172WAT      O 3757   7.491   7.134   0.468
 1172WAT     H1 3758   7.456   7.128   0.562
 1172WAT     H2 3759   7.561   7.204   0.464
 1173WAT      O 3760   6.460   9.278   8.568
 1173WAT     H1 3761   6.468   9.190   8.520
 1173WAT     H2 3762   6.547   9.327   8.563
 1174WAT      O 3763   8.315   8.368   6.333
 1174WAT     H1 3764   8.237   8.379   6.394
 1174WAT     H2 3765   8.295   8.413   6.246
 1175WAT      O 3766   6.525   2.685   6.142
 1175WAT     H1 3767   6.498   2.623   6.068
 1175WAT     H2 3768   6.573   2.633   6.213
 1176WAT      O 3769   2.606   0.704   0.929
 1176WAT     H1 3770   2.587   0.655   0.844
 1176WAT     H2 3771   2.668   0.780   0.910
 1177WAT      O 3772   7.551   8.093   9.706
 1177WAT     H1 3773   7.498   8.165   9.750
 1177WAT     H2 3774   7.576   8.024   9.774
 1178WAT      O 3775   8.263   2.479   4.399
 1178WAT     H1 3776   8.208   2.519   4.325
 1178WAT     H2 3777   8.203   2.428   4.460
 1179WAT      O 3778   5.918   9.525   9.063
 1179WAT     H1 3779   6.007   9.484   9.042
 1179WAT     H2 3780   5.929   9.624   9.071
 1180WAT      O 3781   9.030   6.086   5.326
 1180WAT     H1 3782   8.932   6.105   5.337
 1180WAT     H2 3783   9.049   6.064   5.231
 1181WAT      O 3784   0.330   5.444   8.772
 1181WAT     H1 3785   0.403   5.409   8.714
 1181WAT     H2 3786   0.357   5.437   8.868
 1182WAT      O 3787   9.878   5.021   4.776
 1182WAT     H1 3788   9.906   4.945   4.835
 1182WAT     H2 3789   9.958   5.058   4.729
 1183WAT      O 3790   4.635   2.651   6.196
 1183WAT     H1 3791   4.556   2.592   6.212
 1183WAT     H2 3792   4.603   2.744   6.177
 1184WAT      O 3793   3.836   9.544   1.054
 1184WAT     H1 3794   3.773   9.601   1.106
 1184WAT     H2 3795   3.799   9.451   1.047
 1185WAT      O 3796   0.254   6.142   3.740
 1185WAT     H1 3797   0.228   6.238   3.743
 1185WAT     H2 3798   0.173   6.085   3.754
 1186WAT      O 3799   1.680   4.970   2.177
 1186WAT     H1 3800   1.726   4.898   2.229
 1186WAT     H2 3801   1.628   5.028   2.239
 1187WAT      O 3802   5.837   7.778   0.963
 1187WAT     H1 3803   5.749   7.781   0.916
 1187WAT     H2 3804   5.896   7.710   0.919
 1188WAT      O 3805   4.005   3.159   0.789
 1188WAT     H1 3806   4.076   3.164   0.859
 1188WAT     H2 3807   3.961   3.249   0.780
 1189WAT      O 3808   0.187   6.083   8.833
 1189WAT     H1 3809   0.194   6.007   8.898
 1189WAT     H2 3810   0.196   6.048   8.739
 1190WAT      O 3811   4.174   0.872   4.041
 1190WAT     H1 3812   4.155   0.908   3.949
 1190WAT     H2 3813   4.254   0.813   4.038
 1191WAT      O 3814   6.778   3.233   7.588
 1191WAT     H1 3815   6.688   3.230   7.544
 1191WAT     H2 3816   6.841   3.286   7.530
 1192WAT      O 3817   5.800   5.817   1.596
 1192WAT     H1 3818   5.791   5.869   1.681
 1192WAT     H2 3819   5.796   5.879   1.518
 1193WAT      O 3820   8.597   8.080   8.436
 1193WAT     H1 3821   8.537   8.127   8.500
 1193WAT     H2 3822   8.690   8.079   8.473
 1194WAT      O 3823   9.608   2.092   1.344
 1194WAT     H1 3824   9.607   2.036   1.427
 1194WAT     H2 3825   9.520   2.084   1.297
 1195WAT      O 3826   3.897   6.025   9.423
 1195WAT     H1 3827   3.798   6.018   9.417
 1195WAT     H2 3828   3.922   6.119   9.449
 1196WAT      O 3829   7.789   0.352   1.852
 1196WAT     H1 3830   7.785   0.439   1.901
 1196WAT     H2 3831   7.834   0.284   1.910
 1197WAT      O 3832   3.662   4.593   6.091
 1197WAT     H1 3833   3.724   4.654   6.042
 1197WAT     H2 3834   3.715   4.529   6.146
 1198WAT      O 3835   6.467   0.673   0.999
 1198WAT     H1 3836   6.476   0.717   1.088
 1198WAT     H2 3837   6.370   0.656   0.979
 1199WAT      O 3838   2.363   6.746   3.661
 1199WAT     H1 3839   2.319   6.763   3.749
 1199WAT     H2 3840   2.400   6.831   3.624
 1200WAT      O 3841   6.465   7.016   6.446
 1200WAT     H1 3842   6.462   6.959   6.528
 1200WAT     H2 3843   6.379   7.065   6.435
 1201WAT      O 3844   4.926   1.869   0.982
 1201WAT     H1 3845   4.890   1.792   1.035
 1201WAT     H2 3846   4.934   1.842   0.886
 1202WAT      O 3847   5.247   9.339   0.871
 1202WAT     H1 3848   5.313   9.281   0.825
 1202WAT     H2 3849   5.222   9.299   0.959
 1203WAT      O 3850   4.684   2.518   9.827
 1203WAT     H1 3851   4.670   2.544   9.732
 1203WAT     H2 3852   4.782   2.521   9.849
 1204WAT      O 3853   2.475   2.764   9.564
 1204WAT     H1 3854   2.465   2.683   9.622
 1204WAT     H2 3855   2.506   2.736   9.473
 1205WAT      O 3856   2.787   1.265   9.185
 1205WAT     H1 3857   2.822   1.321   9.111
 1205WAT     H2 3858   2.759   1.324   9.261
 1206WAT      O 3859   6.935   8.443   5.059
 1206WAT     H1 3860   7.031   8.469   5.058
 1206WAT     H2 3861   6.906   8.418   4.966
 1207WAT      O 3862   3.985   4.636   2.764
 1207WAT     H1 3863   3.910   4.664   2.823
 1207WAT     H2 3864   4.058   4.704   2.767
 1208WAT      O 3865   1.521   1.039   9.402
 1208WAT     H1 3866   1.533   1.118   9.463
 1208WAT     H2 3867   1.558   0.957   9.446
 1209WAT      O 3868   6.270   1.821   5.452
 1209WAT     H1 3869   6.269   1.876   5.535
 1209WAT     H2 3870   6.339   1.749   5.460
 1210WAT      O 3871   1.965   3.985   0.151
 1210WAT     H1 3872   1.881   3.971   0.203
 1210WAT     H2 3873   1.956   4.066   0.094
 1211WAT      O 3874   5.822   8.089   8.909
 1211WAT     H1 3875   5.747   8.151   8.884
 1211WAT     H2 3876   5.803   7.998   8.872
 1212WAT      O 3877   7.778   2.441   8.362
 1212WAT     H1 3878   7.791   2.415   8.266
 1212WAT     H2 3879   7.726   2.526   8.367
 1213WAT      O 3880   7.524   3.166   4.216
 1213WAT     H1 3881   7.516   3.186   4.118
 1213WAT     H2 3882   7.585   3.233   4.258
 1214WAT      O 3883   5.310   5.060   9.312
 1214WAT     H1 3884   5.331   4.965   9.288
 1214WAT     H2 3885   5.302   5.115   9.229
 1215WAT      O 3886   5.417   7.613   5.667
 1215WAT     H1 3887   5.488   7.651   5.725
 1215WAT     H2 3888   5.417   7.660   5.578
 1216WAT      O 3889   4.339   0.492   2.526
 1216WAT     H1 3890   4.309   0.586   2.543
 1216WAT     H2 3891   4.272   0.428   2.565
 1217WAT      O 3892   8.077   1.775   0.986
 1217WAT     H1 3893   8.163   1.813   1.018
 1217WAT     H2 3894   8.001   1.822   1.031
 1218WAT      O 3895   6.296   8.827   4.988
 1218WAT     H1 3896   6.297   8.918   4.947
 1218WAT     H2 3897   6.227   8.824   5.061
 1219WAT      O 3898   4.617   9.509   1.575
 1219WAT     H1 3899   4.709   9.533   1.546
 1219WAT     H2 3900   4.609   9.409   1.581
 1220WAT      O 3901   3.059   6.698   4.847
 1220WAT     H1 3902   3.081   6.781   4.900
 1220WAT     H2 3903   2.967   6.706   4.811
 1221WAT      O 3904   7.547   3.911   0.722
 1221WAT     H1 3905   7.631   3.908   0.667
 1221WAT     H2 3906   7.505   3.820   0.723
 1222WAT      O 3907   4.893   9.306   2.341
 1222WAT     H1 3908   4.910   9.382   2.403
 1222WAT     H2 3909   4.804   9.266   2.362
 1223WAT      O 3910   6.182   6.035   2.945
 1223WAT     H1 3911   6.184   5.982   3.031
 1223WAT     H2 3912   6.102   6.095   2.944
 1224WAT      O 3913   0.218   9.796   0.272
 1224WAT     H1 3914   0.234   9.887   0.236
 1224WAT     H2 3915   0.300   9.740   0.259
 1225WAT      O 3916   8.206   2.308   0.453
 1225WAT     H1 3917   8.174   2.403   0.453
 1225WAT     H2 3918   8.179   2.264   0.367
 1226WAT      O 3919   3.329   0.407   4.407
 1226WAT     H1 3920   3.268   0.485   4.393
 1226WAT     H2 3921   3.309   0.364   4.494
 1227WAT      O 3922   6.294   0.379   0.024
 1227WAT     H1 3923   6.296   0.350  -0.071
 1227WAT     H2 3924   6.365   0.449   0.039
 1228WAT      O 3925   1.284   2.431   1.226
 1228WAT     H1 3926   1.326   2.397   1.142
 1228WAT     H2 3927   1.334   2.512   1.257
 1229WAT      O 3928   4.407   4.255   9.055
 1229WAT     H1 3929   4.437   4.233   8.963
 1229WAT     H2 3930   4.464   4.328   9.093
 1230WAT      O 3931   0.376   8.094   9.636
 1230WAT     H1 3932   0.413   8.019   9.581
 1230WAT     H2 3933   0.369   8.176   9.579
 1231WAT      O 3934   5.196   1.990   6.390
 1231WAT     H1 3935   5.191   2.077   6.341
 1231WAT     H2 3936   5.151   1.918   6.336
 1232WAT      O 3937   8.574   2.734   7.040
 1232WAT     H1 3938   8.547   2.807   7.102
 1232WAT     H2 3939   8.558   2.761   6.945
 1233WAT      O 3940   3.184   0.802   6.812
 1233WAT     H1 3941   3.145   0.892   6.790
 1233WAT     H2 3942   3.117   0.747   6.861
 1234WAT      O 3943   7.044   3.304   1.697
 1234WAT     H1 3944   7.132   3.263   1.720
 1234WAT     H2 3945   7.011   3.265   1.611
 1235WAT      O 3946   3.174   8.614   2.153
 1235WAT     H1 3947   3.193   8.539   2.089
 1235WAT     H2 3948   3.082   8.649   2.136
 1236WAT      O 3949   4.089   2.925   5.274
 1236WAT     H1 3950   4.096   2.880   5.184
 1236WAT     H2 3951   4.169   2.983   5.288
 1237WAT      O 3952   6.362   8.862   5.574
 1237WAT     H1 3953   6.451   8.823   5.594
 1237WAT     H2 3954   6.290   8.805   5.612
 1238WAT      O 3955   3.173   8.451   8.980
 1238WAT     H1 3956   3.252   8.492   8.936
 1238WAT     H2 3957   3.132   8.383   8.919
 1239WAT      O 3958   0.956   7.162   4.203
 1239WAT     H1 3959   0.940   7.177   4.106
 1239WAT     H2 3960   0.999   7.244   4.242
 1240WAT      O 3961   6.635   1.507   6.892
 1240WAT     H1 3962   6.621   1.440   6.819
 1240WAT     H2 3963   6.564   1.577   6.886
 1241WAT      O 3964   2.677   7.432   1.172
 1241WAT     H1 3965   2.764   7.482   1.178
 1241WAT     H2 3966   2.605   7.487   1.214
 1242WAT      O 3967   8.232   5.567   5.944
 1242WAT     H1 3968   8.272   5.565   6.036
 1242WAT     H2 3969   8.304   5.588   5.878
 1243WAT      O 3970   5.910   8.842   4.913
 1243WAT     H1 3971   5.980   8.843   4.841
 1243WAT     H2 3972   5.894   8.748   4.943
 1244WAT      O 3973   3.635   2.771   2.371
 1244WAT     H1 3974   3.628   2.815   2.281
 1244WAT     H2 3975   3.563   2.807   2.431
 1245WAT      O 3976   6.415   0.125   2.713
 1245WAT     H1 3977   6.496   0.134   2.771
 1245WAT     H2 3978   6.332   0.137   2.769
 1246WAT      O 3979   7.314   5.113   9.400
 1246WAT     H1 3980   7.301   5.111   9.499
 1246WAT     H2 3981   7.266   5.036   9.358
 1247WAT      O 3982   3.549   0.354   5.136
 1247WAT     H1 3983   3.640   0.313   5.144
 1247WAT     H2 3984   3.531   0.413   5.215
 1248WAT      O 3985   5.091   7.790   1.800
 1248WAT     H1 3986   5.120   7.838   1.883
 1248WAT     H2 3987   5.168   7.781   1.737
 1249WAT      O 3988   7.882   6.730   6.927
 1249WAT     H1 3989   7.790   6.692   6.926
 1249WAT     H2 3990   7.928   6.707   6.841
 1250WAT      O 3991   4.015   3.402   9.298
 1250WAT     H1 3992   3.991   3.482   9.353
 1250WAT     H2 3993   3.968   3.322   9.336
 1251WAT      O 3994   3.195   7.606   4.799
 1251WAT     H1 3995   3.266   7.649   4.856
 1251WAT     H2 3996   3.138   7.677   4.758
 1252WAT      O 3997   1.435   5.287   7.033
 1252WAT     H1 3998   1.444   5.387   7.042
 1252WAT     H2 3999   1.449   5.245   7.122
 1253WAT      O 4000   6.280   3.351   3.231
 1253WAT     H1 4001   6.286   3.388   3.138
 1253WAT     H2 4002   6.229   3.414   3.289
 1254WAT      O 4003   3.535   7.001   8.999
 1254WAT     H1 4004   3.466   7.064   8.964
 1254WAT     H2 4005   3.584   7.043   9.076
 1255WAT      O 4006   0.070   9.567   3.209
 1255WAT     H1 4007   0.114   9.656   3.222
 1255WAT     H2 4008   0.131   9.505   3.161
 1256WAT      O 4009   1.183   2.711   5.101
 1256WAT     H1 4010   1.148   2.798   5.135
 1256WAT     H2 4011   1.147   2.694   5.009
 1257WAT      O 4012   0.726   4.270   5.570
 1257WAT     H1 4013   0.772   4.183   5.585
 1257WAT     H2 4014   0.781   4.344   5.608
 1258WAT      O 4015   3.194   1.238   8.436
 1258WAT     H1 4016   3.103   1.241   8.394
 1258WAT     H2 4017   3.258   1.290   8.379
 1259WAT      O 4018   8.983   6.808   6.428
 1259WAT     H1 4019   8.982   6.860   6.514
 1259WAT     H2 4020   8.920   6.731   6.435
 1260WAT      O 4021   3.348   2.184   0.461
 1260WAT     H1 4022   3.357   2.090   0.430
 1260WAT     H2 4023   3.425   2.238   0.429
 1261WAT      O 4024   3.327   5.544   0.976
 1261WAT     H1 4025   3.325   5.613   1.048
 1261WAT     H2 4026   3.374   5.462   1.009
 1262WAT      O 4027   8.107   1.223   4.133
 1262WAT     H1 4028   8.041   1.250   4.203
 1262WAT     H2 4029   8.170   1.299   4.116
 1263WAT      O 4030   2.778   1.131   4.970
 1263WAT     H1 4031   2.733   1.070   5.035
 1263WAT     H2 4032   2.718   1.208   4.949
 1264WAT      O 4033   3.347   1.875   1.022
 1264WAT     H1 4034   3.252   1.850   1.043
 1264WAT     H2 4035   3.387   1.805   0.962
 1265WAT      O 4036   5.467   6.886   3.271
 1265WAT     H1 4037   5.477   6.922   3.178
 1265WAT     H2 4038   5.539   6.924   3.330
 1266WAT      O 4039   8.785   3.422   3.151
 1266WAT     H1 4040   8.740   3.365   3.220
 1266WAT     H2 4041   8.810   3.366   3.072
 1267WAT      O 4042   2.932   1.531   7.176
 1267WAT     H1 4043   2.914   1.526   7.274
 1267WAT     H2 4044   2.997   1.459   7.150
 1268WAT      O 4045   2.651   5.409   2.086
 1268WAT     H1 4046   2.738   5.452   2.064
 1268WAT     H2 4047   2.666   5.313   2.112
 1269WAT      O 4048   3.230   8.048   9.378
 1269WAT     H1 4049   3.286   8.063   9.296
 1269WAT     H2 4050   3.133   8.050   9.353
 1270WAT      O 4051   6.727   5.517   5.259
 1270WAT     H1 4052   6.802   5.583   5.259
 1270WAT     H2 4053   6.763   5.425   5.242
 1271WAT      O 4054   3.414   0.914   9.019
 1271WAT     H1 4055   3.356   0.874   8.948
 1271WAT     H2 4056   3.407   1.014   9.015
 1272WAT      O 4057   3.751   4.985   1.811
 1272WAT     H1 4058   3.847   5.011   1.805
 1272WAT     H2 4059   3.744   4.885   1.819
 1273WAT      O 4060   3.344   8.830   0.296
 1273WAT     H1 4061   3.353   8.764   0.222
 1273WAT     H2 4062   3.337   8.923   0.258
 1274WAT      O 4063   0.234   7.099   4.503
 1274WAT     H1 4064   0.286   7.166   4.558
 1274WAT     H2 4065   0.239   7.009   4.547
 1275WAT      O 4066   4.664   9.434   4.751
 1275WAT     H1 4067   4.729   9.488   4.697
 1275WAT     H2 4068   4.625   9.362   4.693
 1276WAT      O 4069   9.337   9.685   8.673
 1276WAT     H1 4070   9.356   9.783   8.681
 1276WAT     H2 4071   9.395   9.646   8.602
 1277WAT      O 4072   3.909   1.798   6.750
 1277WAT     H1 4073   3.930   1.823   6.845
 1277WAT     H2 4074   3.978   1.840   6.690
 1278WAT      O 4075   5.511   3.117   4.703
 1278WAT     H1 4076   5.584   3.049   4.711
 1278WAT     H2 4077   5.514   3.158   4.612
 1279WAT      O 4078   4.226   7.321   9.177
 1279WAT     H1 4079   4.275   7.342   9.262
 1279WAT     H2 4080   4.220   7.403   9.121
 1280WAT      O 4081   4.798   2.038   2.413
 1280WAT     H1 4082   4.849   2.003   2.491
 1280WAT     H2 4083   4.704   2.004   2.416
 1281WAT      O 4084   3.405   1.372   5.540
 1281WAT     H1 4085   3.439   1.361   5.633
 1281WAT     H2 4086   3.305   1.380   5.542
 1282WAT      O 4087   6.294   6.002   4.946
 1282WAT     H1 4088   6.306   5.983   4.849
 1282WAT     H2 4089   6.260   5.921   4.993
 1283WAT      O 4090   5.953   3.702   8.230
 1283WAT     H1 4091   6.051   3.723   8.228
 1283WAT     H2 4092   5.921   3.705   8.324
 1284WAT      O 4093   6.925   0.639   2.176
 1284WAT     H1 4094   6.894   0.723   2.132
 1284WAT     H2 4095   6.977   0.584   2.111
 1285WAT      O 4096   3.821   3.568   0.046
 1285WAT     H1 4097   3.879   3.647   0.065
 1285WAT     H2 4098   3.832   3.540  -0.049
 1286WAT      O 4099   4.239   6.930   5.433
 1286WAT     H1 4100   4.206   6.982   5.513
 1286WAT     H2 4101   4.251   6.834   5.458
 1287WAT      O 4102   1.264   7.415   7.409
 1287WAT     H1 4103   1.287   7.508   7.436
 1287WAT     H2 4104   1.182   7.385   7.458
 1288WAT      O 4105   0.063   8.720   6.351
 1288WAT     H1 4106   0.145   8.700   6.298
 1288WAT     H2 4107  -0.018   8.710   6.294
 1289WAT      O 4108   9.825   9.018   8.042
 1289WAT     H1 4109   9.740   9.043   7.995
 1289WAT     H2 4110   9.864   9.099   8.085
 1290WAT      O 4111   1.002   2.202   1.957
 1290WAT     H1 4112   0.910   2.166   1.977
 1290WAT     H2 4113   1.037   2.158   1.875
 1291WAT      O 4114   8.000   0.842   6.120
 1291WAT     H1 4115   7.947   0.768   6.162
 1291WAT     H2 4116   8.062   0.804   6.052
 1292WAT      O 4117   1.982   7.627   9.156
 1292WAT     H1 4118   1.929   7.575   9.088
 1292WAT     H2 4119   1.920   7.684   9.210
 1293WAT      O 4120   8.228   1.239   0.608
 1293WAT     H1 4121   8.175   1.239   0.693
 1293WAT     H2 4122   8.326   1.246   0.630
 1294WAT      O 4123   3.750   7.118   7.017
 1294WAT     H1 4124   3.833   7.063   7.006
 1294WAT     H2 4125   3.768   7.212   6.986
 1295WAT      O 4126   6.007   9.153   5.168
 1295WAT     H1 4127   6.089   9.166   5.223
 1295WAT     H2 4128   5.997   9.056   5.145
 1296WAT      O 4129   7.780   2.696   8.029
 1296WAT     H1 4130   7.872   2.689   8.066
 1296WAT     H2 4131   7.713   2.689   8.103
 1297WAT      O 4132   8.595   2.884   2.907
 1297WAT     H1 4133   8.601   2.980   2.935
 1297WAT     H2 4134   8.538   2.834   2.972
 1298WAT      O 4135   1.888   6.551   0.307
 1298WAT     H1 4136   1.903   6.555   0.208
 1298WAT     H2 4137   1.880   6.644   0.343
 1299WAT      O 4138   8.065   9.494   3.831
 1299WAT     H1 4139   8.049   9.549   3.913
 1299WAT     H2 4140   7.979   9.458   3.797
 1300WAT      O 4141   7.409   5.420   0.522
 1300WAT     H1 4142   7.495   5.375   0.501
 1300WAT     H2 4143   7.333   5.364   0.487
 1301WAT      O 4144   6.351   5.643   4.502
 1301WAT     H1 4145   6.373   5.740   4.490
 1301WAT     H2 4146   6.354   5.597   4.413
 1302WAT      O 4147   4.013   6.788   8.752
 1302WAT     H1 4148   4.024   6.729   8.673
 1302WAT     H2 4149   3.916   6.802   8.770
 1303WAT      O 4150   5.655   2.589   5.993
 1303WAT     H1 4151   5.743   2.604   6.039
 1303WAT     H2 4152   5.650   2.495   5.961
 1304WAT      O 4153   6.420   5.033   8.210
 1304WAT     H1 4154   6.393   5.110   8.152
 1304WAT     H2 4155   6.474   4.968   8.156
 1305WAT      O 4156   1.712   6.785   5.560
 1305WAT     H1 4157   1.627   6.744   5.528
 1305WAT     H2 4158   1.691   6.854   5.629
 1306WAT      O 4159   2.643   0.629   9.267
 1306WAT     H1 4160   2.605   0.711   9.225
 1306WAT     H2 4161   2.677   0.568   9.196
 1307WAT      O 4162   5.465   9.707   2.050
 1307WAT     H1 4163   5.470   9.721   2.149
 1307WAT     H2 4164   5.544   9.749   2.006
 1308WAT      O 4165   4.298   1.264   0.285
 1308WAT     H1 4166   4.218   1.323   0.273
 1308WAT     H2 4167   4.269   1.174   0.318
 1309WAT      O 4168   5.783   3.153   1.205
 1309WAT     H1 4169   5.871   3.181   1.167
 1309WAT     H2 4170   5.782   3.168   1.304
 1310WAT      O 4171   8.495   1.971   1.902
 1310WAT     H1 4172   8.477   1.885   1.853
 1310WAT     H2 4173   8.409   2.005   1.941
 1311WAT      O 4174   8.077   1.722   5.321
 1311WAT     H1 4175   8.022   1.702   5.402
 1311WAT     H2 4176   8.039   1.800   5.273
 1312WAT      O 4177   0.069   8.921   3.326
 1312WAT     H1 4178   0.100   8.950   3.416
 1312WAT     H2 4179   0.023   8.997   3.280
 1313WAT      O 4180   0.713   0.300   8.797
 1313WAT     H1 4181   0.766   0.346   8.868
 1313WAT     H2 4182   0.743   0.205   8.789
 1314WAT      O 4183   7.472   7.394   8.884
 1314WAT     H1 4184   7.495   7.422   8.978
 1314WAT     H2 4185   7.432   7.471   8.835
 1315WAT      O 4186   4.839   5.480   8.575
 1315WAT     H1 4187   4.885   5.497   8.662
 1315WAT     H2 4188   4.813   5.384   8.569
 1316WAT      O 4189   1.674   0.154   4.511
 1316WAT     H1 4190   1.671   0.152   4.611
 1316WAT     H2 4191   1.580   0.157   4.476
 1317WAT      O 4192   5.814   5.804   1.260
 1317WAT     H1 4193   5.844   5.771   1.170
 1317WAT     H2 4194   5.863   5.888   1.283
 1318WAT      O 4195   0.402   8.004   4.538
 1318WAT     H1 4196   0.407   7.906   4.521
 1318WAT     H2 4197   0.437   8.054   4.459
 1319WAT      O 4198   9.443   1.536   1.440
 1319WAT     H1 4199   9.404   1.537   1.532
 1319WAT     H2 4200   9.375   1.502   1.375
 1320WAT      O 4201   8.026   2.917   7.676
 1320WAT     H1 4202   8.032   2.821   7.700
 1320WAT     H2 4203   7.933   2.938   7.646
 1321WAT      O 4204   8.948   2.250   2.794
 1321WAT     H1 4205   8.952   2.296   2.883
 1321WAT     H2 4206   9.011   2.172   2.794
 1322WAT      O 4207   6.105   5.239   5.717
 1322WAT     H1 4208   6.105   5.305   5.641
 1322WAT     H2 4209   6.196   5.234   5.758
 1323WAT      O 4210   2.719   9.716   0.196
 1323WAT     H1 4211   2.785   9.790   0.182
 1323WAT     H2 4212   2.653   9.715   0.121
 1324WAT      O 4213   1.339   0.297   6.221
 1324WAT     H1 4214   1.318   0.254   6.309
 1324WAT     H2 4215   1.272   0.368   6.202
 1325WAT      O 4216   7.189   2.361   2.026
 1325WAT     H1 4217   7.277   2.382   2.069
 1325WAT     H2 4218   7.124   2.331   2.096
 1326WAT      O 4219   1.062   1.522   1.227
 1326WAT     H1 4220   1.087   1.612   1.264
 1326WAT     H2 4221   1.110   1.507   1.141
 1327WAT      O 4222   6.530   0.341   1.128
 1327WAT     H1 4223   6.573   0.392   1.054
 1327WAT     H2 4224   6.472   0.269   1.089
 1328WAT      O 4225   0.694   2.445   5.843
 1328WAT     H1 4226   0.765   2.379   5.864
 1328WAT     H2 4227   0.724   2.537   5.870
 1329WAT      O 4228   8.456   8.307   8.193
 1329WAT     H1 4229   8.461   8.225   8.251
 1329WAT     H2 4230   8.518   8.376   8.228
 1330WAT      O 4231   3.664   6.319   2.198
 1330WAT     H1 4232   3.613   6.242   2.237
 1330WAT     H2 4233   3.676   6.390   2.268
 1331WAT      O 4234   8.299   0.443   6.972
 1331WAT     H1 4235   8.211   0.486   6.992
 1331WAT     H2 4236   8.303   0.418   6.875
 1332WAT      O 4237   4.175   3.606   0.239
 1332WAT     H1 4238   4.271   3.604   0.211
 1332WAT     H2 4239   4.168   3.585   0.336
 1333WAT      O 4240   8.066   8.522   1.528
 1333WAT     H1 4241   7.967   8.522   1.512
 1333WAT     H2 4242   8.109   8.453   1.470
 1334WAT      O 4243   0.245   4.546   7.075
 1334WAT     H1 4244   0.210   4.609   7.145
 1334WAT     H2 4245   0.222   4.452   7.101
 1335WAT      O 4246   9.553   5.853   4.159
 1335WAT     H1 4247   9.630   5.881   4.217
 1335WAT     H2 4248   9.589   5.809   4.077
 1336WAT      O 4249   7.741   0.243   2.320
 1336WAT     H1 4250   7.693   0.189   2.251
 1336WAT     H2 4251   7.728   0.203   2.410
 1337WAT      O 4252   1.277   2.205   4.304
 1337WAT     H1 4253   1.293   2.197   4.402
 1337WAT     H2 4254   1.348   2.262   4.263
 1338WAT      O 4255   0.783   9.416   0.060
 1338WAT     H1 4256   0.783   9.367   0.147
 1338WAT     H2 4257   0.855   9.486   0.061
 1339WAT      O 4258   4.708   8.474   8.327
 1339WAT     H1 4259   4.745   8.421   8.403
 1339WAT     H2 4260   4.669   8.412   8.259
 1340WAT      O 4261   7.963   1.863   9.461
 1340WAT     H1 4262   7.907   1.793   9.505
 1340WAT     H2 4263   7.966   1.846   9.362
 1341WAT      O 4264   0.696   4.996   7.603
 1341WAT     H1 4265   0.692   4.926   7.675
 1341WAT     H2 4266   0.701   4.952   7.514
 1342WAT      O 4267   0.964   9.221   2.043
 1342WAT     H1 4268   1.009   9.218   2.132
 1342WAT     H2 4269   1.032   9.209   1.971
 1343WAT      O 4270   8.985   9.337   4.631
 1343WAT     H1 4271   8.978   9.295   4.541
 1343WAT     H2 4272   8.946   9.429   4.627
 1344WAT      O 4273   1.393   1.143   0.771
 1344WAT     H1 4274   1.460   1.071   0.753
 1344WAT     H2 4275   1.338   1.160   0.689
 1345WAT      O 4276   6.542   3.370   3.171
 1345WAT     H1 4277   6.539   3.467   3.150
 1345WAT     H2 4278   6.450   3.335   3.185
 1346WAT      O 4279   8.757   5.586   6.868
 1346WAT     H1 4280   8.800   5.610   6.955
 1346WAT     H2 4281   8.725   5.492   6.871
 1347WAT      O 4282   2.898   5.923   9.471
 1347WAT     H1 4283   2.813   5.942   9.424
 1347WAT     H2 4284   2.970   5.985   9.438
 1348WAT      O 4285   8.590   7.775   0.355
 1348WAT     H1 4286   8.626   7.844   0.418
 1348WAT     H2 4287   8.552   7.698   0.408
 1349WAT      O 4288   6.640   1.976   0.275
 1349WAT     H1 4289   6.647   1.882   0.308
 1349WAT     H2 4290   6.706   1.991   0.201
 1350WAT      O 4291   3.316   2.996   7.162
 1350WAT     H1 4292   3.262   3.031   7.086
 1350WAT     H2 4293   3.256   2.978   7.240
 1351WAT      O 4294   8.423   4.538   1.748
 1351WAT     H1 4295   8.345   4.598   1.729
 1351WAT     H2 4296   8.452   4.493   1.664
 1352WAT      O 4297   9.126   5.129   1.571
 1352WAT     H1 4298   9.030   5.156   1.571
 1352WAT     H2 4299   9.178   5.190   1.510
 1353WAT      O 4300   9.024   9.182   6.415
 1353WAT     H1 4301   9.060   9.268   6.451
 1353WAT     H2 4302   9.020   9.186   6.315
 1354WAT      O 4303   4.841   5.979   0.458
 1354WAT     H1 4304   4.777   6.056   0.449
 1354WAT     H2 4305   4.891   5.967   0.372
 1355WAT      O 4306   4.850   1.569   1.551
 1355WAT     H1 4307   4.928   1.599   1.605
 1355WAT     H2 4308   4.811   1.486   1.591
 1356WAT      O 4309   9.104   4.416   9.771
 1356WAT     H1 4310   9.050   4.335   9.751
 1356WAT     H2 4311   9.077   4.453   9.860
 1357WAT      O 4312   6.059   0.603   8.321
 1357WAT     H1 4313   6.037   0.507   8.339
 1357WAT     H2 4314   6.115   0.639   8.396
 1358WAT      O 4315   6.491   4.636   7.955
 1358WAT     H1 4316   6.572   4.616   7.900
 1358WAT     H2 4317   6.409   4.622   7.899
 1359WAT      O 4318   8.264   8.283   1.127
 1359WAT     H1 4319   8.352   8.278   1.080
 1359WAT     H2 4320   8.199   8.333   1.070
 1360WAT      O 4321   5.163   0.333   7.867
 1360WAT     H1 4322   5.132   0.266   7.800
 1360WAT     H2 4323   5.162   0.291   7.958
 1361WAT      O 4324   3.905   5.121   9.789
 1361WAT     H1 4325   3.903   5.053   9.716
 1361WAT     H2 4326   3.949   5.204   9.757
 1362WAT      O 4327   9.496   0.168   8.272
 1362WAT     H1 4328   9.506   0.093   8.207
 1362WAT     H2 4329   9.586   0.204   8.295
 1363WAT      O 4330   6.919   6.314   9.286
 1363WAT     H1 4331   6.919   6.278   9.379
 1363WAT     H2 4332   6.955   6.407   9.286
 1364WAT      O 4333   8.510   2.528   7.268
 1364WAT     H1 4334   8.501   2.428   7.259
 1364WAT     H2 4335   8.512   2.569   7.177
 1365WAT      O 4336   8.476   2.337   6.921
 1365WAT     H1 4337   8.494   2.248   6.964
 1365WAT     H2 4338   8.396   2.379   6.963
 1366WAT      O 4339   5.443   2.920   5.449
 1366WAT     H1 4340   5.443   2.820   5.440
 1366WAT     H2 4341   5.439   2.962   5.359
 1367WAT      O 4342   1.699   0.027   7.696
 1367WAT     H1 4343   1.605  -0.001   7.676
 1367WAT     H2 4344   1.711   0.036   7.795
 1368WAT      O 4345   1.190   8.677   9.496
 1368WAT     H1 4346   1.155   8.729   9.418
 1368WAT     H2 4347   1.119   8.671   9.567
 1369WAT      O 4348   5.995   3.319   0.624
 1369WAT     H1 4349   5.973   3.288   0.531
 1369WAT     H2 4350   5.935   3.273   0.690
 1370WAT      O 4351   7.549   3.331   7.907
 1370WAT     H1 4352   7.465   3.348   7.855
 1370WAT     H2 4353   7.608   3.269   7.855
 1371WAT      O 4354   9.672   0.522   9.525
 1371WAT     H1 4355   9.659   0.598   9.461
 1371WAT     H2 4356   9.584   0.482   9.548
 1372WAT      O 4357   0.134   7.906   1.994
 1372WAT     H1 4358   0.034   7.912   1.995
 1372WAT     H2 4359   0.171   7.981   1.938
 1373WAT      O 4360   6.569   2.978   1.399
 1373WAT     H1 4361   6.579   3.054   1.335
 1373WAT     H2 4362   6.562   2.892   1.347
 1374WAT      O 4363   0.692   6.194   1.731
 1374WAT     H1 4364   0.770   6.202   1.793
 1374WAT     H2 4365   0.724   6.162   1.642
 1375WAT      O 4366   8.932   4.360   6.536
 1375WAT     H1 4367   8.927   4.272   6.489
 1375WAT     H2 4368   8.876   4.358   6.618
 1376WAT      O 4369   7.467   2.282   2.693
 1376WAT     H1 4370   7.393   2.241   2.639
 1376WAT     H2 4371   7.470   2.240   2.783
 1377WAT      O 4372   1.498   0.619   0.715
 1377WAT     H1 4373   1.410   0.573   0.726
 1377WAT     H2 4374   1.565   0.554   0.677
 1378WAT      O 4375   9.516   4.614   0.383
 1378WAT     H1 4376   9.525   4.676   0.305
 1378WAT     H2 4377   9.492   4.667   0.465
 1379WAT      O 4378   9.284   1.220   1.865
 1379WAT     H1 4379   9.352   1.284   1.900
 1379WAT     H2 4380   9.322   1.169   1.788
 1380WAT      O 4381   4.105   7.654   9.338
 1380WAT     H1 4382   4.050   7.625   9.259
 1380WAT     H2 4383   4.137   7.748   9.323
 1381WAT      O 4384   4.781   2.861   1.413
 1381WAT     H1 4385   4.817   2.954   1.404
 1381WAT     H2 4386   4.719   2.857   1.491
 1382WAT      O 4387   9.759   3.567   6.293
 1382WAT     H1 4388   9.691   3.501   6.325
 1382WAT     H2 4389   9.824   3.522   6.233
 1383WAT      O 4390   3.614   3.078   8.416
 1383WAT     H1 4391   3.644   2.988   8.446
 1383WAT     H2 4392   3.659   3.101   8.330
 1384WAT      O 4393   7.217   3.031   8.817
 1384WAT     H1 4394   7.212   3.130   8.803
 1384WAT     H2 4395   7.228   2.986   8.729
 1385WAT      O 4396   8.156   8.039   3.707
 1385WAT     H1 4397   8.197   8.106   3.645
 1385WAT     H2 4398   8.166   8.071   3.802
 1386WAT      O 4399   8.869   4.570   3.094
 1386WAT     H1 4400   8.926   4.500   3.137
 1386WAT     H2 4401   8.845   4.639   3.163
 1387WAT      O 4402   5.086   9.379   6.073
 1387WAT     H1 4403   5.037   9.343   6.152
 1387WAT     H2 4404   5.049   9.469   6.049
 1388WAT      O 4405   6.457   0.173   4.088
 1388WAT     H1 4406   6.495   0.256   4.130
 1388WAT     H2 4407   6.414   0.117   4.158
 1389WAT      O 4408   1.866   7.480   6.576
 1389WAT     H1 4409   1.869   7.411   6.649
 1389WAT     H2 4410   1.878   7.435   6.488
 1390WAT      O 4411   8.957   4.013   7.081
 1390WAT     H1 4412   9.027   4.083   7.068
 1390WAT     H2 4413   8.915   4.024   7.172
 1391WAT      O 4414   7.514   5.416   8.382
 1391WAT     H1 4415   7.572   5.494   8.358
 1391WAT     H2 4416   7.510   5.352   8.306
 1392WAT      O 4417   2.311   7.291   3.690
 1392WAT     H1 4418   2.232   7.251   3.737
 1392WAT     H2 4419   2.394   7.243   3.717
 1393WAT      O 4420   6.467   5.176   5.234
 1393WAT     H1 4421   6.547   5.179   5.294
 1393WAT     H2 4422   6.473   5.250   5.167
 1394WAT      O 4423   4.515   7.900   6.260
 1394WAT     H1 4424   4.567   7.980   6.289
 1394WAT     H2 4425   4.547   7.871   6.170
 1395WAT      O 4426   6.886   3.195   2.367
 1395WAT     H1 4427   6.838   3.221   2.450
 1395WAT     H2 4428   6.984   3.216   2.376
 1396WAT      O 4429   0.104   7.770   3.176
 1396WAT     H1 4430   0.030   7.719   3.133
 1396WAT     H2 4431   0.168   7.801   3.106
 1397WAT      O 4432   4.103   2.826   0.136
 1397WAT     H1 4433   4.110   2.760   0.211
 1397WAT     H2 4434   4.009   2.857   0.127
 1398WAT      O 4435   7.013   9.507   1.020
 1398WAT     H1 4436   6.971   9.448   0.952
 1398WAT     H2 4437   6.942   9.561   1.066
 1399WAT      O 4438   0.429   7.822   6.011
 1399WAT     H1 4439   0.351   7.792   6.065
 1399WAT     H2 4440   0.510   7.831   6.069
 1400WAT      O 4441   8.092   4.411   3.663
 1400WAT     H1 4442   8.149   4.406   3.580
 1400WAT     H2 4443   8.140   4.366   3.738
 1401WAT      O 4444   4.859   3.574   7.152
 1401WAT     H1 4445   4.833   3.577   7.249
 1401WAT     H2 4446   4.856   3.666   7.114
 1402WAT      O 4447   6.928   6.838   9.336
 1402WAT     H1 4448   6.920   6.792   9.247
 1402WAT     H2 4449   6.863   6.797   9.400
 1403WAT      O 4450   5.346   2.470   8.356
 1403WAT     H1 4451   5.246   2.473   8.364
 1403WAT     H2 4452   5.371   2.413   8.278
 1404WAT      O 4453   9.532   2.779   6.847
 1404WAT     H1 4454   9.465   2.762   6.919
 1404WAT     H2 4455   9.486   2.811   6.765
 1405WAT      O 4456   0.145   1.096   5.370
 1405WAT     H1 4457   0.194   1.155   5.435
 1405WAT     H2 4458   0.209   1.063   5.300
 1406WAT      O 4459   9.690   5.438   5.516
 1406WAT     H1 4460   9.736   5.401   5.597
 1406WAT     H2 4461   9.755   5.492   5.463
 1407WAT      O 4462   9.569   3.662   9.754
 1407WAT     H1 4463   9.524   3.680   9.667
 1407WAT     H2 4464   9.518   3.593   9.805
 1408WAT      O 4465   8.508   6.480   9.484
 1408WAT     H1 4466   8.559   6.403   9.446
 1408WAT     H2 4467   8.449   6.518   9.413
 1409WAT      O 4468   7.215   5.759   6.575
 1409WAT     H1 4469   7.287   5.725   6.514
 1409WAT     H2 4470   7.224   5.715   6.664
 1410WAT      O 4471   9.676   5.353   1.307
 1410WAT     H1 4472   9.757   5.355   1.365
 1410WAT     H2 4473   9.603   5.302   1.352
 1411WAT      O 4474   1.292   8.647   2.146
 1411WAT     H1 4475   1.231   8.679   2.073
 1411WAT     H2 4476   1.238   8.601   2.217
 1412WAT      O 4477   0.168   3.259   8.534
 1412WAT     H1 4478   0.151   3.162   8.519
 1412WAT     H2 4479   0.178   3.276   8.632
 1413WAT      O 4480   9.193   1.174   2.626
 1413WAT     H1 4481   9.245   1.108   2.681
 1413WAT     H2 4482   9.096   1.148   2.626
 1414WAT      O 4483   6.770   9.355   1.647
 1414WAT     H1 4484   6.822   9.384   1.727
 1414WAT     H2 4485   6.831   9.314   1.580
 1415WAT      O 4486   3.138   9.811   9.580
 1415WAT     H1 4487   3.056   9.868   9.587
 1415WAT     H2 4488   3.216   9.868   9.554
 1416WAT      O 4489   2.606   0.282   1.917
 1416WAT     H1 4490   2.645   0.374   1.923
 1416WAT     H2 4491   2.606   0.252   1.821
 1417WAT      O 4492   9.390   7.545   4.637
 1417WAT     H1 4493   9.445   7.578   4.560
 1417WAT     H2 4494   9.441   7.477   4.688
 1418WAT      O 4495   8.502   2.418   2.931
 1418WAT     H1 4496   8.599   2.441   2.942
 1418WAT     H2 4497   8.458   2.488   2.875
 1419WAT      O 4498   7.748   7.518   4.737
 1419WAT     H1 4499   7.847   7.524   4.732
 1419WAT     H2 4500   7.717   7.429   4.703
 1420WAT      O 4501   7.300   1.930   9.774
 1420WAT     H1 4502   7.381   1.876   9.751
 1420WAT     H2 4503   7.314   1.976   9.862
 1421WAT      O 4504   0.579   4.135   1.799
 1421WAT     H1 4505   0.517   4.190   1.743
 1421WAT     H2 4506   0.532   4.052   1.828
 1422WAT      O 4507   3.582   3.590   9.571
 1422WAT     H1 4508   3.578   3.504   9.520
 1422WAT     H2 4509   3.493   3.634   9.570
 1423WAT      O 4510   8.163   2.551   3.081
 1423WAT     H1 4511   8.161   2.453   3.099
 1423WAT     H2 4512   8.116   2.571   2.995
 1424WAT      O 4513   3.218   2.672   6.467
 1424WAT     H1 4514   3.270   2.660   6.552
 1424WAT     H2 4515   3.249   2.606   6.399
 1425WAT      O 4516   7.810   3.048   9.329
 1425WAT     H1 4517   7.888   3.108   9.310
 1425WAT     H2 4518   7.841   2.969   9.383
 1426WAT      O 4519   8.249   9.453   0.242
 1426WAT     H1 4520   8.173   9.485   0.185
 1426WAT     H2 4521   8.223   9.459   0.338
 1427WAT      O 4522   0.123   6.334   1.985
 1427WAT     H1 4523   0.158   6.252   1.940
 1427WAT     H2 4524   0.200   6.393   2.011
 1428WAT      O 4525   1.783   0.516   9.691
 1428WAT     H1 4526   1.826   0.598   9.730
 1428WAT     H2 4527   1.801   0.438   9.751
 1429WAT      O 4528   1.053   1.009   5.441
 1429WAT     H1 4529   0.963   0.972   5.419
 1429WAT     H2 4530   1.043   1.104   5.472
 1430WAT      O 4531   7.631   7.204   1.545
 1430WAT     H1 4532   7.641   7.303   1.546
 1430WAT     H2 4533   7.540   7.179   1.575
 1431WAT      O 4534   2.543   8.725   2.308
 1431WAT     H1 4535   2.635   8.686   2.307
 1431WAT     H2 4536   2.479   8.661   2.350
 1432WAT      O 4537   3.604   4.632   0.923
 1432WAT     H1 4538   3.577   4.607   1.016
 1432WAT     H2 4539   3.526   4.621   0.862
 1433WAT      O 4540   2.662   6.850   1.851
 1433WAT     H1 4541   2.694   6.791   1.777
 1433WAT     H2 4542   2.590   6.803   1.902
 1434WAT      O 4543   5.056   0.312   6.530
 1434WAT     H1 4544   4.976   0.252   6.527
 1434WAT     H2 4545   5.097   0.307   6.621
 1435WAT      O 4546   4.584   1.623   1.573
 1435WAT     H1 4547   4.526   1.591   1.499
 1435WAT     H2 4548   4.680   1.610   1.549
 1436WAT      O 4549   3.629   9.518   6.799
 1436WAT     H1 4550   3.691   9.447   6.764
 1436WAT     H2 4551   3.683   9.594   6.834
 1437WAT      O 4552   5.138   5.115   1.455
 1437WAT     H1 4553   5.187   5.028   1.448
 1437WAT     H2 4554   5.191   5.186   1.409
 1438WAT      O 4555   2.486   7.010   0.018
 1438WAT     H1 4556   2.571   7.040   0.061
 1438WAT     H2 4557   2.442   7.088  -0.026
 1439WAT      O 4558   9.050   6.536   0.472
 1439WAT     H1 4559   9.073   6.490   0.386
 1439WAT     H2 4560   8.997   6.474   0.530
 1440WAT      O 4561   3.079   5.539   3.630
 1440WAT     H1 4562   3.150   5.484   3.584
 1440WAT     H2 4563   3.054   5.495   3.716
 1441WAT      O 4564   0.630   4.548   2.972
 1441WAT     H1 4565   0.690   4.594   3.037
 1441WAT     H2 4566   0.538   4.542   3.011
 1442WAT      O 4567   8.154   7.649   4.326
 1442WAT     H1 4568   8.133   7.745   4.308
 1442WAT     H2 4569   8.072   7.604   4.363
 1443WAT      O 4570   5.675   6.487   9.390
 1443WAT     H1 4571   5.663   6.571   9.338
 1443WAT     H2 4572   5.732   6.423   9.338
 1444WAT      O 4573   4.143   2.623   1.276
 1444WAT     H1 4574   4.237   2.656   1.280
 1444WAT     H2 4575   4.125   2.566   1.356
 1445WAT      O 4576   7.516   5.846   6.817
 1445WAT     H1 4577   7.591   5.909   6.796
 1445WAT     H2 4578   7.534   5.758   6.774
 1446WAT      O 4579   6.337   4.933   0.211
 1446WAT     H1 4580   6.349   5.026   0.176
 1446WAT     H2 4581   6.254   4.928   0.267
 1447WAT      O 4582   4.245   5.728   6.009
 1447WAT     H1 4583   4.310   5.662   5.972
 1447WAT     H2 4584   4.293   5.813   6.032
 1448WAT      O 4585   6.449   5.570   4.229
 1448WAT     H1 4586   6.409   5.652   4.189
 1448WAT     H2 4587   6.509   5.526   4.163
 1449WAT      O 4588   2.471   1.512   4.493
 1449WAT     H1 4589   2.455   1.414   4.505
 1449WAT     H2 4590   2.395   1.553   4.443
 1450WAT      O 4591   0.806   4.407   6.568
 1450WAT     H1 4592   0.714   4.413   6.606
 1450WAT     H2 4593   0.868   4.368   6.637
 1451WAT      O 4594   8.115   1.502   7.924
 1451WAT     H1 4595   8.073   1.508   7.834
 1451WAT     H2 4596   8.048   1.467   7.990
 1452WAT      O 4597   1.624   9.465   0.468
 1452WAT     H1 4598   1.565   9.386   0.486
 1452WAT     H2 4599   1.575   9.549   0.491
 1453WAT      O 4600   6.366   7.109   8.007
 1453WAT     H1 4601   6.279   7.153   7.984
 1453WAT     H2 4602   6.368   7.088   8.105
 1454WAT      O 4603   4.359   0.120   4.374
 1454WAT     H1 4604   4.390   0.037   4.327
 1454WAT     H2 4605   4.350   0.101   4.472
 1455WAT      O 4606   3.382   1.638   3.384
 1455WAT     H1 4607   3.374   1.685   3.296
 1455WAT     H2 4608   3.340   1.548   3.378
 1456WAT      O 4609   2.920   8.155   4.295
 1456WAT     H1 4610   2.974   8.114   4.221
 1456WAT     H2 4611   2.980   8.180   4.370
 1457WAT      O 4612   3.157   9.740   8.806
 1457WAT     H1 4613   3.124   9.822   8.759
 1457WAT     H2 4614   3.080   9.685   8.836
 1458WAT      O 4615   7.381   3.523   9.039
 1458WAT     H1 4616   7.317   3.550   8.967
 1458WAT     H2 4617   7.425   3.437   9.015
 1459WAT      O 4618   2.015   8.113   7.748
 1459WAT     H1 4619   2.109   8.145   7.761
 1459WAT     H2 4620   2.014   8.038   7.682
 1460WAT      O 4621   3.286   7.758   9.159
 1460WAT     H1 4622   3.384   7.780   9.169
 1460WAT     H2 4623   3.261   7.688   9.226
 1461WAT      O 4624   3.766   0.193   2.199
 1461WAT     H1 4625   3.695   0.175   2.267
 1461WAT     H2 4626   3.854   0.158   2.232
 1462WAT      O 4627   0.451   9.247   6.176
 1462WAT     H1 4628   0.485   9.305   6.250
 1462WAT     H2 4629   0.352   9.258   6.168
 1463WAT      O 4630   0.483   0.713   2.703
 1463WAT     H1 4631   0.573   0.755   2.715
 1463WAT     H2 4632   0.484   0.620   2.738
 1464WAT      O 4633   1.565   4.991   4.016
 1464WAT     H1 4634   1.609   4.902   4.030
 1464WAT     H2 4635   1.598   5.031   3.931
 1465WAT      O 4636   5.462   7.167   8.387
 1465WAT     H1 4637   5.469   7.266   8.374
 1465WAT     H2 4638   5.401   7.129   8.317
 1466WAT      O 4639   8.657   6.375   6.572
 1466WAT     H1 4640   8.595   6.378   6.651
 1466WAT     H2 4641   8.701   6.463   6.560
 1467WAT      O 4642   6.214   9.271   9.816
 1467WAT     H1 4643   6.130   9.238   9.772
 1467WAT     H2 4644   6.284   9.289   9.747
 1468WAT      O 4645   9.685   7.145   0.431
 1468WAT     H1 4646   9.612   7.213   0.442
 1468WAT     H2 4647   9.651   7.055   0.455
 1469WAT      O 4648   6.877   0.481   0.689
 1469WAT     H1 4649   6.898   0.394   0.734
 1469WAT     H2 4650   6.939   0.494   0.611
 1470WAT      O 4651   4.857   3.457   5.821
 1470WAT     H1 4652   4.780   3.468   5.758
 1470WAT     H2 4653   4.867   3.360   5.844
 1471WAT      O 4654   1.163   2.207   0.878
 1471WAT     H1 4655   1.182   2.275   0.807
 1471WAT     H2 4656   1.249   2.182   0.924
 1472WAT      O 4657   3.411   0.379   6.759
 1472WAT     H1 4658   3.325   0.351   6.717
 1472WAT     H2 4659   3.397   0.461   6.814
 1473WAT      O 4660   3.977   3.639   9.446
 1473WAT     H1 4661   4.031   3.658   9.528
 1473WAT     H2 4662   3.936   3.724   9.413
 1474WAT      O 4663   1.619   8.953   4.610
 1474WAT     H1 4664   1.604   8.932   4.707
 1474WAT     H2 4665   1.659   9.044   4.602
 1475WAT      O 4666   1.749   9.762   6.276
 1475WAT     H1 4667   1.729   9.669   6.246
 1475WAT     H2 4668   1.667   9.819   6.266
 1476WAT      O 4669   0.406   0.739   7.223
 1476WAT     H1 4670   0.453   0.711   7.306
 1476WAT     H2 4671   0.318   0.691   7.217
 1477WAT      O 4672   9.334   0.322   3.492
 1477WAT     H1 4673   9.270   0.383   3.540
 1477WAT     H2 4674   9.421   0.368   3.478
 1478WAT      O 4675   1.572   5.589   1.352
 1478WAT     H1 4676   1.637   5.652   1.393
 1478WAT     H2 4677   1.590   5.581   1.254
 1479WAT      O 4678   6.852   8.627   3.780
 1479WAT     H1 4679   6.812   8.717   3.798
 1479WAT     H2 4680   6.795   8.577   3.715
 1480WAT      O 4681   2.387   5.984   7.825
 1480WAT     H1 4682   2.320   6.058   7.826
 1480WAT     H2 4683   2.343   5.901   7.789
 1481WAT      O 4684   4.271   7.945   3.352
 1481WAT     H1 4685   4.361   7.922   3.315
 1481WAT     H2 4686   4.214   7.984   3.280
 1482WAT      O 4687   9.654   9.791   6.680
 1482WAT     H1 4688   9.699   9.710   6.642
 1482WAT     H2 4689   9.717   9.868   6.680
 1483WAT      O 4690   7.621   8.605   0.222
 1483WAT     H1 4691   7.562   8.647   0.153
 1483WAT     H2 4692   7.713   8.595   0.186
 1484WAT      O 4693   3.704   0.307   0.017
 1484WAT     H1 4694   3.634   0.236   0.028
 1484WAT     H2 4695   3.721   0.351   0.105
 1485WAT      O 4696   3.350   6.617   0.296
 1485WAT     H1 4697   3.445   6.610   0.265
 1485WAT     H2 4698   3.332   6.709   0.330
 1486WAT      O 4699   5.734   2.623   0.062
 1486WAT     H1 4700   5.774   2.576  -0.017
 1486WAT     H2 4701   5.802   2.628   0.134
 1487WAT      O 4702   4.705   4.285   6.010
 1487WAT     H1 4703   4.664   4.371   6.042
 1487WAT     H2 4704   4.801   4.301   5.989
 1488WAT      O 4705   0.877   5.761   7.405
 1488WAT     H1 4706   0.927   5.761   7.491
 1488WAT     H2 4707   0.846   5.669   7.384
 1489WAT      O 4708   0.264   6.915   1.457
 1489WAT     H1 4709   0.351   6.896   1.502
 1489WAT     H2 4710   0.230   7.004   1.487
 1490WAT      O 4711   4.554   1.177   6.111
 1490WAT     H1 4712   4.557   1.238   6.032
 1490WAT     H2 4713   4.603   1.092   6.089
 1491WAT      O 4714   7.951   9.758   5.883
 1491WAT     H1 4715   8.001   9.739   5.798
 1491WAT     H2 4716   7.854   9.741   5.868
 1492WAT      O 4717   2.035   7.622   5.851
 1492WAT     H1 4718   2.114   7.682   5.831
 1492WAT     H2 4719   2.026   7.613   5.950
 1493WAT      O 4720   6.254   3.370   2.934
 1493WAT     H1 4721   6.329   3.364   2.868
 1493WAT     H2 4722   6.212   3.281   2.946
 1494WAT      O 4723   6.156   0.201   3.129
 1494WAT     H1 4724   6.101   0.211   3.212
 1494WAT     H2 4725   6.245   0.244   3.143
 1495WAT      O 4726   1.436   8.802   0.813
 1495WAT     H1 4727   1.401   8.717   0.775
 1495WAT     H2 4728   1.400   8.879   0.761
 1496WAT      O 4729   7.972   6.696   2.921
 1496WAT     H1 4730   8.026   6.613   2.933
 1496WAT     H2 4731   7.925   6.718   3.006
 1497WAT      O 4732   4.275   7.291   0.140
 1497WAT     H1 4733   4.215   7.358   0.095
 1497WAT     H2 4734   4.344   7.259   0.074
 1498WAT      O 4735   9.411   2.441   3.753
 1498WAT     H1 4736   9.378   2.357   3.795
 1498WAT     H2 4737   9.379   2.520   3.805
 1499WAT      O 4738   2.074   2.253   1.533
 1499WAT     H1 4739   2.042   2.335   1.486
 1499WAT     H2 4740   2.112   2.189   1.466
 1500WAT      O 4741   7.123   3.153   3.009
 1500WAT     H1 4742   7.134   3.205   2.925
 1500WAT     H2 4743   7.209   3.107   3.031
 1501WAT      O 4744   7.204   8.215   2.717
 1501WAT     H1 4745   7.275   8.249   2.778
 1501WAT     H2 4746   7.171   8.289   2.659
 1502WAT      O 4747   5.828   6.246   6.821
 1502WAT     H1 4748   5.900   6.288   6.765
 1502WAT     H2 4749   5.862   6.160   6.860
 1503WAT      O 4750   1.014   6.848   6.677
 1503WAT     H1 4751   0.915   6.850   6.690
 1503WAT     H2 4752   1.060   6.857   6.765
 1504WAT      O 4753   8.246   8.748   7.080
 1504WAT     H1 4754   8.283   8.806   7.007
 1504WAT     H2 4755   8.295   8.661   7.081
 1505WAT      O 4756   7.920   1.101   7.897
 1505WAT     H1 4757   7.968   1.161   7.962
 1505WAT     H2 4758   7.882   1.157   7.823
 1506WAT      O 4759   0.208   1.874   9.502
 1506WAT     H1 4760   0.153   1.812   9.445
 1506WAT     H2 4761   0.283   1.824   9.543
 1507WAT      O 4762   9.256   8.208   6.096
 1507WAT     H1 4763   9.327   8.237   6.032
 1507WAT     H2 4764   9.286   8.126   6.144
 1508WAT      O 4765   6.224   2.988   1.108
 1508WAT     H1 4766   6.320   3.006   1.087
 1508WAT     H2 4767   6.218   2.932   1.191
 1509WAT      O 4768   9.273   7.394   4.451
 1509WAT     H1 4769   9.271   7.454   4.371
 1509WAT     H2 4770   9.310   7.445   4.529
 1510WAT      O 4771   3.771   7.484   2.157
 1510WAT     H1 4772   3.824   7.400   2.166
 1510WAT     H2 4773   3.815   7.545   2.092
 1511WAT      O 4774   8.010   2.233   6.416
 1511WAT     H1 4775   7.999   2.227   6.515
 1511WAT     H2 4776   7.970   2.152   6.373
 1512WAT      O 4777   8.765   0.844   4.678
 1512WAT     H1 4778   8.774   0.920   4.614
 1512WAT     H2 4779   8.670   0.811   4.678
 1513WAT      O 4780   0.515   4.270   1.113
 1513WAT     H1 4781   0.533   4.348   1.054
 1513WAT     H2 4782   0.470   4.197   1.060
 1514WAT      O 4783   4.986   6.521   9.578
 1514WAT     H1 4784   4.971   6.581   9.656
 1514WAT     H2 4785   4.923   6.443   9.583
 1515WAT      O 4786   3.136   4.085   8.964
 1515WAT     H1 4787   3.186   4.172   8.968
 1515WAT     H2 4788   3.192   4.012   9.003
 1516WAT      O 4789   4.769   8.565   5.317
 1516WAT     H1 4790   4.748   8.653   5.360
 1516WAT     H2 4791   4.713   8.554   5.235
 1517WAT      O 4792   6.174   0.064   9.328
 1517WAT     H1 4793   6.110   0.103   9.394
 1517WAT     H2 4794   6.260   0.042   9.375
 1518WAT      O 4795   2.504   4.451   2.755
 1518WAT     H1 4796   2.476   4.547   2.759
 1518WAT     H2 4797   2.601   4.445   2.735
 1519WAT      O 4798   3.144   0.023   7.556
 1519WAT     H1 4799   3.139   0.070   7.644
 1519WAT     H2 4800   3.222   0.057   7.504
 1520WAT      O 4801   2.467   2.081   3.001
 1520WAT     H1 4802   2.415   2.010   2.953
 1520WAT     H2 4803   2.492   2.153   2.936
 1521WAT      O 4804   1.969   2.002   0.797
 1521WAT     H1 4805   2.057   2.045   0.815
 1521WAT     H2 4806   1.976   1.904   0.815
 1522WAT      O 4807   1.255   1.044   3.893
 1522WAT     H1 4808   1.171   1.040   3.947
 1522WAT     H2 4809   1.251   1.120   3.829
 1523WAT      O 4810   1.076   9.712   7.506
 1523WAT     H1 4811   1.071   9.670   7.597
 1523WAT     H2 4812   1.014   9.790   7.502
 1524WAT      O 4813   8.752   3.210   7.789
 1524WAT     H1 4814   8.813   3.269   7.736
 1524WAT     H2 4815   8.797   3.186   7.875
 1525WAT      O 4816   8.003   5.748   7.409
 1525WAT     H1 4817   7.990   5.679   7.480
 1525WAT     H2 4818   7.957   5.718   7.325
 1526WAT      O 4819   0.313   2.296   0.083
 1526WAT     H1 4820   0.327   2.384   0.039
 1526WAT     H2 4821   0.355   2.224   0.029
 1527WAT      O 4822   0.985   4.730   6.785
 1527WAT     H1 4823   0.927   4.660   6.825
 1527WAT     H2 4824   1.002   4.802   6.852
 1528WAT      O 4825   5.273   9.270   6.542
 1528WAT     H1 4826   5.262   9.202   6.469
 1528WAT     H2 4827   5.269   9.224   6.631
 1529WAT      O 4828   3.289   8.314   7.548
 1529WAT     H1 4829   3.322   8.316   7.643
 1529WAT     H2 4830   3.208   8.254   7.543
 1530WAT      O 4831   9.637   8.458   2.190
 1530WAT     H1 4832   9.652   8.526   2.119
 1530WAT     H2 4833   9.578   8.385   2.155
 1531WAT      O 4834   7.073   5.816   1.217
 1531WAT     H1 4835   7.155   5.763   1.195
 1531WAT     H2 4836   7.040   5.862   1.134
 1532WAT      O 4837   8.948   5.793   1.436
 1532WAT     H1 4838   9.028   5.813   1.492
 1532WAT     H2 4839   8.867   5.789   1.494
 1533WAT      O 4840   2.142   5.105   7.818
 1533WAT     H1 4841   2.219   5.056   7.857
 1533WAT     H2 4842   2.056   5.065   7.852
 1534WAT      O 4843   4.975   5.980   8.478
 1534WAT     H1 4844   5.044   6.051   8.491
 1534WAT     H2 4845   4.949   5.942   8.566
 1535WAT      O 4846   3.640   2.106   6.910
 1535WAT     H1 4847   3.574   2.162   6.959
 1535WAT     H2 4848   3.603   2.082   6.820
 1536WAT      O 4849   0.791   0.551   7.150
 1536WAT     H1 4850   0.774   0.650   7.151
 1536WAT     H2 4851   0.709   0.505   7.116
 1537WAT      O 4852   6.719   7.529   5.827
 1537WAT     H1 4853   6.709   7.433   5.803
 1537WAT     H2 4854   6.633   7.564   5.864
 1538WAT      O 4855   7.570   8.519   4.880
 1538WAT     H1 4856   7.498   8.500   4.813
 1538WAT     H2 4857   7.528   8.546   4.967
 1539WAT      O 4858   9.173   5.482   7.837
 1539WAT     H1 4859   9.130   5.403   7.881
 1539WAT     H2 4860   9.175   5.559   7.901
 1540WAT      O 4861   3.480   2.297   8.380
 1540WAT     H1 4862   3.407   2.292   8.449
 1540WAT     H2 4863   3.484   2.390   8.343
 1541WAT      O 4864   3.284   6.028   9.672
 1541WAT     H1 4865   3.337   6.004   9.753
 1541WAT     H2 4866   3.186   6.024   9.694
 1542WAT      O 4867   2.286   7.445   1.609
 1542WAT     H1 4868   2.244   7.490   1.688
 1542WAT     H2 4869   2.221   7.380   1.569
 1543WAT      O 4870   2.021   5.722   4.198
 1543WAT     H1 4871   2.080   5.641   4.192
 1543WAT     H2 4872   1.928   5.697   4.172
 1544WAT      O 4873   5.755   8.558   7.389
 1544WAT     H1 4874   5.700   8.495   7.333
 1544WAT     H2 4875   5.784   8.510   7.472
 1545WAT      O 4876   1.365   7.829   2.583
 1545WAT     H1 4877   1.313   7.749   2.555
 1545WAT     H2 4878   1.426   7.858   2.509
 1546WAT      O 4879   2.500   6.650   0.389
 1546WAT     H1 4880   2.516   6.720   0.459
 1546WAT     H2 4881   2.587   6.607   0.364
 1547WAT      O 4882   0.486   3.553   4.829
 1547WAT     H1 4883   0.466   3.498   4.910
 1547WAT     H2 4884   0.575   3.528   4.793
 1548WAT      O 4885   0.938   4.122   3.871
 1548WAT     H1 4886   0.845   4.087   3.885
 1548WAT     H2 4887   0.934   4.215   3.836
 1549WAT      O 4888   9.544   3.816   4.474
 1549WAT     H1 4889   9.545   3.756   4.554
 1549WAT     H2 4890   9.452   3.819   4.435
 1550WAT      O 4891   2.620   8.554   6.569
 1550WAT     H1 4892   2.534   8.531   6.615
 1550WAT     H2 4893   2.622   8.652   6.550
 1551WAT      O 4894   2.218   3.836   1.153
 1551WAT     H1 4895   2.132   3.885   1.135
 1551WAT     H2 4896   2.252   3.795   1.069
 1552WAT      O 4897   0.710   7.240   1.218
 1552WAT     H1 4898   0.722   7.168   1.150
 1552WAT     H2 4899   0.763   7.219   1.300
 1553WAT      O 4900   0.072   4.937   8.858
 1553WAT     H1 4901   0.066   4.955   8.760
 1553WAT     H2 4902   0.033   5.015   8.909
 1554WAT      O 4903   9.249   9.100   8.007
 1554WAT     H1 4904   9.184   9.159   8.055
 1554WAT     H2 4905   9.313   9.157   7.955
 1555WAT      O 4906   4.942   3.167   4.516
 1555WAT     H1 4907   5.037   3.157   4.544
 1555WAT     H2 4908   4.937   3.172   4.416
 1556WAT      O 4909   8.693   8.150   7.308
 1556WAT     H1 4910   8.678   8.132   7.405
 1556WAT     H2 4911   8.627   8.219   7.277
 1557WAT      O 4912   7.541   4.664   5.751
 1557WAT     H1 4913   7.627   4.710   5.730
 1557WAT     H2 4914   7.495   4.640   5.666
 1558WAT      O 4915   0.470   8.249   7.010
 1558WAT     H1 4916   0.535   8.325   7.011
 1558WAT     H2 4917   0.520   8.162   7.013
 1559WAT      O 4918   2.807   4.169   8.011
 1559WAT     H1 4919   2.851   4.247   8.055
 1559WAT     H2 4920   2.708   4.180   8.015
 1560WAT      O 4921   9.716   0.081   5.393
 1560WAT     H1 4922   9.621   0.108   5.380
 1560WAT     H2 4923   9.774   0.132   5.329
 1561WAT      O 4924   0.638   3.232   3.440
 1561WAT     H1 4925   0.707   3.159   3.434
 1561WAT     H2 4926   0.548   3.192   3.459
 1562WAT      O 4927   3.681   8.511   7.490
 1562WAT     H1 4928   3.731   8.433   7.526
 1562WAT     H2 4929   3.702   8.593   7.544
 1563WAT      O 4930   3.064   7.282   5.494
 1563WAT     H1 4931   3.150   7.332   5.488
 1563WAT     H2 4932   3.000   7.318   5.425
 1564WAT      O 4933   2.110   9.206   1.495
 1564WAT     H1 4934   2.110   9.264   1.576
 1564WAT     H2 4935   2.183   9.137   1.504
 1565WAT      O 4936   0.557   8.908   0.914
 1565WAT     H1 4937   0.583   9.005   0.918
 1565WAT     H2 4938   0.519   8.880   1.003
 1566WAT      O 4939   7.622   3.027   4.929
 1566WAT     H1 4940   7.643   2.976   4.846
 1566WAT     H2 4941   7.639   2.970   5.009
 1567WAT      O 4942   3.987   5.443   9.807
 1567WAT     H1 4943   4.052   5.494   9.751
 1567WAT     H2 4944   4.037   5.395   9.879
 1568WAT      O 4945   2.188   5.246   6.321
 1568WAT     H1 4946   2.281   5.246   6.358
 1568WAT     H2 4947   2.170   5.159   6.276
 1569WAT      O 4948   9.425   6.142   6.566
 1569WAT     H1 4949   9.475   6.183   6.490
 1569WAT     H2 4950   9.327   6.146   6.548
 1570WAT      O 4951   3.231   3.476   4.382
 1570WAT     H1 4952   3.249   3.378   4.389
 1570WAT     H2 4953   3.277   3.524   4.456
 1571WAT      O 4954   7.954   5.471   0.444
 1571WAT     H1 4955   8.046   5.455   0.406
 1571WAT     H2 4956   7.918   5.557   0.408
 1572WAT      O 4957   4.612   7.508   0.148
 1572WAT     H1 4958   4.679   7.541   0.215
 1572WAT     H2 4959   4.583   7.416   0.174
 1573WAT      O 4960   5.817   4.273   8.395
 1573WAT     H1 4961   5.884   4.343   8.419
 1573WAT     H2 4962   5.730   4.291   8.441
 1574WAT      O 4963   0.298   3.473   9.472
 1574WAT     H1 4964   0.291   3.394   9.412
 1574WAT     H2 4965   0.367   3.456   9.542
 1575WAT      O 4966   5.713   7.843   6.284
 1575WAT     H1 4967   5.759   7.924   6.321
 1575WAT     H2 4968   5.618   7.840   6.316
 1576WAT      O 4969   2.786   6.239   2.771
 1576WAT     H1 4970   2.885   6.227   2.780
 1576WAT     H2 4971   2.763   6.252   2.675
 1577WAT      O 4972   4.240   9.124   5.693
 1577WAT     H1 4973   4.181   9.204   5.683
 1577WAT     H2 4974   4.200   9.061   5.760
 1578WAT      O 4975   6.789   3.141   4.841
 1578WAT     H1 4976   6.888   3.129   4.839
 1578WAT     H2 4977   6.744   3.057   4.812
 1579WAT      O 4978   6.690   6.077   4.483
 1579WAT     H1 4979   6.769   6.105   4.537
 1579WAT     H2 4980   6.608   6.125   4.516
 1580WAT      O 4981   5.271   7.119   0.493
 1580WAT     H1 4982   5.251   7.149   0.586
 1580WAT     H2 4983   5.275   7.198   0.432
 1581WAT      O 4984   9.068   6.580   1.958
 1581WAT     H1 4985   9.005   6.609   1.886
 1581WAT     H2 4986   9.151   6.541   1.917
 1582WAT      O 4987   8.673   3.028   6.030
 1582WAT     H1 4988   8.630   3.118   6.030
 1582WAT     H2 4989   8.699   3.003   5.937
 1583WAT      O 4990   0.226   3.970   4.246
 1583WAT     H1 4991   0.155   4.027   4.205
 1583WAT     H2 4992   0.186   3.913   4.317
 1584WAT      O 4993   2.901   6.238   8.993
 1584WAT     H1 4994   2.830   6.170   9.011
 1584WAT     H2 4995   2.931   6.279   9.079
 1585WAT      O 4996   4.978   3.060   1.522
 1585WAT     H1 4997   4.933   3.129   1.466
 1585WAT     H2 4998   5.043   3.008   1.466
 1586WAT      O 4999   0.446   5.013   9.512
 1586WAT     H1 5000   0.386   5.009   9.593
 1586WAT     H2 5001   0.534   5.052   9.538
 1587WAT      O 5002   2.850   8.472   5.563
 1587WAT     H1 5003   2.882   8.385   5.601
 1587WAT     H2 5004   2.751   8.479   5.575
 1588WAT      O 5005   1.056   5.449   3.602
 1588WAT     H1 5006   1.027   5.441   3.507
 1588WAT     H2 5007   1.119   5.526   3.612
 1589WAT      O 5008   8.157   4.002   0.749
 1589WAT     H1 5009   8.237   3.982   0.693
 1589WAT     H2 5010   8.080   3.946   0.719
 1590WAT      O 5011   3.495   0.420   1.739
 1590WAT     H1 5012   3.577   0.373   1.705
 1590WAT     H2 5013   3.468   0.381   1.827
 1591WAT      O 5014   8.892   8.764   3.291
 1591WAT     H1 5015   8.986   8.772   3.325
 1591WAT     H2 5016   8.890   8.704   3.211
 1592WAT      O 5017   6.738   8.198   5.601
 1592WAT     H1 5018   6.802   8.154   5.537
 1592WAT     H2 5019   6.653   8.145   5.605
 1593WAT      O 5020   5.093   6.340   7.557
 1593WAT     H1 5021   5.184   6.377   7.538
 1593WAT     H2 5022   5.057   6.298   7.473
 1594WAT      O 5023   9.272   9.348   1.447
 1594WAT     H1 5024   9.328   9.273   1.412
 1594WAT     H2 5025   9.310   9.436   1.417
 1595WAT      O 5026   5.005   6.543   8.098
 1595WAT     H1 5027   5.097   6.551   8.062
 1595WAT     H2 5028   5.009   6.521   8.196
 1596WAT      O 5029   5.778   6.023   8.844
 1596WAT     H1 5030   5.715   6.073   8.904
 1596WAT     H2 5031   5.725   5.975   8.774
 1597WAT      O 5032   3.059   0.095   1.964
 1597WAT     H1 5033   3.115   0.016   1.941
 1597WAT     H2 5034   3.059   0.159   1.887
 1598WAT      O 5035   3.790   8.331   8.246
 1598WAT     H1 5036   3.836   8.273   8.178
 1598WAT     H2 5037   3.859   8.378   8.301
 1599WAT      O 5038   2.067   8.944   4.589
 1599WAT     H1 5039   2.151   8.975   4.633
 1599WAT     H2 5040   2.036   9.014   4.524
 1600WAT      O 5041   6.755   5.080   6.451
 1600WAT     H1 5042   6.840   5.049   6.492
 1600WAT     H2 5043   6.747   5.043   6.359
 1601WAT      O 5044   1.601   5.337   3.319
 1601WAT     H1 5045   1.508   5.374   3.316
 1601WAT     H2 5046   1.598   5.242   3.348
 1602WAT      O 5047   8.174   4.092   9.045
 1602WAT     H1 5048   8.182   3.995   9.020
 1602WAT     H2 5049   8.145   4.100   9.140
 1603WAT      O 5050   2.907   7.127   5.156
 1603WAT     H1 5051   2.990   7.080   5.187
 1603WAT     H2 5052   2.828   7.066   5.169
 1604WAT      O 5053   0.549   5.705   4.700
 1604WAT     H1 5054   0.521   5.777   4.764
 1604WAT     H2 5055   0.517   5.728   4.608
 1605WAT      O 5056   1.226   8.105   1.532
 1605WAT     H1 5057   1.194   8.064   1.617
 1605WAT     H2 5058   1.258   8.199   1.549
 1606WAT      O 5059   6.494   7.925   2.510
 1606WAT     H1 5060   6.396   7.907   2.524
 1606WAT     H2 5061   6.537   7.942   2.599
 1607WAT      O 5062   8.110   4.953   9.390
 1607WAT     H1 5063   8.089   5.047   9.416
 1607WAT     H2 5064   8.140   4.902   9.471
 1608WAT      O 5065   0.909   5.049   1.945
 1608WAT     H1 5066   0.994   5.008   1.912
 1608WAT     H2 5067   0.905   5.044   2.044
 1609WAT      O 5068   9.353   9.514   6.430
 1609WAT     H1 5069   9.424   9.480   6.492
 1609WAT     H2 5070   9.267   9.467   6.449
 1610WAT      O 5071   8.706   8.593   2.737
 1610WAT     H1 5072   8.712   8.691   2.759
 1610WAT     H2 5073   8.781   8.568   2.676
 1611WAT      O 5074   0.050   4.836   0.501
 1611WAT     H1 5075   0.122   4.885   0.452
 1611WAT     H2 5076   0.090   4.764   0.556
 1612WAT      O 5077   5.444   6.825   8.460
 1612WAT     H1 5078   5.534   6.838   8.419
 1612WAT     H2 5079   5.443   6.864   8.552
 1613WAT      O 5080   5.686   4.961   8.971
 1613WAT     H1 5081   5.754   5.012   8.918
 1613WAT     H2 5082   5.732   4.915   9.047
 1614WAT      O 5083   8.524   7.511   4.170
 1614WAT     H1 5084   8.425   7.513   4.158
 1614WAT     H2 5085   8.547   7.535   4.264
 1615WAT      O 5086   9.138   7.410   0.730
 1615WAT     H1 5087   9.171   7.459   0.649
 1615WAT     H2 5088   9.056   7.455   0.766
 1616WAT      O 5089   8.072   2.257   3.738
 1616WAT     H1 5090   8.081   2.166   3.697
 1616WAT     H2 5091   8.047   2.323   3.667
 1617WAT      O 5092   4.157   9.558   6.468
 1617WAT     H1 5093   4.241   9.511   6.497
 1617WAT     H2 5094   4.180   9.647   6.430
 1618WAT      O 5095   0.556   8.210   3.352
 1618WAT     H1 5096   0.588   8.280   3.289
 1618WAT     H2 5097   0.494   8.252   3.419
 1619WAT      O 5098   2.322   4.224   3.090
 1619WAT     H1 5099   2.415   4.239   3.056
 1619WAT     H2 5100   2.267   4.181   3.019
 1620WAT      O 5101   2.376   8.155   4.849
 1620WAT     H1 5102   2.280   8.172   4.872
 1620WAT     H2 5103   2.401   8.063   4.877
 1621WAT      O 5104   5.894   7.395   6.260
 1621WAT     H1 5105   5.911   7.338   6.179
 1621WAT     H2 5106   5.980   7.428   6.297
 1622WAT      O 5107   0.561   5.843   6.492
 1622WAT     H1 5108   0.507   5.821   6.410
 1622WAT     H2 5109   0.654   5.811   6.479
 1623WAT      O 5110   9.078   4.907   3.114
 1623WAT     H1 5111   9.000   4.902   3.051
 1623WAT     H2 5112   9.058   4.973   3.186
 1624WAT      O 5113   5.311   4.950   2.471
 1624WAT     H1 5114   5.407   4.936   2.449
 1624WAT     H2 5115   5.303   5.024   2.539
 1625WAT      O 5116   7.903   7.358   1.299
 1625WAT     H1 5117   7.851   7.293   1.244
 1625WAT     H2 5118   7.846   7.392   1.373
 1626WAT      O 5119   4.918   3.842   7.456
 1626WAT     H1 5120   4.851   3.783   7.411
 1626WAT     H2 5121   4.923   3.820   7.553
 1627WAT      O 5122   0.016   4.572   1.430
 1627WAT     H1 5123  -0.055   4.622   1.380
 1627WAT     H2 5124   0.104   4.617   1.417
 1628WAT      O 5125   5.885   7.017   5.134
 1628WAT     H1 5126   5.972   6.999   5.179
 1628WAT     H2 5127   5.883   7.111   5.101
 1629WAT      O 5128   1.449   0.608   3.411
 1629WAT     H1 5129   1.418   0.700   3.433
 1629WAT     H2 5130   1.544   0.610   3.381
 1630WAT      O 5131   1.435   0.067   2.557
 1630WAT     H1 5132   1.376   0.053   2.635
 1630WAT     H2 5133   1.390   0.033   2.474
 1631WAT      O 5134   4.688   3.553   6.499
 1631WAT     H1 5135   4.761   3.604   6.544
 1631WAT     H2 5136   4.600   3.599   6.513
 1632WAT      O 5137   4.069   3.732   1.371
 1632WAT     H1 5138   4.151   3.675   1.381
 1632WAT     H2 5139   4.020   3.737   1.458
 1633WAT      O 5140   7.857   4.940   0.733
 1633WAT     H1 5141   7.806   4.967   0.651
 1633WAT     H2 5142   7.855   4.840   0.741
 1634WAT      O 5143   2.643   7.897   2.919
 1634WAT     H1 5144   2.635   7.854   3.009
 1634WAT     H2 5145   2.731   7.872   2.878
 1635WAT      O 5146   3.768   2.346   8.513
 1635WAT     H1 5147   3.721   2.258   8.525
 1635WAT     H2 5148   3.814   2.371   8.597
 1636WAT      O 5149   3.000   9.359   7.432
 1636WAT     H1 5150   3.014   9.458   7.427
 1636WAT     H2 5151   3.086   9.312   7.416
 1637WAT      O 5152   1.055   5.832   8.724
 1637WAT     H1 5153   1.137   5.778   8.704
 1637WAT     H2 5154   1.032   5.889   8.645
 1638WAT      O 5155   9.030   9.156   1.709
 1638WAT     H1 5156   8.970   9.123   1.636
 1638WAT     H2 5157   9.067   9.246   1.684
 1639WAT      O 5158   4.616   6.845   8.145
 1639WAT     H1 5159   4.676   6.900   8.087
 1639WAT     H2 5160   4.651   6.751   8.150
 1640WAT      O 5161   5.121   0.310   0.322
 1640WAT     H1 5162   5.067   0.386   0.359
 1640WAT     H2 5163   5.169   0.264   0.397
 1641WAT      O 5164   8.579   4.303   2.888
 1641WAT     H1 5165   8.519   4.237   2.935
 1641WAT     H2 5166   8.602   4.377   2.951
 1642WAT      O 5167   7.149   3.177   7.934
 1642WAT     H1 5168   7.100   3.183   8.021
 1642WAT     H2 5169   7.093   3.129   7.867
 1643WAT      O 5170   7.047   9.679   3.842
 1643WAT     H1 5171   7.045   9.686   3.942
 1643WAT     H2 5172   7.141   9.660   3.812
 1644WAT      O 5173   5.756   5.956   7.149
 1644WAT     H1 5174   5.820   5.934   7.223
 1644WAT     H2 5175   5.674   5.899   7.159
 1645WAT      O 5176   7.585   6.895   5.309
 1645WAT     H1 5177   7.620   6.904   5.216
 1645WAT     H2 5178   7.489   6.923   5.312
 1646WAT      O 5179   2.595   8.733   8.539
 1646WAT     H1 5180   2.567   8.794   8.465
 1646WAT     H2 5181   2.670   8.675   8.506
 1647WAT      O 5182   5.900   9.557   5.630
 1647WAT     H1 5183   5.832   9.540   5.558
 1647WAT     H2 5184   5.990   9.529   5.597
 1648WAT      O 5185   6.632   0.245   9.680
 1648WAT     H1 5186   6.632   0.151   9.714
 1648WAT     H2 5187   6.657   0.246   9.583
 1649WAT      O 5188   3.758   2.083   8.485
 1649WAT     H1 5189   3.703   2.080   8.402
 1649WAT     H2 5190   3.809   1.997   8.495
 1650WAT      O 5191   2.561   7.172   7.487
 1650WAT     H1 5192   2.636   7.178   7.422
 1650WAT     H2 5193   2.481   7.131   7.443
 1651WAT      O 5194   9.493   4.154   4.199
 1651WAT     H1 5195   9.488   4.059   4.170
 1651WAT     H2 5196   9.525   4.158   4.294
 1652WAT      O 5197   0.318   7.855   4.182
 1652WAT     H1 5198   0.333   7.778   4.121
 1652WAT     H2 5199   0.242   7.835   4.243
 1653WAT      O 5200   7.256   3.199   0.115
 1653WAT     H1 5201   7.164   3.162   0.122
 1653WAT     H2 5202   7.323   3.124   0.118
 1654WAT      O 5203   0.074   7.969   6.400
 1654WAT     H1 5204   0.015   8.032   6.450
 1654WAT     H2 5205   0.087   7.886   6.454
 1655WAT      O 5206   0.187   8.195   2.299
 1655WAT     H1 5207   0.233   8.214   2.385
 1655WAT     H2 5208   0.142   8.277   2.266
 1656WAT      O 5209   8.598   1.735   5.696
 1656WAT     H1 5210   8.514   1.681   5.699
 1656WAT     H2 5211   8.661   1.695   5.629
 1657WAT      O 5212   0.008   7.964   4.177
 1657WAT     H1 5213   0.002   7.923   4.086
 1657WAT     H2 5214   0.036   8.059   4.169
 1658WAT      O 5215   1.792   4.867   9.508
 1658WAT     H1 5216   1.755   4.864   9.601
 1658WAT     H2 5217   1.770   4.955   9.467
 1659WAT      O 5218   5.381   2.379   5.004
 1659WAT     H1 5219   5.381   2.287   4.965
 1659WAT     H2 5220   5.470   2.422   4.989
 1660WAT      O 5221   1.132   6.457   9.431
 1660WAT     H1 5222   1.192   6.505   9.495
 1660WAT     H2 5223   1.165   6.471   9.338
 1661WAT      O 5224   1.791   5.567   7.776
 1661WAT     H1 5225   1.725   5.616   7.833
 1661WAT     H2 5226   1.845   5.505   7.834
 1662WAT      O 5227   0.188   4.493   2.770
 1662WAT     H1 5228   0.095   4.475   2.739
 1662WAT     H2 5229   0.233   4.406   2.792
 1663WAT      O 5230   9.358   0.608   8.460
 1663WAT     H1 5231   9.299   0.528   8.475
 1663WAT     H2 5232   9.310   0.674   8.403
 1664WAT      O 5233   8.097   9.206   5.825
 1664WAT     H1 5234   8.156   9.158   5.891
 1664WAT     H2 5235   8.002   9.196   5.853
 1665WAT      O 5236   5.046   4.928   1.225
 1665WAT     H1 5237   5.076   4.842   1.265
 1665WAT     H2 5238   5.009   4.987   1.297
 1666WAT      O 5239   4.179   5.250   7.549
 1666WAT     H1 5240   4.220   5.283   7.634
 1666WAT     H2 5241   4.082   5.275   7.547
 1667WAT      O 5242   6.165   0.200   8.051
 1667WAT     H1 5243   6.124   0.125   8.000
 1667WAT     H2 5244   6.103   0.228   8.125
 1668WAT      O 5245   1.797   0.320   9.867
 1668WAT     H1 5246   1.825   0.230   9.831
 1668WAT     H2 5247   1.770   0.311   9.963
 1669WAT      O 5248   9.474   9.192   1.323
 1669WAT     H1 5249   9.436   9.157   1.238
 1669WAT     H2 5250   9.526   9.276   1.304
 1670WAT      O 5251   9.244   0.160   1.977
 1670WAT     H1 5252   9.165   0.127   1.926
 1670WAT     H2 5253   9.230   0.256   2.002
 1671WAT      O 5254   5.290   2.195   8.172
 1671WAT     H1 5255   5.274   2.109   8.125
 1671WAT     H2 5256   5.265   2.271   8.112
 1672WAT      O 5257   1.501   6.161   3.343
 1672WAT     H1 5258   1.525   6.177   3.439
 1672WAT     H2 5259   1.509   6.247   3.293
 1673WAT      O 5260   5.919   4.211   5.961
 1673WAT     H1 5261   5.900   4.131   5.904
 1673WAT     H2 5262   5.848   4.220   6.031
 1674WAT      O 5263   8.134   3.694   8.441
 1674WAT     H1 5264   8.228   3.724   8.424
 1674WAT     H2 5265   8.077   3.715   8.362
 1675WAT      O 5266   4.276   6.382   8.031
 1675WAT     H1 5267   4.211   6.311   8.061
 1675WAT     H2 5268   4.280   6.383   7.931
 1676WAT      O 5269   8.142   6.332   1.022
 1676WAT     H1 5270   8.104   6.274   1.095
 1676WAT     H2 5271   8.237   6.354   1.044
 1677WAT      O 5272   6.407   1.063   8.057
 1677WAT     H1 5273   6.455   1.101   7.978
 1677WAT     H2 5274   6.433   1.113   8.139
 1678WAT      O 5275   8.979   4.001   9.240
 1678WAT     H1 5276   8.994   4.058   9.321
 1678WAT     H2 5277   9.067   3.973   9.202
 1679WAT      O 5278   1.874   2.146   8.607
 1679WAT     H1 5279   1.963   2.164   8.649
 1679WAT     H2 5280   1.815   2.101   8.673
 1680WAT      O 5281   7.397   7.075   9.392
 1680WAT     H1 5282   7.469   7.020   9.435
 1680WAT     H2 5283   7.349   7.129   9.462
 1681WAT      O 5284   9.558   8.592   4.174
 1681WAT     H1 5285   9.461   8.573   4.187
 1681WAT     H2 5286   9.598   8.625   4.260
 1682WAT      O 5287   0.449   5.328   2.152
 1682WAT     H1 5288   0.357   5.290   2.161
 1682WAT     H2 5289   0.451   5.421   2.188
 1683WAT      O 5290   7.186   5.077   0.806
 1683WAT     H1 5291   7.212   5.158   0.860
 1683WAT     H2 5292   7.140   5.107   0.722
 1684WAT      O 5293   0.674   9.589   4.718
 1684WAT     H1 5294   0.696   9.563   4.812
 1684WAT     H2 5295   0.747   9.558   4.658
 1685WAT      O 5296   3.462   7.742   1.075
 1685WAT     H1 5297   3.510   7.750   0.988
 1685WAT     H2 5298   3.365   7.761   1.061
 1686WAT      O 5299   2.113   5.499   7.576
 1686WAT     H1 5300   2.173   5.564   7.529
 1686WAT     H2 5301   2.104   5.417   7.521
 1687WAT      O 5302   1.139   7.969   7.671
 1687WAT     H1 5303   1.158   7.997   7.765
 1687WAT     H2 5304   1.174   7.876   7.657
 1688WAT      O 5305   8.177   2.121   4.722
 1688WAT     H1 5306   8.090   2.073   4.718
 1688WAT     H2 5307   8.231   2.101   4.639
 1689WAT      O 5308   2.298   2.738   3.633
 1689WAT     H1 5309   2.261   2.649   3.660
 1689WAT     H2 5310   2.392   2.727   3.603
 1690WAT      O 5311   5.743   4.485   5.217
 1690WAT     H1 5312   5.663   4.429   5.194
 1690WAT     H2 5313   5.724   4.538   5.299
 1691WAT      O 5314   6.967   9.729   6.699
 1691WAT     H1 5315   6.932   9.820   6.723
 1691WAT     H2 5316   7.042   9.739   6.633
 1692WAT      O 5317   4.561   3.002   0.022
 1692WAT     H1 5318   4.467   3.038   0.020
 1692WAT     H2 5319   4.558   2.903   0.038
 1693WAT      O 5320   3.297   9.608   5.243
 1693WAT     H1 5321   3.273   9.583   5.337
 1693WAT     H2 5322   3.320   9.706   5.240
 1694WAT      O 5323   1.459   3.591   0.021
 1694WAT     H1 5324   1.514   3.651   0.078
 1694WAT     H2 5325   1.504   3.502   0.013
 1695WAT      O 5326   2.658   8.340   8.097
 1695WAT     H1 5327   2.608   8.293   8.170
 1695WAT     H2 5328   2.598   8.352   8.018
 1696WAT      O 5329   3.042   0.533   0.605
 1696WAT     H1 5330   3.036   0.587   0.521
 1696WAT     H2 5331   2.984   0.574   0.675
 1697WAT      O 5332   8.897   2.039   2.325
 1697WAT     H1 5333   8.950   2.124   2.327
 1697WAT     H2 5334   8.831   2.043   2.250
 1698WAT      O 5335   5.020   1.308   7.234
 1698WAT     H1 5336   5.043   1.404   7.216
 1698WAT     H2 5337   4.957   1.275   7.165
 1699WAT      O 5338   8.434   0.262   3.506
 1699WAT     H1 5339   8.406   0.328   3.576
 1699WAT     H2 5340   8.415   0.299   3.416
 1700WAT      O 5341   3.633   3.682   8.734
 1700WAT     H1 5342   3.552   3.623   8.743
 1700WAT     H2 5343   3.610   3.761   8.676
 1701WAT      O 5344   5.734   2.311   3.234
 1701WAT     H1 5345   5.834   2.307   3.241
 1701WAT     H2 5346   5.708   2.322   3.138
 1702WAT      O 5347   5.812   0.117   7.583
 1702WAT     H1 5348   5.867   0.190   7.623
 1702WAT     H2 5349   5.859   0.030   7.596
 1703WAT      O 5350   5.320   7.590   1.893
 1703WAT     H1 5351   5.326   7.648   1.812
 1703WAT     H2 5352   5.318   7.647   1.975
 1704WAT      O 5353   7.765   4.643   5.953
 1704WAT     H1 5354   7.705   4.622   5.876
 1704WAT     H2 5355   7.754   4.574   6.024
 1705WAT      O 5356   0.814   4.305   7.802
 1705WAT     H1 5357   0.778   4.356   7.880
 1705WAT     H2 5358   0.748   4.234   7.776
 1706WAT      O 5359   3.847   8.363   7.132
 1706WAT     H1 5360   3.773   8.429   7.143
 1706WAT     H2 5361   3.819   8.275   7.172
 1707WAT      O 5362   0.550   4.692   7.460
 1707WAT     H1 5363   0.499   4.635   7.525
 1707WAT     H2 5364   0.644   4.701   7.492
 1708WAT      O 5365   4.447   3.682   6.515
 1708WAT     H1 5366   4.478   3.777   6.516
 1708WAT     H2 5367   4.354   3.677   6.551
 1709WAT      O 5368   0.502   1.736   7.779
 1709WAT     H1 5369   0.456   1.825   7.778
 1709WAT     H2 5370   0.592   1.746   7.822
 1710WAT      O 5371   7.242   6.622   5.469
 1710WAT     H1 5372   7.318   6.662   5.520
 1710WAT     H2 5373   7.269   6.534   5.431
 1711WAT      O 5374   0.894   5.401   3.811
 1711WAT     H1 5375   0.961   5.403   3.737
 1711WAT     H2 5376   0.938   5.366   3.894
 1712WAT      O 5377   0.826   0.826   9.491
 1712WAT     H1 5378   0.838   0.773   9.407
 1712WAT     H2 5379   0.732   0.860   9.496
 1713WAT      O 5380   7.903   8.657   0.215
 1713WAT     H1 5381   7.870   8.747   0.186
 1713WAT     H2 5382   7.955   8.615   0.141
 1714WAT      O 5383   7.798   6.993   6.132
 1714WAT     H1 5384   7.881   7.045   6.152
 1714WAT     H2 5385   7.747   7.037   6.058
 1715WAT      O 5386   7.418   1.269   1.433
 1715WAT     H1 5387   7.510   1.232   1.421
 1715WAT     H2 5388   7.423   1.353   1.487
 1716WAT      O 5389   5.475   1.690   7.308
 1716WAT     H1 5390   5.388   1.695   7.358
 1716WAT     H2 5391   5.459   1.712   7.212
 1717WAT      O 5392   9.592   2.954   3.781
 1717WAT     H1 5393   9.606   2.885   3.711
 1717WAT     H2 5394   9.580   3.044   3.738
 1718WAT      O 5395   8.429   5.375   0.221
 1718WAT     H1 5396   8.448   5.344   0.128
 1718WAT     H2 5397   8.489   5.450   0.245
 1719WAT      O 5398   4.939   8.330   0.603
 1719WAT     H1 5399   4.872   8.261   0.573
 1719WAT     H2 5400   5.029   8.287   0.608
 1720WAT      O 5401   9.174   7.530   3.349
 1720WAT     H1 5402   9.230   7.449   3.367
 1720WAT     H2 5403   9.142   7.527   3.254
 1721WAT      O 5404   5.315   7.140   9.458
 1721WAT     H1 5405   5.288   7.076   9.385
 1721WAT     H2 5406   5.245   7.140   9.529
 1722WAT      O 5407   7.867   2.908   9.839
 1722WAT     H1 5408   7.953   2.858   9.847
 1722WAT     H2 5409   7.820   2.908   9.927
 1723WAT      O 5410   3.401   4.470   3.250
 1723WAT     H1 5411   3.390   4.470   3.349
 1723WAT     H2 5412   3.410   4.565   3.217
 1724WAT      O 5413   3.533   9.810   3.091
 1724WAT     H1 5414   3.628   9.781   3.080
 1724WAT     H2 5415   3.519   9.898   3.046
 1725WAT      O 5416   5.613   6.834   6.245
 1725WAT     H1 5417   5.679   6.765   6.216
 1725WAT     H2 5418   5.661   6.917   6.273
 1726WAT      O 5419   1.666   3.470   3.440
 1726WAT     H1 5420   1.639   3.546   3.381
 1726WAT     H2 5421   1.748   3.495   3.492
 1727WAT      O 5422   7.500   6.680   1.572
 1727WAT     H1 5423   7.552   6.645   1.494
 1727WAT     H2 5424   7.413   6.716   1.540
 1728WAT      O 5425   9.727   2.421   8.621
 1728WAT     H1 5426   9.777   2.492   8.572
 1728WAT     H2 5427   9.728   2.441   8.718
 1729WAT      O 5428   8.560   7.685   5.420
 1729WAT     H1 5429   8.639   7.683   5.358
 1729WAT     H2 5430   8.519   7.594   5.424
 1730WAT      O 5431   1.013   1.462   6.590
 1730WAT     H1 5432   1.003   1.445   6.492
 1730WAT     H2 5433   1.030   1.560   6.605
 1731WAT      O 5434   8.718   3.601   8.028
 1731WAT     H1 5435   8.710   3.563   8.120
 1731WAT     H2 5436   8.762   3.690   8.032
 1732WAT      O 5437   7.132   9.806   6.453
 1732WAT     H1 5438   7.069   9.873   6.414
 1732WAT     H2 5439   7.109   9.715   6.419
 1733WAT      O 5440   7.875   6.650   1.827
 1733WAT     H1 5441   7.871   6.556   1.793
 1733WAT     H2 5442   7.964   6.690   1.805
 1734WAT      O 5443   4.804   9.528   8.605
 1734WAT     H1 5444   4.881   9.491   8.554
 1734WAT     H2 5445   4.719   9.508   8.556
 1735WAT      O 5446   6.147   7.126   3.776
 1735WAT     H1 5447   6.226   7.066   3.784
 1735WAT     H2 5448   6.066   7.073   3.750
 1736WAT      O 5449   6.296   5.108   6.742
 1736WAT     H1 5450   6.202   5.122   6.711
 1736WAT     H2 5451   6.317   5.010   6.743
 1737WAT      O 5452   7.404   6.585   6.470
 1737WAT     H1 5453   7.338   6.589   6.395
 1737WAT     H2 5454   7.357   6.561   6.555
 1738WAT      O 5455   8.890   7.704   1.414
 1738WAT     H1 5456   8.891   7.773   1.486
 1738WAT     H2 5457   8.950   7.733   1.340
 1739WAT      O 5458   3.581   0.958   1.248
 1739WAT     H1 5459   3.544   0.982   1.338
 1739WAT     H2 5460   3.671   1.001   1.236
 1740WAT      O 5461   0.091   9.736   4.912
 1740WAT     H1 5462   0.064   9.813   4.853
 1740WAT     H2 5463   0.055   9.750   5.004
 1741WAT      O 5464   5.759   5.021   1.787
 1741WAT     H1 5465   5.767   5.119   1.770
 1741WAT     H2 5466   5.724   5.006   1.880
 1742WAT      O 5467   1.067   6.741   5.751
 1742WAT     H1 5468   1.049   6.838   5.736
 1742WAT     H2 5469   1.156   6.729   5.795
 1743WAT      O 5470   7.737   9.836   1.761
 1743WAT     H1 5471   7.669   9.887   1.813
 1743WAT     H2 5472   7.822   9.830   1.813
 1744WAT      O 5473   4.258   7.679   1.492
 1744WAT     H1 5474   4.206   7.676   1.577
 1744WAT     H2 5475   4.347   7.721   1.509
 1745WAT      O 5476   5.731   7.711   1.205
 1745WAT     H1 5477   5.774   7.744   1.121
 1745WAT     H2 5478   5.642   7.755   1.216
 1746WAT      O 5479   9.203   3.611   3.973
 1746WAT     H1 5480   9.215   3.663   4.057
 1746WAT     H2 5481   9.191   3.675   3.896
 1747WAT      O 5482   8.110   1.177   9.654
 1747WAT     H1 5483   8.178   1.186   9.581
 1747WAT     H2 5484   8.043   1.250   9.646
 1748WAT      O 5485   4.330   9.248   4.804
 1748WAT     H1 5486   4.406   9.246   4.868
 1748WAT     H2 5487   4.257   9.306   4.840
 1749WAT      O 5488   8.792   1.565   0.541
 1749WAT     H1 5489   8.715   1.600   0.593
 1749WAT     H2 5490   8.878   1.592   0.585
 1750WAT      O 5491   0.508   0.797   6.745
 1750WAT     H1 5492   0.545   0.751   6.826
 1750WAT     H2 5493   0.486   0.729   6.675
 1751WAT      O 5494   0.407   9.699   3.923
 1751WAT     H1 5495   0.469   9.662   3.854
 1751WAT     H2 5496   0.381   9.626   3.987
 1752WAT      O 5497   5.152   3.827   2.728
 1752WAT     H1 5498   5.145   3.727   2.724
 1752WAT     H2 5499   5.186   3.862   2.642
 1753WAT      O 5500   4.724   2.457   0.774
 1753WAT     H1 5501   4.794   2.386   0.790
 1753WAT     H2 5502   4.691   2.490   0.862
 1754WAT      O 5503   0.064   8.252   5.498
 1754WAT     H1 5504   0.108   8.338   5.524
 1754WAT     H2 5505  -0.029   8.249   5.535
 1755WAT      O 5506   1.670   6.716   0.627
 1755WAT     H1 5507   1.759   6.700   0.585
 1755WAT     H2 5508   1.606   6.645   0.598
 1756WAT      O 5509   1.273   1.306   6.975
 1756WAT     H1 5510   1.222   1.370   7.033
 1756WAT     H2 5511   1.297   1.351   6.889
 1757WAT      O 5512   2.345   3.304   0.464
 1757WAT     H1 5513   2.312   3.290   0.557
 1757WAT     H2 5514   2.332   3.400   0.438
 1758WAT      O 5515   2.284   8.624   7.040
 1758WAT     H1 5516   2.196   8.578   7.041
 1758WAT     H2 5517   2.270   8.723   7.041
 1759WAT      O 5518   5.291   0.780   8.474
 1759WAT     H1 5519   5.309   0.691   8.431
 1759WAT     H2 5520   5.377   0.820   8.505
 1760WAT      O 5521   0.169   4.595   4.193
 1760WAT     H1 5522   0.122   4.616   4.278
 1760WAT     H2 5523   0.255   4.548   4.213
 1761WAT      O 5524   1.006   0.513   3.601
 1761WAT     H1 5525   1.077   0.490   3.667
 1761WAT     H2 5526   0.988   0.611   3.604
 1762WAT      O 5527   1.175   5.332   8.575
 1762WAT     H1 5528   1.164   5.383   8.489
 1762WAT     H2 5529   1.104   5.262   8.581
 1763WAT      O 5530   1.250   0.125   0.457
 1763WAT     H1 5531   1.180   0.164   0.517
 1763WAT     H2 5532   1.276   0.193   0.388
 1764WAT      O 5533   7.586   3.038   0.443
 1764WAT     H1 5534   7.621   3.129   0.467
 1764WAT     H2 5535   7.496   3.026   0.483
 1765WAT      O 5536   7.252   1.614   7.551
 1765WAT     H1 5537   7.257   1.601   7.452
 1765WAT     H2 5538   7.162   1.650   7.576
 1766WAT      O 5539   1.331   3.345   2.518
 1766WAT     H1 5540   1.242   3.382   2.545
 1766WAT     H2 5541   1.338   3.249   2.546
 1767WAT      O 5542   5.256   3.036   4.405
 1767WAT     H1 5543   5.280   3.014   4.500
 1767WAT     H2 5544   5.218   2.955   4.361
 1768WAT      O 5545   1.944   3.460   0.833
 1768WAT     H1 5546   1.972   3.446   0.739
 1768WAT     H2 5547   1.856   3.508   0.835
 1769WAT      O 5548   2.579   2.644   5.645
 1769WAT     H1 5549   2.585   2.621   5.742
 1769WAT     H2 5550   2.537   2.568   5.595
 1770WAT      O 5551   9.794   3.810   3.199
 1770WAT     H1 5552   9.863   3.879   3.178
 1770WAT     H2 5553   9.770   3.815   3.296
 1771WAT      O 5554   5.638   5.597   9.730
 1771WAT     H1 5555   5.738   5.600   9.736
 1771WAT     H2 5556   5.611   5.524   9.667
 1772WAT      O 5557   3.221   1.838   7.600
 1772WAT     H1 5558   3.289   1.842   7.527
 1772WAT     H2 5559   3.239   1.759   7.659
 1773WAT      O 5560   6.028   6.764   7.476
 1773WAT     H1 5561   6.118   6.758   7.520
 1773WAT     H2 5562   6.036   6.741   7.379
 1774WAT      O 5563   5.031   9.347   8.816
 1774WAT     H1 5564   4.998   9.440   8.801
 1774WAT     H2 5565   5.131   9.344   8.807
 1775WAT      O 5566   9.828   8.135   9.220
 1775WAT     H1 5567   9.818   8.076   9.301
 1775WAT     H2 5568   9.760   8.207   9.223
 1776WAT      O 5569   0.054   0.752   1.326
 1776WAT     H1 5570   0.123   0.802   1.377
 1776WAT     H2 5571   0.091   0.663   1.298
 1777WAT      O 5572   5.675   4.423   0.019
 1777WAT     H1 5573   5.727   4.441  -0.064
 1777WAT     H2 5574   5.674   4.506   0.076
 1778WAT      O 5575   9.183   9.789   0.894
 1778WAT     H1 5576   9.124   9.709   0.880
 1778WAT     H2 5577   9.128   9.872   0.896
 1779WAT      O 5578   6.822   2.725   6.048
 1779WAT     H1 5579   6.886   2.651   6.066
 1779WAT     H2 5580   6.733   2.702   6.087
 1780WAT      O 5581   1.448   8.571   2.741
 1780WAT     H1 5582   1.403   8.544   2.656
 1780WAT     H2 5583   1.530   8.624   2.720
 1781WAT      O 5584   9.481   6.044   3.946
 1781WAT     H1 5585   9.527   5.978   4.005
 1781WAT     H2 5586   9.412   6.093   3.999
 1782WAT      O 5587   8.661   5.733   5.402
 1782WAT     H1 5588   8.755   5.724   5.368
 1782WAT     H2 5589   8.604   5.663   5.360
 1783WAT      O 5590   8.330   1.297   7.887
 1783WAT     H1 5591   8.265   1.358   7.934
 1783WAT     H2 5592   8.359   1.339   7.801
 1784WAT      O 5593   6.668   0.586   3.379
 1784WAT     H1 5594   6.728   0.624   3.308
 1784WAT     H2 5595   6.724   0.550   3.453
 1785WAT      O 5596   2.802   7.340   0.221
 1785WAT     H1 5597   2.864   7.349   0.299
 1785WAT     H2 5598   2.710   7.321   0.254
 1786WAT      O 5599   3.313   3.130   6.233
 1786WAT     H1 5600   3.381   3.063   6.201
 1786WAT     H2 5601   3.269   3.096   6.315
 1787WAT      O 5602   4.059   9.455   9.209
 1787WAT     H1 5603   4.012   9.385   9.263
 1787WAT     H2 5604   4.114   9.411   9.139
 1788WAT      O 5605   4.286   0.744   5.581
 1788WAT     H1 5606   4.357   0.726   5.649
 1788WAT     H2 5607   4.328   0.752   5.491
 1789WAT      O 5608   9.577   5.573   4.704
 1789WAT     H1 5609   9.670   5.564   4.669
 1789WAT     H2 5610   9.547   5.485   4.743
 1790WAT      O 5611   7.131   0.831   3.464
 1790WAT     H1 5612   7.103   0.820   3.559
 1790WAT     H2 5613   7.148   0.741   3.423
 1791WAT      O 5614   1.155   4.467   2.406
 1791WAT     H1 5615   1.245   4.446   2.368
 1791WAT     H2 5616   1.089   4.399   2.375
 1792WAT      O 5617   7.926   8.186   6.507
 1792WAT     H1 5618   7.913   8.246   6.429
 1792WAT     H2 5619   7.853   8.202   6.574
 1793WAT      O 5620   1.035   8.561   7.465
 1793WAT     H1 5621   0.946   8.578   7.508
 1793WAT     H2 5622   1.094   8.511   7.529
 1794WAT      O 5623   1.133   1.553   9.001
 1794WAT     H1 5624   1.201   1.481   9.008
 1794WAT     H2 5625   1.052   1.528   9.054
 1795WAT      O 5626   4.275   1.363   8.088
 1795WAT     H1 5627   4.245   1.439   8.030
 1795WAT     H2 5628   4.233   1.278   8.056
 1796WAT      O 5629   3.131   7.803   5.827
 1796WAT     H1 5630   3.088   7.746   5.898
 1796WAT     H2 5631   3.159   7.746   5.751
 1797WAT      O 5632   9.817   5.002   6.940
 1797WAT     H1 5633   9.772   5.091   6.950
 1797WAT     H2 5634   9.764   4.933   6.990
 1798WAT      O 5635   9.826   6.735   0.478
 1798WAT     H1 5636   9.792   6.649   0.439
 1798WAT     H2 5637   9.756   6.806   0.467
 1799WAT      O 5638   7.901   2.902   6.943
 1799WAT     H1 5639   7.842   2.822   6.959
 1799WAT     H2 5640   7.979   2.899   7.006
 1800WAT      O 5641   8.993   3.280   3.513
 1800WAT     H1 5642   8.908   3.329   3.531
 1800WAT     H2 5643   9.055   3.293   3.590
 1801WAT      O 5644   3.395   1.752   3.133
 1801WAT     H1 5645   3.381   1.841   3.090
 1801WAT     H2 5646   3.466   1.702   3.084
 1802WAT      O 5647   8.724   1.238   0.788
 1802WAT     H1 5648   8.770   1.210   0.704
 1802WAT     H2 5649   8.776   1.311   0.832
 1803WAT      O 5650   4.098   0.562   5.570
 1803WAT     H1 5651   4.174   0.622   5.595
 1803WAT     H2 5652   4.027   0.615   5.524
 1804WAT      O 5653   9.884   9.485   6.134
 1804WAT     H1 5654   9.867   9.557   6.067
 1804WAT     H2 5655   9.901   9.526   6.223
 1805WAT      O 5656   3.473   8.637   1.144
 1805WAT     H1 5657   3.555   8.685   1.175
 1805WAT     H2 5658   3.496   8.540   1.130
 1806WAT      O 5659   2.878   3.588   8.107
 1806WAT     H1 5660   2.900   3.627   8.196
 1806WAT     H2 5661   2.960   3.589   8.049
 1807WAT      O 5662   2.673   2.529   0.825
 1807WAT     H1 5663   2.672   2.528   0.925
 1807WAT     H2 5664   2.641   2.440   0.791
 1808WAT      O 5665   2.543   5.842   0.893
 1808WAT     H1 5666   2.609   5.807   0.959
 1808WAT     H2 5667   2.568   5.811   0.801
 1809WAT      O 5668   0.471   2.296   2.785
 1809WAT     H1 5669   0.468   2.214   2.728
 1809WAT     H2 5670   0.534   2.280   2.862
 1810WAT      O 5671   4.499   7.438   6.057
 1810WAT     H1 5672   4.426   7.502   6.082
 1810WAT     H2 5673   4.587   7.482   6.071
 1811WAT      O 5674   7.581   1.194   1.734
 1811WAT     H1 5675   7.662   1.217   1.679
 1811WAT     H2 5676   7.564   1.096   1.728
 1812WAT      O 5677   6.063   3.758   7.834
 1812WAT     H1 5678   6.051   3.698   7.914
 1812WAT     H2 5679   6.108   3.707   7.761
 1813WAT      O 5680   1.896   1.547   4.333
 1813WAT     H1 5681   1.963   1.480   4.364
 1813WAT     H2 5682   1.873   1.530   4.237
 1814WAT      O 5683   4.801   5.985   1.770
 1814WAT     H1 5684   4.900   5.974   1.778
 1814WAT     H2 5685   4.771   6.059   1.830
 1815WAT      O 5686   8.520   4.154   9.762
 1815WAT     H1 5687   8.509   4.253   9.754
 1815WAT     H2 5688   8.469   4.120   9.841
 1816WAT      O 5689   8.270   1.443   4.082
 1816WAT     H1 5690   8.250   1.532   4.123
 1816WAT     H2 5691   8.308   1.457   3.990
 1817WAT      O 5692   6.566   7.337   7.946
 1817WAT     H1 5693   6.568   7.419   8.003
 1817WAT     H2 5694   6.502   7.271   7.984
 1818WAT      O 5695   6.679   5.692   8.792
 1818WAT     H1 5696   6.698   5.615   8.854
 1818WAT     H2 5697   6.637   5.767   8.843
 1819WAT      O 5698   1.164   9.595   6.179
 1819WAT     H1 5699   1.185   9.597   6.276
 1819WAT     H2 5700   1.209   9.671   6.133
 1820WAT      O 5701   0.367   9.218   1.860
 1820WAT     H1 5702   0.337   9.299   1.811
 1820WAT     H2 5703   0.396   9.243   1.953
 1821WAT      O 5704   5.903   9.397   8.625
 1821WAT     H1 5705   5.989   9.348   8.642
 1821WAT     H2 5706   5.918   9.468   8.558
 1822WAT      O 5707   8.101   5.895   9.667
 1822WAT     H1 5708   8.091   5.800   9.694
 1822WAT     H2 5709   8.026   5.949   9.705
 1823WAT      O 5710   1.405   8.599   3.865
 1823WAT     H1 5711   1.307   8.613   3.861
 1823WAT     H2 5712   1.447   8.670   3.922
 1824WAT      O 5713   7.676   3.202   3.605
 1824WAT     H1 5714   7.692   3.119   3.658
 1824WAT     H2 5715   7.578   3.219   3.597
 1825WAT      O 5716   7.075   4.727   6.426
 1825WAT     H1 5717   7.032   4.638   6.437
 1825WAT     H2 5718   7.065   4.757   6.331
 1826WAT      O 5719   9.719   0.079   3.038
 1826WAT     H1 5720   9.806   0.105   2.995
 1826WAT     H2 5721   9.647   0.140   3.007
 1827WAT      O 5722   1.814   9.492   0.738
 1827WAT     H1 5723   1.728   9.442   0.746
 1827WAT     H2 5724   1.883   9.434   0.695
 1828WAT      O 5725   5.266   3.292   7.202
 1828WAT     H1 5726   5.219   3.380   7.194
 1828WAT     H2 5727   5.261   3.260   7.296
 1829WAT      O 5728   8.520   8.150   5.237
 1829WAT     H1 5729   8.473   8.139   5.324
 1829WAT     H2 5730   8.579   8.231   5.241
 1830WAT      O 5731   5.159   6.627   4.173
 1830WAT     H1 5732   5.164   6.632   4.272
 1830WAT     H2 5733   5.246   6.592   4.137
 1831WAT      O 5734   4.429   5.163   2.794
 1831WAT     H1 5735   4.448   5.231   2.865
 1831WAT     H2 5736   4.503   5.096   2.791
 1832WAT      O 5737   3.093   1.083   7.013
 1832WAT     H1 5738   3.046   1.063   6.927
 1832WAT     H2 5739   3.087   1.004   7.074
 1833WAT      O 5740   9.033   1.148   8.909
 1833WAT     H1 5741   9.098   1.151   8.985
 1833WAT     H2 5742   9.053   1.068   8.851
 1834WAT      O 5743   0.782   7.803   4.453
 1834WAT     H1 5744   0.725   7.852   4.519
 1834WAT     H2 5745   0.773   7.704   4.468
 1835WAT      O 5746   3.387   4.032   7.499
 1835WAT     H1 5747   3.323   4.085   7.441
 1835WAT     H2 5748   3.463   4.001   7.443
 1836WAT      O 5749   7.977   5.838   5.319
 1836WAT     H1 5750   7.939   5.926   5.350
 1836WAT     H2 5751   7.987   5.777   5.397
 1837WAT      O 5752   5.401   9.823   1.126
 1837WAT     H1 5753   5.402   9.725   1.111
 1837WAT     H2 5754   5.336   9.866   1.063
 1838WAT      O 5755   3.921   6.862   5.969
 1838WAT     H1 5756   3.937   6.939   5.908
 1838WAT     H2 5757   3.826   6.832   5.961
 1839WAT      O 5758   3.618   5.219   1.749
 1839WAT     H1 5759   3.679   5.277   1.695
 1839WAT     H2 5760   3.656   5.127   1.756
 1840WAT      O 5761   0.792   0.985   7.439
 1840WAT     H1 5762   0.725   0.967   7.510
 1840WAT     H2 5763   0.750   1.038   7.365
 1841WAT      O 5764   7.785   3.456   3.628
 1841WAT     H1 5765   7.745   3.488   3.541
 1841WAT     H2 5766   7.767   3.359   3.639
 1842WAT      O 5767   7.967   2.366   5.070
 1842WAT     H1 5768   7.979   2.269   5.089
 1842WAT     H2 5769   8.014   2.389   4.984
 1843WAT      O 5770   9.639   6.100   3.050
 1843WAT     H1 5771   9.690   6.029   3.099
 1843WAT     H2 5772   9.690   6.127   2.968
 1844WAT      O 5773   6.562   4.646   0.820
 1844WAT     H1 5774   6.600   4.731   0.855
 1844WAT     H2 5775   6.513   4.663   0.735
 1845WAT      O 5776   1.628   2.330   7.475
 1845WAT     H1 5777   1.649   2.242   7.431
 1845WAT     H2 5778   1.571   2.314   7.555
 1846WAT      O 5779   4.952   8.453   3.586
 1846WAT     H1 5780   5.012   8.379   3.557
 1846WAT     H2 5781   4.906   8.428   3.671
 1847WAT      O 5782   9.498   2.787   6.540
 1847WAT     H1 5783   9.456   2.874   6.564
 1847WAT     H2 5784   9.440   2.738   6.475
 1848WAT      O 5785   5.355   5.981   7.809
 1848WAT     H1 5786   5.284   5.913   7.792
 1848WAT     H2 5787   5.316   6.059   7.859
 1849WAT      O 5788   5.645   7.362   4.484
 1849WAT     H1 5789   5.568   7.305   4.454
 1849WAT     H2 5790   5.731   7.312   4.470
 1850WAT      O 5791   4.160   3.676   2.523
 1850WAT     H1 5792   4.132   3.624   2.443
 1850WAT     H2 5793   4.113   3.641   2.604
 1851WAT      O 5794   3.564   2.197   2.295
 1851WAT     H1 5795   3.475   2.242   2.294
 1851WAT     H2 5796   3.599   2.193   2.389
 1852WAT      O 5797   2.738   0.608   2.061
 1852WAT     H1 5798   2.686   0.558   2.130
 1852WAT     H2 5799   2.813   0.550   2.028
 1853WAT      O 5800   9.445   0.956   6.312
 1853WAT     H1 5801   9.494   0.870   6.323
 1853WAT     H2 5802   9.369   0.944   6.249
 1854WAT      O 5803   2.643   8.730   9.284
 1854WAT     H1 5804   2.721   8.698   9.337
 1854WAT     H2 5805   2.617   8.660   9.217
 1855WAT      O 5806   6.462   9.040   8.435
 1855WAT     H1 5807   6.532   9.012   8.369
 1855WAT     H2 5808   6.372   9.009   8.402
 1856WAT      O 5809   9.092   6.526   7.643
 1856WAT     H1 5810   9.034   6.451   7.673
 1856WAT     H2 5811   9.035   6.606   7.622
 1857WAT      O 5812   1.048   2.235   3.911
 1857WAT     H1 5813   1.004   2.200   3.993
 1857WAT     H2 5814   0.988   2.219   3.832
 1858WAT      O 5815   1.764   9.276   6.088
 1858WAT     H1 5816   1.842   9.313   6.036
 1858WAT     H2 5817   1.771   9.177   6.092
 1859WAT      O 5818   5.279   3.913   5.759
 1859WAT     H1 5819   5.191   3.909   5.807
 1859WAT     H2 5820   5.349   3.951   5.820
 1860WAT      O 5821   3.750   1.036   6.444
 1860WAT     H1 5822   3.848   1.027   6.426
 1860WAT     H2 5823   3.712   0.947   6.469
 1861WAT      O 5824   0.767   6.064   1.473
 1861WAT     H1 5825   0.702   6.052   1.397
 1861WAT     H2 5826   0.838   5.993   1.468
 1862WAT      O 5827   3.289   3.797   6.038
 1862WAT     H1 5828   3.211   3.843   5.996
 1862WAT     H2 5829   3.282   3.698   6.022
 1863WAT      O 5830   6.994   2.531   3.274
 1863WAT     H1 5831   7.017   2.435   3.261
 1863WAT     H2 5832   6.906   2.537   3.323
 1864WAT      O 5833   2.972   5.198   0.869
 1864WAT     H1 5834   2.910   5.254   0.924
 1864WAT     H2 5835   2.921   5.156   0.794
 1865WAT      O 5836   0.830   0.357   1.921
 1865WAT     H1 5837   0.779   0.369   2.006
 1865WAT     H2 5838   0.776   0.392   1.845
 1866WAT      O 5839   0.644   7.159   7.530
 1866WAT     H1 5840   0.628   7.141   7.628
 1866WAT     H2 5841   0.561   7.142   7.479
 1867WAT      O 5842   8.846   2.772   2.972
 1867WAT     H1 5843   8.752   2.778   2.939
 1867WAT     H2 5844   8.845   2.766   3.072
 1868WAT      O 5845   8.043   2.430   8.585
 1868WAT     H1 5846   8.138   2.460   8.574
 1868WAT     H2 5847   8.026   2.410   8.682
 1869WAT      O 5848   3.410   9.754   8.553
 1869WAT     H1 5849   3.469   9.808   8.493
 1869WAT     H2 5850   3.417   9.789   8.647
 1870WAT      O 5851   5.485   8.223   2.616
 1870WAT     H1 5852   5.473   8.162   2.694
 1870WAT     H2 5853   5.458   8.316   2.642
 1871WAT      O 5854   9.235   3.098   7.930
 1871WAT     H1 5855   9.162   3.068   7.869
 1871WAT     H2 5856   9.199   3.114   8.021
 1872WAT      O 5857   5.990   6.254   3.079
 1872WAT     H1 5858   6.023   6.343   3.050
 1872WAT     H2 5859   5.904   6.234   3.032
 1873WAT      O 5860   6.173   9.141   1.259
 1873WAT     H1 5861   6.075   9.122   1.261
 1873WAT     H2 5862   6.208   9.143   1.353
 1874WAT      O 5863   0.685   8.543   7.532
 1874WAT     H1 5864   0.708   8.448   7.554
 1874WAT     H2 5865   0.605   8.572   7.585
 1875WAT      O 5866   3.837   4.069   7.295
 1875WAT     H1 5867   3.785   4.137   7.244
 1875WAT     H2 5868   3.877   4.003   7.231
 1876WAT      O 5869   1.035   2.615   4.868
 1876WAT     H1 5870   0.983   2.531   4.882
 1876WAT     H2 5871   1.006   2.658   4.782
 1877WAT      O 5872   1.425   7.764   0.387
 1877WAT     H1 5873   1.424   7.849   0.439
 1877WAT     H2 5874   1.368   7.695   0.433
 1878WAT      O 5875   1.558   3.855   1.249
 1878WAT     H1 5876   1.533   3.838   1.344
 1878WAT     H2 5877   1.524   3.780   1.192
 1879WAT      O 5878   6.632   5.582   6.293
 1879WAT     H1 5879   6.595   5.634   6.370
 1879WAT     H2 5880   6.658   5.491   6.323
 1880WAT      O 5881   6.781   7.685   4.721
 1880WAT     H1 5882   6.755   7.781   4.728
 1880WAT     H2 5883   6.728   7.641   4.649
 1881WAT      O 5884   3.463   5.386   3.108
 1881WAT     H1 5885   3.531   5.326   3.151
 1881WAT     H2 5886   3.500   5.478   3.102
 1882WAT      O 5887   2.452   7.623   8.863
 1882WAT     H1 5888   2.383   7.624   8.790
 1882WAT     H2 5889   2.416   7.672   8.943
 1883WAT      O 5890   9.818   6.195   9.067
 1883WAT     H1 5891   9.755   6.132   9.022
 1883WAT     H2 5892   9.809   6.286   9.025
 1884WAT      O 5893   7.659   5.584   7.456
 1884WAT     H1 5894   7.677   5.584   7.357
 1884WAT     H2 5895   7.674   5.492   7.492
 1885WAT      O 5896   8.310   0.083   1.005
 1885WAT     H1 5897   8.402   0.114   0.982
 1885WAT     H2 5898   8.243   0.133   0.949
 1886WAT      O 5899   6.776   5.389  -0.001
 1886WAT     H1 5900   6.871   5.418   0.003
 1886WAT     H2 5901   6.726   5.429   0.076
 1887WAT      O 5902   6.812   7.263   3.343
 1887WAT     H1 5903   6.775   7.207   3.417
 1887WAT     H2 5904   6.877   7.329   3.381
 1888WAT      O 5905   3.014   7.773   6.983
 1888WAT     H1 5906   3.050   7.816   7.066
 1888WAT     H2 5907   2.982   7.843   6.920
 1889WAT      O 5908   9.480   0.333   8.631
 1889WAT     H1 5909   9.487   0.386   8.716
 1889WAT     H2 5910   9.414   0.376   8.570
 1890WAT      O 5911   3.596   6.260   4.199
 1890WAT     H1 5912   3.524   6.251   4.268
 1890WAT     H2 5913   3.649   6.343   4.216
 1891WAT      O 5914   2.433   3.776   0.948
 1891WAT     H1 5915   2.473   3.689   0.975
 1891WAT     H2 5916   2.474   3.805   0.861
 1892WAT      O 5917   8.020   6.083   8.594
 1892WAT     H1 5918   7.950   6.147   8.627
 1892WAT     H2 5919   8.101   6.091   8.651
 1893WAT      O 5920   7.900   0.018   6.301
 1893WAT     H1 5921   7.835   0.071   6.356
 1893WAT     H2 5922   7.985   0.005   6.352
 1894WAT      O 5923   8.708   7.974   0.170
 1894WAT     H1 5924   8.666   7.891   0.206
 1894WAT     H2 5925   8.794   7.992   0.219
 1895WAT      O 5926   1.976   6.017   5.943
 1895WAT     H1 5927   2.002   6.042   6.036
 1895WAT     H2 5928   2.057   6.007   5.886
 1896WAT      O 5929   0.146   1.993   2.746
 1896WAT     H1 5930   0.104   1.903   2.758
 1896WAT     H2 5931   0.099   2.059   2.805
 1897WAT      O 5932   9.002   8.340   6.712
 1897WAT     H1 5933   8.993   8.265   6.778
 1897WAT     H2 5934   9.058   8.413   6.752
 1898WAT      O 5935   2.946   5.592   1.093
 1898WAT     H1 5936   3.001   5.594   1.009
 1898WAT     H2 5937   2.914   5.499   1.109
 1899WAT      O 5938   8.596   5.540   7.541
 1899WAT     H1 5939   8.682   5.541   7.489
 1899WAT     H2 5940   8.616   5.523   7.637
 1900WAT      O 5941   9.829   4.175   8.507
 1900WAT     H1 5942   9.749   4.150   8.452
 1900WAT     H2 5943   9.807   4.256   8.561
 1901WAT      O 5944   5.762   7.761   0.510
 1901WAT     H1 5945   5.845   7.709   0.531
 1901WAT     H2 5946   5.716   7.721   0.432
 1902WAT      O 5947   9.094   3.822   5.215
 1902WAT     H1 5948   9.014   3.771   5.184
 1902WAT     H2 5949   9.155   3.840   5.138
 1903WAT      O 5950   0.634   2.061   0.188
 1903WAT     H1 5951   0.553   2.010   0.158
 1903WAT     H2 5952   0.707   2.049   0.121
 1904WAT      O 5953   2.474   7.400   4.520
 1904WAT     H1 5954   2.472   7.432   4.615
 1904WAT     H2 5955   2.511   7.472   4.462
 1905WAT      O 5956   6.917   8.910   9.774
 1905WAT     H1 5957   6.964   8.930   9.688
 1905WAT     H2 5958   6.984   8.884   9.843
 1906WAT      O 5959   8.376   5.109   8.681
 1906WAT     H1 5960   8.291   5.141   8.721
 1906WAT     H2 5961   8.357   5.036   8.615
 1907WAT      O 5962   7.608   7.992   8.381
 1907WAT     H1 5963   7.574   8.059   8.315
 1907WAT     H2 5964   7.677   7.934   8.337
 1908WAT      O 5965   6.369   2.943   7.701
 1908WAT     H1 5966   6.278   2.926   7.664
 1908WAT     H2 5967   6.435   2.946   7.625
 1909WAT      O 5968   0.223   4.663   5.355
 1909WAT     H1 5969   0.185   4.613   5.433
 1909WAT     H2 5970   0.205   4.760   5.366
 1910WAT      O 5971   1.381   5.862   9.543
 1910WAT     H1 5972   1.370   5.954   9.580
 1910WAT     H2 5973   1.439   5.808   9.604
 1911WAT      O 5974   8.361   9.344   6.403
 1911WAT     H1 5975   8.441   9.352   6.343
 1911WAT     H2 5976   8.316   9.433   6.410
 1912WAT      O 5977   3.346   3.438   3.458
 1912WAT     H1 5978   3.294   3.506   3.407
 1912WAT     H2 5979   3.431   3.480   3.491
 1913WAT      O 5980   4.492   0.405   3.992
 1913WAT     H1 5981   4.517   0.326   4.048
 1913WAT     H2 5982   4.393   0.418   3.995
 1914WAT      O 5983   1.178   3.260   9.316
 1914WAT     H1 5984   1.202   3.352   9.347
 1914WAT     H2 5985   1.253   3.223   9.261
 1915WAT      O 5986   4.304   4.736   1.783
 1915WAT     H1 5987   4.394   4.699   1.760
 1915WAT     H2 5988   4.276   4.703   1.873
 1916WAT      O 5989   2.300   1.712   7.643
 1916WAT     H1 5990   2.326   1.792   7.698
 1916WAT     H2 5991   2.381   1.664   7.612
 1917WAT      O 5992   4.038   1.023   2.323
 1917WAT     H1 5993   4.132   1.051   2.305
 1917WAT     H2 5994   4.023   1.017   2.421
 1918WAT      O 5995   5.873   0.704   2.096
 1918WAT     H1 5996   5.804   0.634   2.076
 1918WAT     H2 5997   5.839   0.794   2.066
 1919WAT      O 5998   8.084   7.278   2.639
 1919WAT     H1 5999   8.021   7.356   2.636
 1919WAT     H2 6000   8.122   7.270   2.731
 1920WAT      O 6001   2.679   1.559   5.438
 1920WAT     H1 6002   2.687   1.638   5.498
 1920WAT     H2 6003   2.651   1.590   5.346
 1921WAT      O 6004   3.092   6.304   9.431
 1921WAT     H1 6005   3.181   6.349   9.436
 1921WAT     H2 6006   3.106   6.206   9.416
 1922WAT      O 6007   8.682   0.254   9.754
 1922WAT     H1 6008   8.761   0.237   9.694
 1922WAT     H2 6009   8.678   0.352   9.774
 1923WAT      O 6010   3.521   7.133   9.671
 1923WAT     H1 6011   3.503   7.173   9.581
 1923WAT     H2 6012   3.601   7.178   9.711
 1924WAT      O 6013   5.157   0.420   5.081
 1924WAT     H1 6014   5.165   0.328   5.120
 1924WAT     H2 6015   5.092   0.473   5.135
 1925WAT      O 6016   7.954   6.125   6.205
 1925WAT     H1 6017   7.974   6.028   6.186
 1925WAT     H2 6018   7.912   6.166   6.124
 1926WAT      O 6019   4.049   5.234   2.617
 1926WAT     H1 6020   4.009   5.146   2.592
 1926WAT     H2 6021   4.147   5.232   2.598
 1927WAT      O 6022   8.377   9.107   9.304
 1927WAT     H1 6023   8.335   9.037   9.361
 1927WAT     H2 6024   8.327   9.193   9.313
 1928WAT      O 6025   3.936   3.159   6.817
 1928WAT     H1 6026   3.881   3.076   6.811
 1928WAT     H2 6027   3.973   3.180   6.726
 1929WAT      O 6028   9.617   1.700   2.493
 1929WAT     H1 6029   9.680   1.626   2.516
 1929WAT     H2 6030   9.578   1.683   2.403
 1930WAT      O 6031   7.749   8.116   7.928
 1930WAT     H1 6032   7.790   8.185   7.987
 1930WAT     H2 6033   7.820   8.052   7.897
 1931WAT      O 6034   2.863   8.288   6.279
 1931WAT     H1 6035   2.927   8.355   6.316
 1931WAT     H2 6036   2.771   8.308   6.313
 1932WAT      O 6037   5.895   6.847   4.880
 1932WAT     H1 6038   5.949   6.868   4.798
 1932WAT     H2 6039   5.902   6.922   4.945
 1933WAT      O 6040   6.835   6.763   2.399
 1933WAT     H1 6041   6.804   6.671   2.376
 1933WAT     H2 6042   6.918   6.784   2.346
 1934WAT      O 6043   0.016   5.976   3.795
 1934WAT     H1 6044   0.035   5.878   3.800
 1934WAT     H2 6045  -0.063   5.992   3.736
 1935WAT      O 6046   3.421   5.111   9.798
 1935WAT     H1 6047   3.333   5.142   9.761
 1935WAT     H2 6048   3.494   5.133   9.734
 1936WAT      O 6049   1.249   9.009   7.780
 1936WAT     H1 6050   1.230   9.078   7.710
 1936WAT     H2 6051   1.328   9.037   7.835
 1937WAT      O 6052   5.186   2.136   8.413
 1937WAT     H1 6053   5.223   2.157   8.322
 1937WAT     H2 6054   5.187   2.218   8.469
 1938WAT      O 6055   4.945   7.808   3.442
 1938WAT     H1 6056   4.930   7.797   3.344
 1938WAT     H2 6057   4.997   7.893   3.458
 1939WAT      O 6058   8.810   2.506   3.626
 1939WAT     H1 6059   8.893   2.556   3.649
 1939WAT     H2 6060   8.749   2.566   3.574
 1940WAT      O 6061   9.472   5.969   0.202
 1940WAT     H1 6062   9.534   6.047   0.213
 1940WAT     H2 6063   9.506   5.892   0.254
 1941WAT      O 6064   0.716   9.366   8.974
 1941WAT     H1 6065   0.630   9.414   8.992
 1941WAT     H2 6066   0.780   9.428   8.930
 1942WAT      O 6067   0.867   9.178   9.750
 1942WAT     H1 6068   0.812   9.261   9.738
 1942WAT     H2 6069   0.946   9.198   9.807
 1943WAT      O 6070   3.800   8.856   9.556
 1943WAT     H1 6071   3.851   8.834   9.473
 1943WAT     H2 6072   3.760   8.773   9.594
 1944WAT      O 6073   3.065   4.944   0.227
 1944WAT     H1 6074   3.083   4.854   0.266
 1944WAT     H2 6075   3.151   4.987   0.200
 1945WAT      O 6076   0.113   9.364   0.164
 1945WAT     H1 6077   0.094   9.459   0.137
 1945WAT     H2 6078   0.167   9.320   0.093
 1946WAT      O 6079   1.625   1.313   8.444
 1946WAT     H1 6080   1.698   1.271   8.390
 1946WAT     H2 6081   1.654   1.321   8.540
 1947WAT      O 6082   4.240   8.781   7.111
 1947WAT     H1 6083   4.154   8.795   7.063
 1947WAT     H2 6084   4.311   8.755   7.046
 1948WAT      O 6085   4.819   1.863   7.053
 1948WAT     H1 6086   4.907   1.909   7.063
 1948WAT     H2 6087   4.834   1.770   7.019
 1949WAT      O 6088   3.613   4.277   2.685
 1949WAT     H1 6089   3.517   4.285   2.712
 1949WAT     H2 6090   3.644   4.363   2.644
 1950WAT      O 6091   4.793   5.045   1.892
 1950WAT     H1 6092   4.760   4.969   1.836
 1950WAT     H2 6093   4.716   5.088   1.939
 1951WAT      O 6094   4.959   4.963   5.990
 1951WAT     H1 6095   4.919   5.042   6.037
 1951WAT     H2 6096   4.968   4.983   5.893
 1952WAT      O 6097   0.711   5.650   6.244
 1952WAT     H1 6098   0.736   5.682   6.335
 1952WAT     H2 6099   0.754   5.562   6.226
 1953WAT      O 6100   3.920   7.859   3.631
 1953WAT     H1 6101   3.991   7.894   3.692
 1953WAT     H2 6102   3.885   7.933   3.574
 1954WAT      O 6103   2.337   9.349   3.846
 1954WAT     H1 6104   2.389   9.279   3.895
 1954WAT     H2 6105   2.382   9.438   3.856
 1955WAT      O 6106   6.573   4.889   8.023
 1955WAT     H1 6107   6.589   4.948   7.945
 1955WAT     H2 6108   6.514   4.812   7.996
 1956WAT      O 6109   2.302   4.057   6.674
 1956WAT     H1 6110   2.261   4.054   6.583
 1956WAT     H2 6111   2.236   4.024   6.741
 1957WAT      O 6112   0.075   6.384   1.299
 1957WAT     H1 6113   0.087   6.304   1.239
 1957WAT     H2 6114   0.083   6.467   1.244
 1958WAT      O 6115   4.835   0.073   8.896
 1958WAT     H1 6116   4.873   0.149   8.948
 1958WAT     H2 6117   4.761   0.030   8.948
 1959WAT      O 6118   5.137   1.301   9.685
 1959WAT     H1 6119   5.054   1.303   9.742
 1959WAT     H2 6120   5.166   1.207   9.671
 1960WAT      O 6121   0.614   0.357   2.455
 1960WAT     H1 6122   0.597   0.443   2.408
 1960WAT     H2 6123   0.680   0.303   2.404
 1961WAT      O 6124   0.435   3.326   8.461
 1961WAT     H1 6125   0.339   3.301   8.463
 1961WAT     H2 6126   0.486   3.269   8.526
 1962WAT      O 6127   9.550   9.831   8.096
 1962WAT     H1 6128   9.562   9.856   8.000
 1962WAT     H2 6129   9.603   9.749   8.116
 1963WAT      O 6130   3.516   7.344   2.589
 1963WAT     H1 6131   3.554   7.300   2.509
 1963WAT     H2 6132   3.589   7.370   2.651
 1964WAT      O 6133   9.350   2.845   0.075
 1964WAT     H1 6134   9.315   2.824  -0.016
 1964WAT     H2 6135   9.312   2.932   0.106
 1965WAT      O 6136   7.420   1.436   0.606
 1965WAT     H1 6137   7.451   1.392   0.690
 1965WAT     H2 6138   7.414   1.535   0.620
 1966WAT      O 6139   8.700   4.465   2.064
 1966WAT     H1 6140   8.681   4.385   2.006
 1966WAT     H2 6141   8.652   4.544   2.027
 1967WAT      O 6142   1.709   8.147   5.888
 1967WAT     H1 6143   1.737   8.193   5.804
 1967WAT     H2 6144   1.750   8.055   5.891
 1968WAT      O 6145   5.703   1.472   9.548
 1968WAT     H1 6146   5.622   1.435   9.503
 1968WAT     H2 6147   5.710   1.570   9.529
 1969WAT      O 6148   0.352   3.671   5.794
 1969WAT     H1 6149   0.282   3.599   5.800
 1969WAT     H2 6150   0.308   3.760   5.798
 1970WAT      O 6151   8.199   4.098   9.333
 1970WAT     H1 6152   8.274   4.081   9.396
 1970WAT     H2 6153   8.176   4.196   9.334
 1971WAT      O 6154   9.094   2.104   3.347
 1971WAT     H1 6155   9.141   2.157   3.418
 1971WAT     H2 6156   9.157   2.038   3.308
 1972WAT      O 6157   5.490   5.694   0.897
 1972WAT     H1 6158   5.391   5.707   0.901
 1972WAT     H2 6159   5.511   5.596   0.905
 1973WAT      O 6160   5.849   4.713   8.273
 1973WAT     H1 6161   5.946   4.739   8.275
 1973WAT     H2 6162   5.836   4.639   8.207
 1974WAT      O 6163   1.805   5.751   3.611
 1974WAT     H1 6164   1.772   5.684   3.545
 1974WAT     H2 6165   1.789   5.717   3.704
 1975WAT      O 6166   6.502   3.867   9.412
 1975WAT     H1 6167   6.551   3.874   9.499
 1975WAT     H2 6168   6.405   3.852   9.429
 1976WAT      O 6169   1.853   1.731   7.956
 1976WAT     H1 6170   1.857   1.829   7.976
 1976WAT     H2 6171   1.804   1.684   8.029
 1977WAT      O 6172   0.500   1.675   1.639
 1977WAT     H1 6173   0.497   1.669   1.738
 1977WAT     H2 6174   0.491   1.771   1.611
 1978WAT      O 6175   6.680   7.479   6.928
 1978WAT     H1 6176   6.656   7.466   7.024
 1978WAT     H2 6177   6.637   7.562   6.893
 1979WAT      O 6178   3.569   5.575   7.016
 1979WAT     H1 6179   3.522   5.644   6.961
 1979WAT     H2 6180   3.525   5.487   7.003
 1980WAT      O 6181   4.590   6.829   1.891
 1980WAT     H1 6182   4.626   6.847   1.983
 1980WAT     H2 6183   4.494   6.858   1.887
 1981WAT      O 6184   7.362   0.287   0.242
 1981WAT     H1 6185   7.284   0.308   0.302
 1981WAT     H2 6186   7.376   0.188   0.240
 1982WAT      O 6187   1.023   8.860   7.838
 1982WAT     H1 6188   1.007   8.846   7.935
 1982WAT     H2 6189   1.096   8.927   7.826
 1983WAT      O 6190   7.436   7.337   1.364
 1983WAT     H1 6191   7.482   7.400   1.427
 1983WAT     H2 6192   7.396   7.262   1.417
 1984WAT      O 6193   0.481   8.793   9.648
 1984WAT     H1 6194   0.412   8.866   9.645
 1984WAT     H2 6195   0.558   8.818   9.590
 1985WAT      O 6196   3.534   7.242   8.206
 1985WAT     H1 6197   3.576   7.151   8.206
 1985WAT     H2 6198   3.435   7.232   8.205
 1986WAT      O 6199   7.412   3.383   5.698
 1986WAT     H1 6200   7.402   3.298   5.647
 1986WAT     H2 6201   7.474   3.444   5.650
 1987WAT      O 6202   8.306   0.688   9.287
 1987WAT     H1 6203   8.341   0.644   9.370
 1987WAT     H2 6204   8.222   0.738   9.309
 1988WAT      O 6205   0.025   8.497   7.714
 1988WAT     H1 6206   0.069   8.447   7.788
 1988WAT     H2 6207   0.093   8.521   7.645
 1989WAT      O 6208   8.446  -0.002   0.215
 1989WAT     H1 6209   8.359  -0.020   0.262
 1989WAT     H2 6210   8.462   0.097   0.212
 1990WAT      O 6211   6.677   0.522   7.206
 1990WAT     H1 6212   6.681   0.435   7.157
 1990WAT     H2 6213   6.606   0.580   7.165
 1991WAT      O 6214   3.489   9.225   3.878
 1991WAT     H1 6215   3.455   9.133   3.894
 1991WAT     H2 6216   3.518   9.265   3.965
 1992WAT      O 6217   0.075   7.143   7.437
 1992WAT     H1 6218   0.073   7.242   7.452
 1992WAT     H2 6219   0.170   7.110   7.443
 1993WAT      O 6220   8.700   3.961   4.645
 1993WAT     H1 6221   8.730   3.882   4.699
 1993WAT     H2 6222   8.741   4.044   4.682
 1994WAT      O 6223   1.593   2.526   3.822
 1994WAT     H1 6224   1.521   2.462   3.796
 1994WAT     H2 6225   1.674   2.509   3.766
 1995WAT      O 6226   5.840   0.173   9.760
 1995WAT     H1 6227   5.820   0.271   9.768
 1995WAT     H2 6228   5.754   0.124   9.746
 1996WAT      O 6229   5.551   7.442   1.882
 1996WAT     H1 6230   5.471   7.502   1.875
 1996WAT     H2 6231   5.634   7.496   1.869
 1997WAT      O 6232   8.263   5.711   2.063
 1997WAT     H1 6233   8.251   5.622   2.020
 1997WAT     H2 6234   8.207   5.779   2.016
 1998WAT      O 6235   6.540   8.753   2.892
 1998WAT     H1 6236   6.625   8.792   2.928
 1998WAT     H2 6237   6.540   8.654   2.905
 1999WAT      O 6238   2.108   9.681   6.660
 1999WAT     H1 6239   2.066   9.679   6.569
 1999WAT     H2 6240   2.050   9.734   6.722
 2000WAT      O 6241   8.083   0.620   9.464
 2000WAT     H1 6242   8.133   0.540   9.429
 2000WAT     H2 6243   8.110   0.637   9.558
 2001WAT      O 6244   1.483   5.029   0.134
 2001WAT     H1 6245   1.440   5.084   0.206
 2001WAT     H2 6246   1.457   4.933   0.146
 2002WAT      O 6247   9.102   6.274   2.140
 2002WAT     H1 6248   9.038   6.315   2.205
 2002WAT     H2 6249   9.192   6.316   2.151
 2003WAT      O 6250   1.319   7.465   9.276
 2003WAT     H1 6251   1.338   7.558   9.244
 2003WAT     H2 6252   1.340   7.399   9.203
 2004WAT      O 6253   6.570   3.920   5.760
 2004WAT     H1 6254   6.554   3.932   5.663
 2004WAT     H2 6255   6.611   4.003   5.798
 2005WAT      O 6256   1.479   5.682   5.094
 2005WAT     H1 6257   1.410   5.612   5.075
 2005WAT     H2 6258   1.467   5.717   5.187
 2006WAT      O 6259   8.794   0.886   0.327
 2006WAT     H1 6260   8.767   0.955   0.395
 2006WAT     H2 6261   8.738   0.805   0.338
 2007WAT      O 6262   0.853   8.819   0.554
 2007WAT     H1 6263   0.925   8.825   0.623
 2007WAT     H2 6264   0.818   8.725   0.551
 2008WAT      O 6265   7.193   0.780   6.762
 2008WAT     H1 6266   7.214   0.832   6.679
 2008WAT     H2 6267   7.254   0.701   6.768
 2009WAT      O 6268   0.097   4.453   7.775
 2009WAT     H1 6269   0.143   4.381   7.724
 2009WAT     H2 6270   0.009   4.419   7.809
 2010WAT      O 6271   2.377   8.331   0.900
 2010WAT     H1 6272   2.322   8.381   0.834
 2010WAT     H2 6273   2.471   8.366   0.899
 2011WAT      O 6274   2.450   0.982   3.299
 2011WAT     H1 6275   2.494   1.055   3.248
 2011WAT     H2 6276   2.353   0.978   3.275
 2012WAT      O 6277   9.544   0.562   2.241
 2012WAT     H1 6278   9.513   0.525   2.153
 2012WAT     H2 6279   9.467   0.606   2.288
 2013WAT      O 6280   4.746   8.403   6.893
 2013WAT     H1 6281   4.685   8.389   6.971
 2013WAT     H2 6282   4.837   8.366   6.914
 2014WAT      O 6283   9.634   7.874   0.985
 2014WAT     H1 6284   9.724   7.913   0.965
 2014WAT     H2 6285   9.637   7.831   1.076
 2015WAT      O 6286   3.484   9.230   7.681
 2015WAT     H1 6287   3.471   9.161   7.609
 2015WAT     H2 6288   3.402   9.235   7.738
 2016WAT      O 6289   4.468   9.276   2.727
 2016WAT     H1 6290   4.527   9.204   2.692
 2016WAT     H2 6291   4.442   9.255   2.822
 2017WAT      O 6292   4.672   8.825   6.720
 2017WAT     H1 6293   4.653   8.759   6.793
 2017WAT     H2 6294   4.741   8.787   6.658
 2018WAT      O 6295   7.115   7.051   2.438
 2018WAT     H1 6296   7.069   7.020   2.520
 2018WAT     H2 6297   7.157   6.972   2.392
 2019WAT      O 6298   1.757   3.574   2.476
 2019WAT     H1 6299   1.703   3.656   2.463
 2019WAT     H2 6300   1.696   3.496   2.491
 2020WAT      O 6301   8.937   6.732   8.330
 2020WAT     H1 6302   9.014   6.760   8.386
 2020WAT     H2 6303   8.936   6.632   8.323
 2021WAT      O 6304   3.988   0.940   7.859
 2021WAT     H1 6305   3.911   0.980   7.809
 2021WAT     H2 6306   3.959   0.852   7.898
 2022WAT      O 6307   5.245   3.132   9.327
 2022WAT     H1 6308   5.245   3.057   9.262
 2022WAT     H2 6309   5.189   3.108   9.406
 2023WAT      O 6310   4.965   2.676   7.685
 2023WAT     H1 6311   4.928   2.682   7.778
 2023WAT     H2 6312   5.015   2.760   7.664
 2024WAT      O 6313   1.106   0.224   4.163
 2024WAT     H1 6314   1.144   0.191   4.249
 2024WAT     H2 6315   1.016   0.184   4.149
 2025WAT      O 6316   4.119   1.037   7.256
 2025WAT     H1 6317   4.127   1.027   7.355
 2025WAT     H2 6318   4.069   0.959   7.219
 2026WAT      O 6319   2.335   8.620   1.143
 2026WAT     H1 6320   2.260   8.562   1.112
 2026WAT     H2 6321   2.298   8.693   1.201
 2027WAT      O 6322   8.281   7.525   4.078
 2027WAT     H1 6323   8.217   7.525   4.154
 2027WAT     H2 6324   8.277   7.614   4.031
 2028WAT      O 6325   4.376   8.406   2.532
 2028WAT     H1 6326   4.383   8.379   2.436
 2028WAT     H2 6327   4.447   8.473   2.553
 2029WAT      O 6328   3.856   1.987   2.159
 2029WAT     H1 6329   3.878   1.901   2.113
 2029WAT     H2 6330   3.836   2.057   2.091
 2030WAT      O 6331   9.744   8.867   2.866
 2030WAT     H1 6332   9.656   8.865   2.819
 2030WAT     H2 6333   9.744   8.798   2.939
 2031WAT      O 6334   5.657   6.551   2.984
 2031WAT     H1 6335   5.728   6.623   2.979
 2031WAT     H2 6336   5.570   6.593   3.007
 2032WAT      O 6337   3.465   1.993   6.691
 2032WAT     H1 6338   3.386   2.014   6.748
 2032WAT     H2 6339   3.449   1.907   6.642
 2033WAT      O 6340   6.750   0.036   9.167
 2033WAT     H1 6341   6.660   0.068   9.138
 2033WAT     H2 6342   6.799  -0.000   9.088
 2034WAT      O 6343   4.416   4.991   9.160
 2034WAT     H1 6344   4.468   4.906   9.161
 2034WAT     H2 6345   4.476   5.066   9.132
 2035WAT      O 6346   3.179   0.553   0.242
 2035WAT     H1 6347   3.255   0.603   0.282
 2035WAT     H2 6348   3.096   0.608   0.246
 2036WAT      O 6349   2.998   6.527   6.502
 2036WAT     H1 6350   3.070   6.459   6.492
 2036WAT     H2 6351   2.970   6.531   6.598
 2037WAT      O 6352   0.652   1.460   4.172
 2037WAT     H1 6353   0.683   1.369   4.199
 2037WAT     H2 6354   0.557   1.456   4.140
 2038WAT      O 6355   7.497   4.552   2.103
 2038WAT     H1 6356   7.473   4.615   2.177
 2038WAT     H2 6357   7.572   4.591   2.049
 2039WAT      O 6358   0.835   4.100   8.572
 2039WAT     H1 6359   0.907   4.054   8.521
 2039WAT     H2 6360   0.795   4.036   8.639
 2040WAT      O 6361   5.073   4.920   6.639
 2040WAT     H1 6362   5.153   4.875   6.599
 2040WAT     H2 6363   5.023   4.969   6.567
 2041WAT      O 6364   4.499   1.360   6.531
 2041WAT     H1 6365   4.426   1.298   6.501
 2041WAT     H2 6366   4.578   1.351   6.470
 2042WAT      O 6367   4.122   9.711   2.040
 2042WAT     H1 6368   4.207   9.715   1.988
 2042WAT     H2 6369   4.074   9.626   2.019
 2043WAT      O 6370   0.575   5.421   8.667
 2043WAT     H1 6371   0.551   5.518   8.655
 2043WAT     H2 6372   0.599   5.404   8.762
 2044WAT      O 6373   5.833   5.044   4.923
 2044WAT     H1 6374   5.903   5.008   4.985
 2044WAT     H2 6375   5.770   5.101   4.975
 2045WAT      O 6376   2.042   3.404   0.138
 2045WAT     H1 6377   2.085   3.459   0.209
 2045WAT     H2 6378   2.097   3.409   0.054
 2046WAT      O 6379   1.790   7.147   9.044
 2046WAT     H1 6380   1.788   7.076   9.114
 2046WAT     H2 6381   1.816   7.106   8.956
 2047WAT      O 6382   6.256   0.253   3.909
 2047WAT     H1 6383   6.303   0.316   3.847
 2047WAT     H2 6384   6.321   0.219   3.977
 2048WAT      O 6385   4.222   7.630   0.470
 2048WAT     H1 6386   4.201   7.622   0.567
 2048WAT     H2 6387   4.316   7.665   0.459
 2049WAT      O 6388   2.782   3.959   0.788
 2049WAT     H1 6389   2.786   4.057   0.807
 2049WAT     H2 6390   2.871   3.928   0.754
 2050WAT      O 6391   1.478   5.001   6.484
 2050WAT     H1 6392   1.476   5.066   6.560
 2050WAT     H2 6393   1.553   4.936   6.497
 2051WAT      O 6394   3.921   2.545   5.242
 2051WAT     H1 6395   3.960   2.519   5.154
 2051WAT     H2 6396   3.986   2.604   5.291
 2052WAT      O 6397   5.742   8.073   2.188
 2052WAT     H1 6398   5.677   8.009   2.149
 2052WAT     H2 6399   5.713   8.099   2.280
 2053WAT      O 6400   7.285   7.852   2.159
 2053WAT     H1 6401   7.206   7.909   2.182
 2053WAT     H2 6402   7.255   7.775   2.103
 2054WAT      O 6403   4.090   0.706   8.287
 2054WAT     H1 6404   4.073   0.628   8.346
 2054WAT     H2 6405   4.003   0.752   8.266
 2055WAT      O 6406   3.209   4.163   6.288
 2055WAT     H1 6407   3.152   4.083   6.270
 2055WAT     H2 6408   3.300   4.133   6.316
 2056WAT      O 6409   5.654   3.531   1.934
 2056WAT     H1 6410   5.701   3.540   1.847
 2056WAT     H2 6411   5.695   3.592   2.001
 2057WAT      O 6412   8.036   0.176   1.758
 2057WAT     H1 6413   8.133   0.195   1.746
 2057WAT     H2 6414   7.982   0.254   1.726
 2058WAT      O 6415   5.402   3.767   1.874
 2058WAT     H1 6416   5.459   3.708   1.817
 2058WAT     H2 6417   5.327   3.714   1.913
 2059WAT      O 6418   3.713   8.499   4.872
 2059WAT     H1 6419   3.683   8.573   4.932
 2059WAT     H2 6420   3.798   8.460   4.906
 2060WAT      O 6421   6.164   5.489   0.926
 2060WAT     H1 6422   6.216   5.555   0.980
 2060WAT     H2 6423   6.225   5.418   0.893
 2061WAT      O 6424   4.236   8.513   4.194
 2061WAT     H1 6425   4.275   8.458   4.120
 2061WAT     H2 6426   4.296   8.507   4.274
 2062WAT      O 6427   7.818   9.531   0.227
 2062WAT     H1 6428   7.813   9.460   0.156
 2062WAT     H2 6429   7.779   9.496   0.312
 2063WAT      O 6430   9.347   8.255   7.743
 2063WAT     H1 6431   9.373   8.255   7.646
 2063WAT     H2 6432   9.396   8.328   7.790
 2064WAT      O 6433   1.464   3.549   7.120
 2064WAT     H1 6434   1.424   3.608   7.049
 2064WAT     H2 6435   1.562   3.569   7.128
 2065WAT      O 6436   3.669   4.209   6.203
 2065WAT     H1 6437   3.630   4.242   6.118
 2065WAT     H2 6438   3.728   4.280   6.243
 2066WAT      O 6439   2.471   2.391   8.324
 2066WAT     H1 6440   2.550   2.422   8.271
 2066WAT     H2 6441   2.498   2.313   8.381
 2067WAT      O 6442   9.148   5.630   3.277
 2067WAT     H1 6443   9.247   5.639   3.294
 2067WAT     H2 6444   9.127   5.669   3.188
 2068WAT      O 6445   9.365   7.523   2.520
 2068WAT     H1 6446   9.403   7.607   2.482
 2068WAT     H2 6447   9.297   7.546   2.590
 2069WAT      O 6448   1.391   6.835   0.327
 2069WAT     H1 6449   1.318   6.834   0.258
 2069WAT     H2 6450   1.360   6.889   0.406
 2070WAT      O 6451   2.897   8.968   0.520
 2070WAT     H1 6452   2.947   8.929   0.442
 2070WAT     H2 6453   2.860   8.894   0.576
 2071WAT      O 6454   6.976   0.343   9.649
 2071WAT     H1 6455   6.907   0.328   9.720
 2071WAT     H2 6456   7.045   0.407   9.683
 2072WAT      O 6457   7.811   9.169   0.202
 2072WAT     H1 6458   7.847   9.213   0.120
 2072WAT     H2 6459   7.835   9.224   0.282
 2073WAT      O 6460   1.168   0.588   8.955
 2073WAT     H1 6461   1.170   0.609   9.053
 2073WAT     H2 6462   1.244   0.526   8.933
 2074WAT      O 6463   6.005   1.604   2.927
 2074WAT     H1 6464   5.913   1.640   2.947
 2074WAT     H2 6465   6.036   1.547   3.003
 2075WAT      O 6466   4.076   0.066   5.717
 2075WAT     H1 6467   4.060   0.057   5.619
 2075WAT     H2 6468   4.043   0.155   5.748
 2076WAT      O 6469   1.512   8.949   0.414
 2076WAT     H1 6470   1.433   9.010   0.416
 2076WAT     H2 6471   1.574   8.978   0.341
 2077WAT      O 6472   5.424   8.780   2.920
 2077WAT     H1 6473   5.336   8.762   2.874
 2077WAT     H2 6474   5.436   8.879   2.930
 2078WAT      O 6475   4.078   6.284   3.897
 2078WAT     H1 6476   4.038   6.280   3.988
 2078WAT     H2 6477   4.007   6.305   3.830
 2079WAT      O 6478   2.796   8.155   4.649
 2079WAT     H1 6479   2.726   8.207   4.598
 2079WAT     H2 6480   2.883   8.162   4.600
 2080WAT      O 6481   6.853   5.276   8.568
 2080WAT     H1 6482   6.834   5.183   8.537
 2080WAT     H2 6483   6.833   5.283   8.666
 2081WAT      O 6484   2.352   2.235   4.045
 2081WAT     H1 6485   2.451   2.225   4.049
 2081WAT     H2 6486   2.315   2.171   3.977
 2082WAT      O 6487   6.020   8.590   7.774
 2082WAT     H1 6488   6.060   8.601   7.865
 2082WAT     H2 6489   6.057   8.509   7.731
 2083WAT      O 6490   2.695   3.767   7.913
 2083WAT     H1 6491   2.668   3.832   7.983
 2083WAT     H2 6492   2.774   3.714   7.945
 2084WAT      O 6493   2.743   0.993   1.673
 2084WAT     H1 6494   2.811   0.920   1.662
 2084WAT     H2 6495   2.746   1.028   1.766
 2085WAT      O 6496   2.972   1.768   1.834
 2085WAT     H1 6497   3.070   1.754   1.821
 2085WAT     H2 6498   2.934   1.692   1.887
 2086WAT      O 6499   3.581   3.225   8.176
 2086WAT     H1 6500   3.493   3.273   8.178
 2086WAT     H2 6501   3.654   3.289   8.197
 2087WAT      O 6502   5.926   9.599   3.321
 2087WAT     H1 6503   6.019   9.606   3.283
 2087WAT     H2 6504   5.931   9.561   3.413
 2088WAT      O 6505   2.508   6.263   0.983
 2088WAT     H1 6506   2.584   6.295   1.040
 2088WAT     H2 6507   2.481   6.337   0.921
 2089WAT      O 6508   5.482   4.575   8.602
 2089WAT     H1 6509   5.438   4.626   8.529
 2089WAT     H2 6510   5.413   4.529   8.657
 2090WAT      O 6511   9.280   5.839   0.013
 2090WAT     H1 6512   9.367   5.874   0.049
 2090WAT     H2 6513   9.296   5.794  -0.075
 2091WAT      O 6514   6.018   2.439   5.118
 2091WAT     H1 6515   5.967   2.380   5.180
 2091WAT     H2 6516   5.987   2.423   5.024
 2092WAT      O 6517   7.412   6.485   6.893
 2092WAT     H1 6518   7.372   6.479   6.801
 2092WAT     H2 6519   7.475   6.409   6.906
 2093WAT      O 6520   0.195   5.307   3.550
 2093WAT     H1 6521   0.141   5.390   3.533
 2093WAT     H2 6522   0.134   5.228   3.558
 2094WAT      O 6523   8.797   0.575   8.236
 2094WAT     H1 6524   8.799   0.660   8.183
 2094WAT     H2 6525   8.862   0.581   8.312
 2095WAT      O 6526   0.471   2.418   2.093
 2095WAT     H1 6527   0.567   2.420   2.123
 2095WAT     H2 6528   0.456   2.338   2.035
 2096WAT      O 6529   4.327   5.053   5.794
 2096WAT     H1 6530   4.412   5.002   5.807
 2096WAT     H2 6531   4.254   4.990   5.767
 2097WAT      O 6532   4.155   5.341   4.052
 2097WAT     H1 6533   4.162   5.400   4.132
 2097WAT     H2 6534   4.197   5.253   4.072
 2098WAT      O 6535   0.387   8.376   9.809
 2098WAT     H1 6536   0.451   8.389   9.733
 2098WAT     H2 6537   0.438   8.358   9.893
 2099WAT      O 6538   3.209   7.842   2.084
 2099WAT     H1 6539   3.217   7.813   2.179
 2099WAT     H2 6540   3.261   7.926   2.070
 2100WAT      O 6541   7.419   8.290   7.836
 2100WAT     H1 6542   7.469   8.377   7.845
 2100WAT     H2 6543   7.466   8.231   7.770
 2101WAT      O 6544   8.630   8.226   6.917
 2101WAT     H1 6545   8.593   8.243   7.008
 2101WAT     H2 6546   8.559   8.187   6.859
 2102WAT      O 6547   8.866   7.810   4.953
 2102WAT     H1 6548   8.881   7.746   5.029
 2102WAT     H2 6549   8.777   7.855   4.965
 2103WAT      O 6550   1.320   6.975   0.617
 2103WAT     H1 6551   1.372   7.054   0.586
 2103WAT     H2 6552   1.379   6.913   0.668
 2104WAT      O 6553   8.244   9.638   8.835
 2104WAT     H1 6554   8.145   9.635   8.822
 2104WAT     H2 6555   8.288   9.666   8.749
 2105WAT      O 6556   6.269   8.728   3.685
 2105WAT     H1 6557   6.360   8.722   3.645
 2105WAT     H2 6558   6.226   8.637   3.683
 2106WAT      O 6559   1.993   0.431   3.944
 2106WAT     H1 6560   1.974   0.496   4.018
 2106WAT     H2 6561   1.930   0.447   3.868
 2107WAT      O 6562   0.832   6.267   8.195
 2107WAT     H1 6563   0.876   6.220   8.272
 2107WAT     H2 6564   0.866   6.361   8.189
 2108WAT      O 6565   1.006   2.917   8.083
 2108WAT     H1 6566   1.021   2.923   8.182
 2108WAT     H2 6567   0.908   2.919   8.064
 2109WAT      O 6568   1.129   1.495   8.445
 2109WAT     H1 6569   1.177   1.407   8.434
 2109WAT     H2 6570   1.099   1.504   8.539
 2110WAT      O 6571   7.154   6.148   4.575
 2110WAT     H1 6572   7.180   6.182   4.485
 2110WAT     H2 6573   7.057   6.167   4.590
 2111WAT      O 6574   6.945   2.828   2.929
 2111WAT     H1 6575   6.966   2.730   2.924
 2111WAT     H2 6576   6.965   2.862   3.021
 2112WAT      O 6577   1.892   4.358   8.583
 2112WAT     H1 6578   1.930   4.448   8.562
 2112WAT     H2 6579   1.795   4.368   8.608
 2113WAT      O 6580   3.918   1.004   2.558
 2113WAT     H1 6581   3.860   1.079   2.527
 2113WAT     H2 6582   3.970   1.033   2.638
 2114WAT      O 6583   4.848   3.985   6.525
 2114WAT     H1 6584   4.946   3.966   6.523
 2114WAT     H2 6585   4.832   4.078   6.560
 2115WAT      O 6586   3.558   5.639   9.022
 2115WAT     H1 6587   3.593   5.556   9.064
 2115WAT     H2 6588   3.460   5.648   9.040
 2116WAT      O 6589   0.106   7.049   5.745
 2116WAT     H1 6590   0.174   7.025   5.676
 2116WAT     H2 6591   0.150   7.094   5.822
 2117WAT      O 6592   7.696   7.303   8.544
 2117WAT     H1 6593   7.608   7.297   8.497
 2117WAT     H2 6594   7.738   7.392   8.525
 2118WAT      O 6595   3.362   8.903   8.810
 2118WAT     H1 6596   3.424   8.881   8.885
 2118WAT     H2 6597   3.412   8.953   8.739
 2119WAT      O 6598   3.503   2.271   3.357
 2119WAT     H1 6599   3.568   2.198   3.373
 2119WAT     H2 6600   3.410   2.235   3.365
 2120WAT      O 6601   3.239   2.555   4.864
 2120WAT     H1 6602   3.237   2.456   4.849
 2120WAT     H2 6603   3.320   2.594   4.820
 2121WAT      O 6604   7.356   0.543   6.697
 2121WAT     H1 6605   7.296   0.510   6.770
 2121WAT     H2 6606   7.451   0.521   6.719
 2122WAT      O 6607   7.944   9.838   6.838
 2122WAT     H1 6608   7.950   9.825   6.937
 2122WAT     H2 6609   7.979   9.757   6.791
 2123WAT      O 6610   5.563   1.336   1.476
 2123WAT     H1 6611   5.484   1.392   1.504
 2123WAT     H2 6612   5.541   1.239   1.486
 2124WAT      O 6613   8.993   2.941   6.680
 2124WAT     H1 6614   8.953   2.867   6.735
 2124WAT     H2 6615   9.070   2.982   6.729
 2125WAT      O 6616   8.719   9.660   5.821
 2125WAT     H1 6617   8.723   9.758   5.837
 2125WAT     H2 6618   8.810   9.626   5.799
 2126WAT      O 6619   2.980   2.393   1.420
 2126WAT     H1 6620   2.914   2.424   1.489
 2126WAT     H2 6621   3.057   2.456   1.417
 2127WAT      O 6622   0.007   9.810   8.067
 2127WAT     H1 6623  -0.009   9.908   8.057
 2127WAT     H2 6624   0.023   9.770   7.977
 2128WAT      O 6625   8.729   7.305   2.332
 2128WAT     H1 6626   8.665   7.379   2.311
 2128WAT     H2 6627   8.819   7.344   2.350
 2129WAT      O 6628   3.932   3.705   1.597
 2129WAT     H1 6629   3.869   3.630   1.619
 2129WAT     H2 6630   4.010   3.702   1.659
 2130WAT      O 6631   3.553   2.982   7.562
 2130WAT     H1 6632   3.564   2.909   7.495
 2130WAT     H2 6633   3.478   2.960   7.624
 2131WAT      O 6634   3.593   6.304   3.001
 2131WAT     H1 6635   3.570   6.261   2.914
 2131WAT     H2 6636   3.510   6.309   3.058
 2132WAT      O 6637   8.617   6.925   3.690
 2132WAT     H1 6638   8.557   6.983   3.635
 2132WAT     H2 6639   8.562   6.873   3.755
 2133WAT      O 6640   3.691   1.717   2.254
 2133WAT     H1 6641   3.747   1.695   2.334
 2133WAT     H2 6642   3.719   1.661   2.177
 2134WAT      O 6643   3.456   2.913   2.512
 2134WAT     H1 6644   3.358   2.919   2.492
 2134WAT     H2 6645   3.470   2.908   2.611
 2135WAT      O 6646   9.687   8.851   1.423
 2135WAT     H1 6647   9.639   8.878   1.506
 2135WAT     H2 6648   9.621   8.840   1.348
 2136WAT      O 6649   4.801   6.058   5.537
 2136WAT     H1 6650   4.769   6.152   5.526
 2136WAT     H2 6651   4.852   6.030   5.456
 2137WAT      O 6652   4.170   2.912   4.749
 2137WAT     H1 6653   4.131   3.004   4.755
 2137WAT     H2 6654   4.211   2.899   4.659
 2138WAT      O 6655   5.518   4.199   2.773
 2138WAT     H1 6656   5.562   4.288   2.761
 2138WAT     H2 6657   5.517   4.151   2.685
 2139WAT      O 6658   7.769   4.905   7.065
 2139WAT     H1 6659   7.836   4.831   7.057
 2139WAT     H2 6660   7.803   4.974   7.128
 2140WAT      O 6661   8.130   0.211   0.822
 2140WAT     H1 6662   8.139   0.310   0.817
 2140WAT     H2 6663   8.155   0.171   0.733
 2141WAT      O 6664   4.206   6.211   0.282
 2141WAT     H1 6665   4.223   6.118   0.316
 2141WAT     H2 6666   4.277   6.272   0.317
 2142WAT      O 6667   9.088   7.216   1.958
 2142WAT     H1 6668   9.006   7.161   1.941
 2142WAT     H2 6669   9.154   7.162   2.011
 2143WAT      O 6670   8.839   9.831   9.404
 2143WAT     H1 6671   8.795   9.892   9.469
 2143WAT     H2 6672   8.896   9.765   9.453
 2144WAT      O 6673   9.189   6.195   7.041
 2144WAT     H1 6674   9.285   6.177   7.065
 2144WAT     H2 6675   9.173   6.165   6.947
 2145WAT      O 6676   6.034   6.851   9.090
 2145WAT     H1 6677   6.029   6.758   9.127
 2145WAT     H2 6678   6.094   6.906   9.148
 2146WAT      O 6679   2.271   7.040   4.847
 2146WAT     H1 6680   2.353   7.047   4.790
 2146WAT     H2 6681   2.190   7.029   4.788
 2147WAT      O 6682   6.450   4.670   7.096
 2147WAT     H1 6683   6.434   4.572   7.108
 2147WAT     H2 6684   6.544   4.692   7.122
 2148WAT      O 6685   0.921   4.925   8.843
 2148WAT     H1 6686   0.840   4.919   8.785
 2148WAT     H2 6687   0.984   4.851   8.821
 2149WAT      O 6688   8.604   8.794   3.207
 2149WAT     H1 6689   8.698   8.770   3.231
 2149WAT     H2 6690   8.602   8.830   3.113
 2150WAT      O 6691   5.330   2.285   5.290
 2150WAT     H1 6692   5.269   2.328   5.223
 2150WAT     H2 6693   5.329   2.338   5.375
 2151WAT      O 6694   9.419   1.494   3.421
 2151WAT     H1 6695   9.420   1.396   3.444
 2151WAT     H2 6696   9.359   1.543   3.484
 2152WAT      O 6697   4.035   8.824   2.158
 2152WAT     H1 6698   3.938   8.814   2.139
 2152WAT     H2 6699   4.064   8.752   2.221
 2153WAT      O 6700   8.427   1.791   6.168
 2153WAT     H1 6701   8.411   1.694   6.156
 2153WAT     H2 6702   8.353   1.843   6.125
 2154WAT      O 6703   7.727   6.253   3.359
 2154WAT     H1 6704   7.649   6.204   3.395
 2154WAT     H2 6705   7.705   6.351   3.351
 2155WAT      O 6706   8.925   3.846   0.539
 2155WAT     H1 6707   8.863   3.789   0.485
 2155WAT     H2 6708   8.934   3.936   0.496
 2156WAT      O 6709   2.170   3.030   0.047
 2156WAT     H1 6710   2.101   3.081   0.099
 2156WAT     H2 6711   2.245   3.091   0.024
 2157WAT      O 6712   6.122   9.462   9.385
 2157WAT     H1 6713   6.068   9.544   9.367
 2157WAT     H2 6714   6.218   9.487   9.399
 2158WAT      O 6715   0.038   3.119   2.513
 2158WAT     H1 6716   0.073   3.033   2.479
 2158WAT     H2 6717   0.057   3.127   2.611
 2159WAT      O 6718   3.657   4.701   3.644
 2159WAT     H1 6719   3.612   4.674   3.559
 2159WAT     H2 6720   3.752   4.724   3.625
 2160WAT      O 6721   3.671   4.955   0.314
 2160WAT     H1 6722   3.585   4.905   0.302
 2160WAT     H2 6723   3.685   5.017   0.237
 2161WAT      O 6724   8.510   1.045   7.097
 2161WAT     H1 6725   8.418   1.031   7.133
 2161WAT     H2 6726   8.517   1.002   7.008
 2162WAT      O 6727   5.025   4.984   5.718
 2162WAT     H1 6728   5.029   4.887   5.693
 2162WAT     H2 6729   5.114   5.027   5.701
 2163WAT      O 6730   1.848   9.424   5.272
 2163WAT     H1 6731   1.936   9.434   5.225
 2163WAT     H2 6732   1.774   9.453   5.211
 2164WAT      O 6733   8.884   5.979   5.093
 2164WAT     H1 6734   8.944   6.054   5.066
 2164WAT     H2 6735   8.828   5.951   5.015
 2165WAT      O 6736   5.215   1.975   3.536
 2165WAT     H1 6737   5.244   2.002   3.444
 2165WAT     H2 6738   5.184   2.055   3.586
 2166WAT      O 6739   7.393   5.587   3.488
 2166WAT     H1 6740   7.381   5.662   3.553
 2166WAT     H2 6741   7.384   5.499   3.536
 2167WAT      O 6742   9.354   3.958   0.210
 2167WAT     H1 6743   9.377   3.971   0.307
 2167WAT     H2 6744   9.429   3.991   0.153
 2168WAT      O 6745   9.435   9.312   5.047
 2168WAT     H1 6746   9.427   9.279   5.140
 2168WAT     H2 6747   9.386   9.251   4.985
 2169WAT      O 6748   5.760   8.942   2.697
 2169WAT     H1 6749   5.787   8.949   2.601
 2169WAT     H2 6750   5.803   9.016   2.749
 2170WAT      O 6751   6.234   6.993   9.197
 2170WAT     H1 6752   6.302   6.933   9.239
 2170WAT     H2 6753   6.280   7.060   9.138
 2171WAT      O 6754   9.833   0.749   9.221
 2171WAT     H1 6755   9.814   0.797   9.135
 2171WAT     H2 6756   9.766   0.776   9.290
 2172WAT      O 6757   7.811   7.172   0.506
 2172WAT     H1 6758   7.752   7.156   0.586
 2172WAT     H2 6759   7.888   7.229   0.532
 2173WAT      O 6760   1.452   5.560   8.502
 2173WAT     H1 6761   1.539   5.516   8.524
 2173WAT     H2 6762   1.399   5.501   8.441
 2174WAT      O 6763   2.924   1.214   8.366
 2174WAT     H1 6764   2.879   1.125   8.364
 2174WAT     H2 6765   2.858   1.284   8.394
 2175WAT      O 6766   0.842   0.387   6.555
 2175WAT     H1 6767   0.844   0.453   6.630
 2175WAT     H2 6768   0.930   0.385   6.509
 2176WAT      O 6769   9.769   8.823   5.961
 2176WAT     H1 6770   9.680   8.864   5.946
 2176WAT     H2 6771   9.832   8.892   5.997
 2177WAT      O 6772   9.457   3.315   5.120
 2177WAT     H1 6773   9.392   3.388   5.098
 2177WAT     H2 6774   9.454   3.297   5.218
 2178WAT      O 6775   2.550   4.276   6.147
 2178WAT     H1 6776   2.607   4.196   6.165
 2178WAT     H2 6777   2.552   4.337   6.226
 2179WAT      O 6778   7.270   3.259   0.890
 2179WAT     H1 6779   7.352   3.316   0.884
 2179WAT     H2 6780   7.193   3.314   0.922
 2180WAT      O 6781   3.577   7.462   8.471
 2180WAT     H1 6782   3.665   7.415   8.463
 2180WAT     H2 6783   3.503   7.399   8.448
 2181WAT      O 6784   3.136   7.493   1.545
 2181WAT     H1 6785   3.203   7.479   1.619
 2181WAT     H2 6786   3.149   7.423   1.475
 2182WAT      O 6787   1.122   6.884   0.169
 2182WAT     H1 6788   1.049   6.949   0.189
 2182WAT     H2 6789   1.148   6.892   0.072
 2183WAT      O 6790   0.645   4.304   2.262
 2183WAT     H1 6791   0.596   4.387   2.232
 2183WAT     H2 6792   0.617   4.227   2.206
 2184WAT      O 6793   2.504   2.839   9.841
 2184WAT     H1 6794   2.481   2.876   9.931
 2184WAT     H2 6795   2.463   2.748   9.831
 2185WAT      O 6796   5.626   5.108   6.187
 2185WAT     H1 6797   5.543   5.141   6.142
 2185WAT     H2 6798   5.703   5.166   6.159
 2186WAT      O 6799   9.741   0.892   6.149
 2186WAT     H1 6800   9.764   0.984   6.181
 2186WAT     H2 6801   9.724   0.833   6.228
 2187WAT      O 6802   4.646   2.017   5.479
 2187WAT     H1 6803   4.612   2.093   5.535
 2187WAT     H2 6804   4.646   2.045   5.382
 2188WAT      O 6805   4.658   0.667   3.077
 2188WAT     H1 6806   4.584   0.666   3.009
 2188WAT     H2 6807   4.640   0.596   3.146
 2189WAT      O 6808   0.815   7.672   0.191
 2189WAT     H1 6809   0.814   7.771   0.180
 2189WAT     H2 6810   0.787   7.648   0.285
 2190WAT      O 6811   0.538   3.537   8.705
 2190WAT     H1 6812   0.635   3.517   8.688
 2190WAT     H2 6813   0.485   3.452   8.698
 2191WAT      O 6814   0.119   6.276   7.053
 2191WAT     H1 6815   0.052   6.215   7.093
 2191WAT     H2 6816   0.208   6.263   7.098
 2192WAT      O 6817   4.047   4.306   8.396
 2192WAT     H1 6818   4.014   4.216   8.367
 2192WAT     H2 6819   4.050   4.310   8.496
 2193WAT      O 6820   2.460   0.640   6.339
 2193WAT     H1 6821   2.557   0.632   6.318
 2193WAT     H2 6822   2.408   0.582   6.276
 2194WAT      O 6823   2.856   1.533   1.933
 2194WAT     H1 6824   2.757   1.526   1.918
 2194WAT     H2 6825   2.900   1.448   1.904
 2195WAT      O 6826   6.186   3.510   1.490
 2195WAT     H1 6827   6.102   3.542   1.534
 2195WAT     H2 6828   6.190   3.410   1.496
 2196WAT      O 6829   2.877   4.993   5.663
 2196WAT     H1 6830   2.847   4.925   5.597
 2196WAT     H2 6831   2.834   4.976   5.751
 2197WAT      O 6832   8.265   2.901   7.189
 2197WAT     H1 6833   8.205   2.920   7.266
 2197WAT     H2 6834   8.356   2.938   7.207
 2198WAT      O 6835   9.568   5.657   7.031
 2198WAT     H1 6836   9.549   5.755   7.028
 2198WAT     H2 6837   9.664   5.642   7.006
 2199WAT      O 6838   3.210   2.213   3.324
 2199WAT     H1 6839   3.183   2.268   3.403
 2199WAT     H2 6840   3.144   2.139   3.310
 2200WAT      O 6841   2.500   7.569   5.428
 2200WAT     H1 6842   2.525   7.654   5.383
 2200WAT     H2 6843   2.400   7.560   5.430
 2201WAT      O 6844   3.030   8.662   0.864
 2201WAT     H1 6845   3.052   8.568   0.836
 2201WAT     H2 6846   3.113   8.707   0.898
 2202WAT      O 6847   0.851   7.351   5.829
 2202WAT     H1 6848   0.842   7.349   5.729
 2202WAT     H2 6849   0.777   7.297   5.870
 2203WAT      O 6850   1.831   1.934   5.296
 2203WAT     H1 6851   1.760   1.968   5.357
 2203WAT     H2 6852   1.920   1.971   5.325
 2204WAT      O 6853   5.801   0.226   9.433
 2204WAT     H1 6854   5.890   0.191   9.464
 2204WAT     H2 6855   5.814   0.283   9.352
 2205WAT      O 6856   1.551   1.203   4.074
 2205WAT     H1 6857   1.524   1.171   3.983
 2205WAT     H2 6858   1.651   1.206   4.081
 2206WAT      O 6859   6.437   7.991   0.718
 2206WAT     H1 6860   6.436   7.902   0.673
 2206WAT     H2 6861   6.520   8.000   0.773
 2207WAT      O 6862   9.088   5.480   7.114
 2207WAT     H1 6863   9.149   5.559   7.113
 2207WAT     H2 6864   9.142   5.396   7.126
 2208WAT      O 6865   7.370   4.631   0.742
 2208WAT     H1 6866   7.299   4.564   0.759
 2208WAT     H2 6867   7.447   4.613   0.804
 2209WAT      O 6868   8.754   9.459   6.741
 2209WAT     H1 6869   8.723   9.426   6.830
 2209WAT     H2 6870   8.676   9.473   6.681
 2210WAT      O 6871   2.937   3.009   4.637
 2210WAT     H1 6872   2.971   2.997   4.730
 2210WAT     H2 6873   2.932   2.920   4.592
 2211WAT      O 6874   2.054   0.662   5.221
 2211WAT     H1 6875   2.000   0.579   5.207
 2211WAT     H2 6876   2.136   0.658   5.164
 2212WAT      O 6877   8.593   9.202   0.502
 2212WAT     H1 6878   8.574   9.277   0.565
 2212WAT     H2 6879   8.633   9.126   0.553
 2213WAT      O 6880   1.091   3.911   6.488
 2213WAT     H1 6881   0.994   3.926   6.466
 2213WAT     H2 6882   1.103   3.912   6.587
 2214WAT      O 6883   5.524   6.329   4.282
 2214WAT     H1 6884   5.615   6.333   4.324
 2214WAT     H2 6885   5.457   6.302   4.351
 2215WAT      O 6886   1.389   5.047   5.376
 2215WAT     H1 6887   1.454   4.978   5.406
 2215WAT     H2 6888   1.296   5.009   5.381
 2216WAT      O 6889   7.516   7.663   8.843
 2216WAT     H1 6890   7.603   7.660   8.893
 2216WAT     H2 6891   7.532   7.633   8.749
 2217WAT      O 6892   8.518   7.968   5.834
 2217WAT     H1 6893   8.427   7.928   5.823
 2217WAT     H2 6894   8.523   8.055   5.784
 2218WAT      O 6895   2.080   9.502   2.244
 2218WAT     H1 6896   2.100   9.425   2.183
 2218WAT     H2 6897   1.985   9.497   2.274
 2219WAT      O 6898   9.228   9.590   8.131
 2219WAT     H1 6899   9.256   9.568   8.224
 2219WAT     H2 6900   9.146   9.538   8.107
 2220WAT      O 6901   0.904   6.057   7.393
 2220WAT     H1 6902   0.967   6.090   7.464
 2220WAT     H2 6903   0.886   5.960   7.408
 2221WAT      O 6904   3.208   3.538   2.792
 2221WAT     H1 6905   3.221   3.626   2.747
 2221WAT     H2 6906   3.129   3.491   2.752
 2222WAT      O 6907   6.160   8.078   1.458
 2222WAT     H1 6908   6.195   7.997   1.504
 2222WAT     H2 6909   6.227   8.110   1.391
 2223WAT      O 6910   3.922   5.772   6.112
 2223WAT     H1 6911   3.956   5.847   6.056
 2223WAT     H2 6912   3.882   5.701   6.054
 2224WAT      O 6913   9.635   0.102   8.643
 2224WAT     H1 6914   9.618   0.034   8.572
 2224WAT     H2 6915   9.570   0.177   8.634
 2225WAT      O 6916   6.051   5.787   6.970
 2225WAT     H1 6917   6.014   5.695   6.958
 2225WAT     H2 6918   6.137   5.795   6.921
 2226WAT      O 6919   8.771   4.521   3.652
 2226WAT     H1 6920   8.790   4.452   3.582
 2226WAT     H2 6921   8.855   4.542   3.702
 2227WAT      O 6922   4.249   2.597   2.938
 2227WAT     H1 6923   4.240   2.498   2.926
 2227WAT     H2 6924   4.346   2.622   2.935
 2228WAT      O 6925   5.109   3.127   5.710
 2228WAT     H1 6926   5.112   3.044   5.653
 2228WAT     H2 6927   5.028   3.125   5.768
 2229WAT      O 6928   3.329   4.455   6.240
 2229WAT     H1 6929   3.244   4.425   6.197
 2229WAT     H2 6930   3.382   4.509   6.174
 2230WAT      O 6931   0.340   1.939   4.402
 2230WAT     H1 6932   0.390   1.963   4.319
 2230WAT     H2 6933   0.387   1.864   4.449
 2231WAT      O 6934   5.261   2.424   1.463
 2231WAT     H1 6935   5.163   2.412   1.473
 2231WAT     H2 6936   5.310   2.358   1.520
 2232WAT      O 6937   5.614   3.870   0.592
 2232WAT     H1 6938   5.585   3.785   0.548
 2232WAT     H2 6939   5.678   3.919   0.533
 2233WAT      O 6940   9.091   3.209   6.276
 2233WAT     H1 6941   9.037   3.215   6.192
 2233WAT     H2 6942   9.181   3.170   6.254
 2234WAT      O 6943   8.208   1.626   7.496
 2234WAT     H1 6944   8.188   1.724   7.493
 2234WAT     H2 6945   8.243   1.597   7.407
 2235WAT      O 6946   0.029   5.055   6.537
 2235WAT     H1 6947   0.017   4.979   6.601
 2235WAT     H2 6948  -0.007   5.030   6.447
 2236WAT      O 6949   8.660   7.380   7.947
 2236WAT     H1 6950   8.566   7.371   7.913
 2236WAT     H2 6951   8.716   7.426   7.878
 2237WAT      O 6952   3.420   5.886   7.439
 2237WAT     H1 6953   3.493   5.947   7.408
 2237WAT     H2 6954   3.332   5.932   7.433
 2238WAT      O 6955   4.374   3.101   9.487
 2238WAT     H1 6956   4.357   3.037   9.562
 2238WAT     H2 6957   4.339   3.191   9.511
 2239WAT      O 6958   9.723   4.546   2.411
 2239WAT     H1 6959   9.631   4.559   2.374
 2239WAT     H2 6960   9.774   4.484   2.352
 2240WAT      O 6961   6.671   9.249   1.225
 2240WAT     H1 6962   6.768   9.248   1.201
 2240WAT     H2 6963   6.625   9.321   1.174
 2241WAT      O 6964   5.999   1.634   8.530
 2241WAT     H1 6965   5.932   1.670   8.465
 2241WAT     H2 6966   6.091   1.662   8.501
 2242WAT      O 6967   6.619   3.758   6.128
 2242WAT     H1 6968   6.593   3.756   6.225
 2242WAT     H2 6969   6.716   3.780   6.121
 2243WAT      O 6970   8.621   5.456   6.588
 2243WAT     H1 6971   8.645   5.440   6.493
 2243WAT     H2 6972   8.549   5.525   6.593
 2244WAT      O 6973   0.424   7.261   4.632
 2244WAT     H1 6974   0.463   7.204   4.704
 2244WAT     H2 6975   0.414   7.355   4.665
 2245WAT      O 6976   3.562   9.206   2.417
 2245WAT     H1 6977   3.574   9.125   2.358
 2245WAT     H2 6978   3.621   9.280   2.384
 2246WAT      O 6979   1.993   8.775   1.305
 2246WAT     H1 6980   1.950   8.712   1.369
 2246WAT     H2 6981   2.092   8.760   1.306
 2247WAT      O 6982   8.496   4.442   9.351
 2247WAT     H1 6983   8.456   4.486   9.431
 2247WAT     H2 6984   8.438   4.459   9.271
 2248WAT      O 6985   3.467   9.111   4.443
 2248WAT     H1 6986   3.382   9.064   4.421
 2248WAT     H2 6987   3.537   9.043   4.466
 2249WAT      O 6988   8.562   4.425   9.783
 2249WAT     H1 6989   8.571   4.457   9.878
 2249WAT     H2 6990   8.653   4.417   9.742
 2250WAT      O 6991   4.067   3.159   9.019
 2250WAT     H1 6992   4.070   3.160   9.119
 2250WAT     H2 6993   4.102   3.246   8.984
 2251WAT      O 6994   8.840   0.046   2.729
 2251WAT     H1 6995   8.909  -0.024   2.712
 2251WAT     H2 6996   8.861   0.127   2.674
 2252WAT      O 6997   3.203   9.683   0.471
 2252WAT     H1 6998   3.131   9.747   0.446
 2252WAT     H2 6999   3.233   9.701   0.565
 2253WAT      O 7000   7.876   8.080   8.895
 2253WAT     H1 7001   7.821   8.062   8.813
 2253WAT     H2 7002   7.939   8.156   8.877
 2254WAT      O 7003   8.259   8.407   3.679
 2254WAT     H1 7004   8.193   8.411   3.754
 2254WAT     H2 7005   8.341   8.357   3.710
 2255WAT      O 7006   4.410   2.968   9.130
 2255WAT     H1 7007   4.486   2.999   9.187
 2255WAT     H2 7008   4.325   3.006   9.165
 2256WAT      O 7009   4.213   4.780   6.091
 2256WAT     H1 7010   4.222   4.723   6.009
 2256WAT     H2 7011   4.146   4.852   6.073
 2257WAT      O 7012   3.820   9.182   8.691
 2257WAT     H1 7013   3.879   9.247   8.739
 2257WAT     H2 7014   3.737   9.166   8.745
 2258WAT      O 7015   4.579   3.474   9.574
 2258WAT     H1 7016   4.623   3.564   9.581
 2258WAT     H2 7017   4.623   3.421   9.501
 2259WAT      O 7018   0.809   6.631   1.045
 2259WAT     H1 7019   0.899   6.672   1.061
 2259WAT     H2 7020   0.817   6.531   1.053
 2260WAT      O 7021   4.891   2.891   5.658
 2260WAT     H1 7022   4.822   2.888   5.586
 2260WAT     H2 7023   4.982   2.882   5.618
 2261WAT      O 7024   9.333   1.441   2.574
 2261WAT     H1 7025   9.432   1.430   2.573
 2261WAT     H2 7026   9.290   1.355   2.604
 2262WAT      O 7027   5.441   4.387   6.523
 2262WAT     H1 7028   5.350   4.351   6.541
 2262WAT     H2 7029   5.465   4.453   6.594
 2263WAT      O 7030   2.189   4.415   3.883
 2263WAT     H1 7031   2.250   4.341   3.853
 2263WAT     H2 7032   2.243   4.487   3.927
 2264WAT      O 7033   9.308   6.795   4.463
 2264WAT     H1 7034   9.321   6.864   4.391
 2264WAT     H2 7035   9.294   6.840   4.551
 2265WAT      O 7036   2.617   7.947   8.226
 2265WAT     H1 7037   2.640   7.858   8.187
 2265WAT     H2 7038   2.664   7.959   8.314
 2266WAT      O 7039   4.217   3.835   3.445
 2266WAT     H1 7040   4.301   3.880   3.416
 2266WAT     H2 7041   4.139   3.896   3.431
 2267WAT      O 7042   6.347   0.141   5.770
 2267WAT     H1 7043   6.314   0.223   5.725
 2267WAT     H2 7044   6.270   0.086   5.802
 2268WAT      O 7045   2.276   5.168   1.190
 2268WAT     H1 7046   2.274   5.101   1.116
 2268WAT     H2 7047   2.332   5.134   1.265
 2269WAT      O 7048   1.432   3.387   7.924
 2269WAT     H1 7049   1.484   3.355   7.845
 2269WAT     H2 7050   1.361   3.451   7.893
 2270WAT      O 7051   3.544   7.836   4.767
 2270WAT     H1 7052   3.494   7.806   4.848
 2270WAT     H2 7053   3.622   7.892   4.795
 2271WAT      O 7054   8.124   4.500   2.324
 2271WAT     H1 7055   8.196   4.499   2.255
 2271WAT     H2 7056   8.037   4.525   2.282
 2272WAT      O 7057   9.781   2.289   1.285
 2272WAT     H1 7058   9.710   2.223   1.310
 2272WAT     H2 7059   9.871   2.253   1.310
 2273WAT      O 7060   3.499   7.665   8.331
 2273WAT     H1 7061   3.436   7.732   8.369
 2273WAT     H2 7062   3.526   7.600   8.403
 2274WAT      O 7063   0.577   1.303   7.637
 2274WAT     H1 7064   0.500   1.356   7.671
 2274WAT     H2 7065   0.575   1.301   7.537
 2275WAT      O 7066   0.748   3.095   5.830
 2275WAT     H1 7067   0.674   3.032   5.855
 2275WAT     H2 7068   0.831   3.068   5.878
 2276WAT      O 7069   5.190   1.743   9.472
 2276WAT     H1 7070   5.240   1.668   9.516
 2276WAT     H2 7071   5.173   1.720   9.376
 2277WAT      O 7072   1.817   8.534   7.339
 2277WAT     H1 7073   1.722   8.519   7.366
 2277WAT     H2 7074   1.871   8.452   7.359
 2278WAT      O 7075   7.639   3.369   4.385
 2278WAT     H1 7076   7.585   3.451   4.366
 2278WAT     H2 7077   7.720   3.368   4.327
 2279WAT      O 7078   2.217   2.373   7.194
 2279WAT     H1 7079   2.255   2.436   7.126
 2279WAT     H2 7080   2.130   2.337   7.160
 2280WAT      O 7081   1.631   3.936   1.955
 2280WAT     H1 7082   1.564   3.970   2.021
 2280WAT     H2 7083   1.607   3.843   1.929
 2281WAT      O 7084   7.362   4.254   0.277
 2281WAT     H1 7085   7.270   4.277   0.248
 2281WAT     H2 7086   7.428   4.299   0.217
 2282WAT      O 7087   5.479   5.388   2.954
 2282WAT     H1 7088   5.565   5.439   2.948
 2282WAT     H2 7089   5.436   5.385   2.863
 2283WAT      O 7090   3.102   6.262   4.380
 2283WAT     H1 7091   3.041   6.255   4.302
 2283WAT     H2 7092   3.060   6.219   4.460
 2284WAT      O 7093   2.575   9.386   1.870
 2284WAT     H1 7094   2.606   9.365   1.777
 2284WAT     H2 7095   2.526   9.307   1.907
 2285WAT      O 7096   9.395   1.530   6.406
 2285WAT     H1 7097   9.368   1.527   6.502
 2285WAT     H2 7098   9.415   1.624   6.379
 2286WAT      O 7099   6.941   0.116   7.208
 2286WAT     H1 7100   6.889   0.047   7.158
 2286WAT     H2 7101   7.003   0.072   7.273
 2287WAT      O 7102   6.208   7.679   6.259
 2287WAT     H1 7103   6.223   7.621   6.179
 2287WAT     H2 7104   6.146   7.754   6.235
 2288WAT      O 7105   3.987   9.831   5.464
 2288WAT     H1 7106   3.930   9.750   5.446
 2288WAT     H2 7107   3.988   9.889   5.383
 2289WAT      O 7108   6.944   8.473   7.671
 2289WAT     H1 7109   7.018   8.482   7.603
 2289WAT     H2 7110   6.984   8.460   7.762
 2290WAT      O 7111   2.138   3.495   7.047
 2290WAT     H1 7112   2.075   3.457   6.979
 2290WAT     H2 7113   2.124   3.448   7.134
 2291WAT      O 7114   7.330   7.716   3.475
 2291WAT     H1 7115   7.336   7.714   3.375
 2291WAT     H2 7116   7.239   7.746   3.502
 2292WAT      O 7117   1.911   8.180   9.481
 2292WAT     H1 7118   1.870   8.116   9.417
 2292WAT     H2 7119   1.839   8.224   9.535
 2293WAT      O 7120   4.358   4.237   0.330
 2293WAT     H1 7121   4.303   4.291   0.266
 2293WAT     H2 7122   4.298   4.187   0.391
 2294WAT      O 7123   9.323   3.035   1.382
 2294WAT     H1 7124   9.311   2.941   1.349
 2294WAT     H2 7125   9.236   3.084   1.373
 2295WAT      O 7126   3.803   6.370   9.211
 2295WAT     H1 7127   3.884   6.354   9.155
 2295WAT     H2 7128   3.796   6.467   9.233
 2296WAT      O 7129   9.270   1.401   1.217
 2296WAT     H1 7130   9.261   1.301   1.223
 2296WAT     H2 7131   9.194   1.444   1.264
 2297WAT      O 7132   2.988   0.875   3.233
 2297WAT     H1 7133   2.966   0.811   3.307
 2297WAT     H2 7134   2.975   0.829   3.145
 2298WAT      O 7135   1.957   9.026   3.954
 2298WAT     H1 7136   2.057   9.024   3.958
 2298WAT     H2 7137   1.927   9.086   3.881
 2299WAT      O 7138   7.563   4.797   9.589
 2299WAT     H1 7139   7.601   4.721   9.642
 2299WAT     H2 7140   7.631   4.870   9.582
 2300WAT      O 7141   6.544   7.913   3.273
 2300WAT     H1 7142   6.610   7.964   3.327
 2300WAT     H2 7143   6.591   7.847   3.214
 2301WAT      O 7144   1.697   1.445   9.685
 2301WAT     H1 7145   1.651   1.384   9.749
 2301WAT     H2 7146   1.705   1.400   9.596
 2302WAT      O 7147   2.427   3.282   8.600
 2302WAT     H1 7148   2.367   3.202   8.599
 2302WAT     H2 7149   2.450   3.305   8.695
 2303WAT      O 7150   3.102   5.668   4.111
 2303WAT     H1 7151   3.185   5.704   4.154
 2303WAT     H2 7152   3.127   5.613   4.031
 2304WAT      O 7153   8.889   8.335   4.827
 2304WAT     H1 7154   8.866   8.259   4.887
 2304WAT     H2 7155   8.858   8.421   4.868
 2305WAT      O 7156   7.641   0.459   8.024
 2305WAT     H1 7157   7.661   0.467   7.927
 2305WAT     H2 7158   7.687   0.532   8.074
 2306WAT      O 7159   0.193   7.929   8.368
 2306WAT     H1 7160   0.257   7.854   8.387
 2306WAT     H2 7161   0.171   7.977   8.453
 2307WAT      O 7162   7.252   2.339   9.699
 2307WAT     H1 7163   7.202   2.415   9.658
 2307WAT     H2 7164   7.278   2.363   9.793
 2308WAT      O 7165   1.062   4.684   0.750
 2308WAT     H1 7166   1.077   4.604   0.808
 2308WAT     H2 7167   1.017   4.656   0.665
 2309WAT      O 7168   7.990   5.494   5.875
 2309WAT     H1 7169   8.082   5.512   5.909
 2309WAT     H2 7170   7.995   5.433   5.796
 2310WAT      O 7171   1.565   9.174   1.898
 2310WAT     H1 7172   1.645   9.149   1.953
 2310WAT     H2 7173   1.545   9.271   1.909
 2311WAT      O 7174   2.825   4.754   5.535
 2311WAT     H1 7175   2.731   4.780   5.558
 2311WAT     H2 7176   2.825   4.693   5.456
 2312WAT      O 7177   5.734   6.527   3.427
 2312WAT     H1 7178   5.691   6.552   3.514
 2312WAT     H2 7179   5.819   6.478   3.446
 2313WAT      O 7180   6.911   0.481   9.415
 2313WAT     H1 7181   6.817   0.507   9.389
 2313WAT     H2 7182   6.907   0.416   9.491
 2314WAT      O 7183   3.946   4.647   9.481
 2314WAT     H1 7184   3.864   4.594   9.502
 2314WAT     H2 7185   3.988   4.679   9.566
 2315WAT      O 7186   3.674   2.438   6.191
 2315WAT     H1 7187   3.719   2.418   6.278
 2315WAT     H2 7188   3.661   2.536   6.182
 2316WAT      O 7189   5.343   7.364   3.328
 2316WAT     H1 7190   5.328   7.463   3.332
 2316WAT     H2 7191   5.436   7.344   3.357
 2317WAT      O 7192   5.062   5.144   1.991
 2317WAT     H1 7193   5.072   5.225   2.050
 2317WAT     H2 7194   4.976   5.151   1.940
 2318WAT      O 7195   9.646   0.734   1.366
 2318WAT     H1 7196   9.604   0.650   1.333
 2318WAT     H2 7197   9.744   0.732   1.344
 2319WAT      O 7198   0.544   4.134   6.624
 2319WAT     H1 7199   0.467   4.070   6.627
 2319WAT     H2 7200   0.539   4.188   6.540
 2320WAT      O 7201   2.452   6.237   3.775
 2320WAT     H1 7202   2.501   6.187   3.703
 2320WAT     H2 7203   2.355   6.212   3.773
 2321WAT      O 7204   4.644   2.124   0.298
 2321WAT     H1 7205   4.652   2.214   0.255
 2321WAT     H2 7206   4.668   2.053   0.232
 2322WAT      O 7207   9.602   7.304   4.388
 2322WAT     H1 7208   9.529   7.256   4.437
 2322WAT     H2 7209   9.689   7.260   4.409
 2323WAT      O 7210   1.718   0.692   0.095
 2323WAT     H1 7211   1.728   0.726   0.001
 2323WAT     H2 7212   1.798   0.636   0.118
 2324WAT      O 7213   3.890   7.231   4.404
 2324WAT     H1 7214   3.929   7.178   4.479
 2324WAT     H2 7215   3.832   7.304   4.441
 2325WAT      O 7216   3.466   2.252   3.960
 2325WAT     H1 7217   3.559   2.225   3.938
 2325WAT     H2 7218   3.449   2.237   4.058
 2326WAT      O 7219   9.227   3.604   4.693
 2326WAT     H1 7220   9.318   3.588   4.730
 2326WAT     H2 7221   9.162   3.619   4.768
 2327WAT      O 7222   7.264   0.193   1.748
 2327WAT     H1 7223   7.188   0.251   1.720
 2327WAT     H2 7224   7.229   0.101   1.768
 2328WAT      O 7225   9.830   7.088   3.025
 2328WAT     H1 7226   9.796   7.173   3.065
 2328WAT     H2 7227   9.928   7.096   3.007
 2329WAT      O 7228   1.474   9.077   2.954
 2329WAT     H1 7229   1.569   9.081   2.924
 2329WAT     H2 7230   1.453   8.984   2.985
 2330WAT      O 7231   9.666   6.151   0.260
 2330WAT     H1 7232   9.711   6.129   0.174
 2330WAT     H2 7233   9.727   6.208   0.316
 2331WAT      O 7234   4.139   7.355   0.352
 2331WAT     H1 7235   4.189   7.326   0.271
 2331WAT     H2 7236   4.181   7.437   0.390
 2332WAT      O 7237   1.835   4.252   8.339
 2332WAT     H1 7238   1.916   4.227   8.286
 2332WAT     H2 7239   1.863   4.301   8.422
 2333WAT      O 7240   2.818   7.471   5.810
 2333WAT     H1 7241   2.875   7.390   5.826
 2333WAT     H2 7242   2.735   7.444   5.761
 2334WAT      O 7243   6.983   0.313   8.160
 2334WAT     H1 7244   6.995   0.396   8.213
 2334WAT     H2 7245   6.917   0.253   8.205
 2335WAT      O 7246   6.560   3.745   3.749
 2335WAT     H1 7247   6.585   3.839   3.772
 2335WAT     H2 7248   6.485   3.745   3.683
 2336WAT      O 7249   4.840   1.368   3.980
 2336WAT     H1 7250   4.843   1.300   3.907
 2336WAT     H2 7251   4.756   1.358   4.033
 2337WAT      O 7252   9.293   3.666   2.769
 2337WAT     H1 7253   9.388   3.695   2.775
 2337WAT     H2 7254   9.235   3.729   2.820
 2338WAT      O 7255   1.197   7.873   6.990
 2338WAT     H1 7256   1.150   7.785   6.990
 2338WAT     H2 7257   1.140   7.942   6.946
 2339WAT      O 7258   4.424   2.545   8.109
 2339WAT     H1 7259   4.338   2.582   8.142
 2339WAT     H2 7260   4.425   2.446   8.123
 2340WAT      O 7261   4.754   3.180   0.114
 2340WAT     H1 7262   4.681   3.120   0.080
 2340WAT     H2 7263   4.797   3.138   0.194
 2341WAT      O 7264   7.990   8.129   6.145
 2341WAT     H1 7265   8.003   8.072   6.064
 2341WAT     H2 7266   8.079   8.143   6.190
 2342WAT      O 7267   6.041   9.234   2.033
 2342WAT     H1 7268   6.118   9.199   2.086
 2342WAT     H2 7269   6.058   9.330   2.008
 2343WAT      O 7270   8.929   5.662   6.645
 2343WAT     H1 7271   8.881   5.743   6.613
 2343WAT     H2 7272   8.873   5.615   6.713
 2344WAT      O 7273   2.823   4.165   8.381
 2344WAT     H1 7274   2.821   4.171   8.281
 2344WAT     H2 7275   2.736   4.197   8.418
 2345WAT      O 7276   0.793   3.201   1.009
 2345WAT     H1 7277   0.694   3.212   1.013
 2345WAT     H2 7278   0.831   3.266   0.943
 2346WAT      O 7279   9.618   1.405   7.930
 2346WAT     H1 7280   9.651   1.458   7.852
 2346WAT     H2 7281   9.625   1.460   8.013
 2347WAT      O 7282   3.985   9.768   6.240
 2347WAT     H1 7283   4.060   9.811   6.291
 2347WAT     H2 7284   3.951   9.832   6.171
 2348WAT      O 7285   3.785   1.776   4.563
 2348WAT     H1 7286   3.688   1.764   4.542
 2348WAT     H2 7287   3.808   1.728   4.647
 2349WAT      O 7288   2.232   8.924   5.102
 2349WAT     H1 7289   2.226   8.929   5.202
 2349WAT     H2 7290   2.164   8.860   5.068
 2350WAT      O 7291   3.574   5.805   2.855
 2350WAT     H1 7292   3.538   5.785   2.764
 2350WAT     H2 7293   3.655   5.864   2.847
 2351WAT      O 7294   7.433   1.794   8.785
 2351WAT     H1 7295   7.403   1.818   8.878
 2351WAT     H2 7296   7.480   1.872   8.744
 2352WAT      O 7297   7.051   4.825   8.721
 2352WAT     H1 7298   7.101   4.740   8.736
 2352WAT     H2 7299   6.994   4.816   8.639
 2353WAT      O 7300   7.119   3.958   2.205
 2353WAT     H1 7301   7.207   3.913   2.193
 2353WAT     H2 7302   7.051   3.914   2.147
 2354WAT      O 7303   8.540   3.415   3.406
 2354WAT     H1 7304   8.495   3.352   3.469
 2354WAT     H2 7305   8.515   3.393   3.312
 2355WAT      O 7306   4.122   0.902   3.265
 2355WAT     H1 7307   4.215   0.872   3.283
 2355WAT     H2 7308   4.124   0.979   3.200
 2356WAT      O 7309   8.285   5.925   2.575
 2356WAT     H1 7310   8.271   5.906   2.478
 2356WAT     H2 7311   8.268   6.022   2.592
 2357WAT      O 7312   8.085   0.719   5.038
 2357WAT     H1 7313   8.161   0.767   5.080
 2357WAT     H2 7314   8.002   0.733   5.092
 2358WAT      O 7315   8.191   5.386   7.986
 2358WAT     H1 7316   8.270   5.373   7.926
 2358WAT     H2 7317   8.130   5.307   7.980
 2359WAT      O 7318   9.091   5.700   3.023
 2359WAT     H1 7319   9.009   5.725   2.973
 2359WAT     H2 7320   9.172   5.716   2.967
 2360WAT      O 7321   4.699   7.410   3.362
 2360WAT     H1 7322   4.711   7.311   3.371
 2360WAT     H2 7323   4.788   7.454   3.350
 2361WAT      O 7324   3.717   8.649   0.870
 2361WAT     H1 7325   3.788   8.586   0.837
 2361WAT     H2 7326   3.747   8.691   0.956
 2362WAT      O 7327   3.365   6.423   3.463
 2362WAT     H1 7328   3.313   6.346   3.502
 2362WAT     H2 7329   3.301   6.495   3.435
 2363WAT      O 7330   9.814   7.773   7.251
 2363WAT     H1 7331   9.862   7.826   7.181
 2363WAT     H2 7332   9.855   7.791   7.340
 2364WAT      O 7333   6.582   2.362   0.081
 2364WAT     H1 7334   6.610   2.336   0.173
 2364WAT     H2 7335   6.530   2.287   0.039
 2365WAT      O 7336   0.101   4.345   1.562
 2365WAT     H1 7337   0.024   4.409   1.570
 2365WAT     H2 7338   0.176   4.389   1.514
 2366WAT      O 7339   4.349   9.714   6.931
 2366WAT     H1 7340   4.402   9.669   7.003
 2366WAT     H2 7341   4.262   9.665   6.918
 2367WAT      O 7342   2.752   3.524   1.283
 2367WAT     H1 7343   2.746   3.548   1.380
 2367WAT     H2 7344   2.706   3.437   1.267
 2368WAT      O 7345   4.540   7.460   3.603
 2368WAT     H1 7346   4.611   7.419   3.546
 2368WAT     H2 7347   4.451   7.423   3.578
 2369WAT      O 7348   4.346   6.047   6.980
 2369WAT     H1 7349   4.305   5.956   6.984
 2369WAT     H2 7350   4.338   6.091   7.070
 2370WAT      O 7351   6.073   6.505   2.895
 2370WAT     H1 7352   6.073   6.598   2.933
 2370WAT     H2 7353   6.153   6.492   2.837
 2371WAT      O 7354   1.773   4.216   3.009
 2371WAT     H1 7355   1.802   4.211   3.104
 2371WAT     H2 7356   1.752   4.311   2.985
 2372WAT      O 7357   1.950   3.472   5.346
 2372WAT     H1 7358   1.986   3.560   5.316
 2372WAT     H2 7359   1.962   3.404   5.274
 2373WAT      O 7360   3.802   3.600   3.028
 2373WAT     H1 7361   3.789   3.531   2.957
 2373WAT     H2 7362   3.725   3.663   3.027
 2374WAT      O 7363   2.610   1.238   8.239
 2374WAT     H1 7364   2.657   1.317   8.278
 2374WAT     H2 7365   2.661   1.155   8.261
 2375WAT      O 7366   5.720   5.481   2.992
 2375WAT     H1 7367   5.758   5.458   3.081
 2375WAT     H2 7368   5.795   5.503   2.929
 2376WAT      O 7369   4.086   7.285   3.411
 2376WAT     H1 7370   4.130   7.356   3.355
 2376WAT     H2 7371   3.987   7.288   3.397
 2377WAT      O 7372   2.470   1.571   2.659
 2377WAT     H1 7373   2.427   1.506   2.723
 2377WAT     H2 7374   2.532   1.521   2.598
 2378WAT      O 7375   0.682   1.603   8.464
 2378WAT     H1 7376   0.771   1.586   8.507
 2378WAT     H2 7377   0.613   1.543   8.505
 2379WAT      O 7378   7.624   3.288   8.190
 2379WAT     H1 7379   7.570   3.290   8.105
 2379WAT     H2 7380   7.570   3.246   8.262
 2380WAT      O 7381   6.466   0.003   5.095
 2380WAT     H1 7382   6.564   0.011   5.108
 2380WAT     H2 7383   6.439   0.045   5.009
 2381WAT      O 7384   1.910   1.666   0.253
 2381WAT     H1 7385   1.972   1.594   0.282
 2381WAT     H2 7386   1.938   1.701   0.164
 2382WAT      O 7387   6.695   1.561   7.962
 2382WAT     H1 7388   6.773   1.499   7.962
 2382WAT     H2 7389   6.630   1.533   7.891
 2383WAT      O 7390   7.119   6.043   9.354
 2383WAT     H1 7391   7.087   6.089   9.437
 2383WAT     H2 7392   7.045   5.986   9.317
 2384WAT      O 7393   5.323   3.410   0.340
 2384WAT     H1 7394   5.248   3.431   0.278
 2384WAT     H2 7395   5.318   3.470   0.420
 2385WAT      O 7396   5.518   1.910   9.618
 2385WAT     H1 7397   5.424   1.932   9.641
 2385WAT     H2 7398   5.574   1.908   9.701
 2386WAT      O 7399   7.693   2.408   5.147
 2386WAT     H1 7400   7.783   2.394   5.105
 2386WAT     H2 7401   7.679   2.506   5.163
 2387WAT      O 7402   6.738   3.970   0.215
 2387WAT     H1 7403   6.789   3.960   0.130
 2387WAT     H2 7404   6.781   3.914   0.286
 2388WAT      O 7405   7.655   6.650   0.146
 2388WAT     H1 7406   7.739   6.645   0.092
 2388WAT     H2 7407   7.667   6.599   0.232
 2389WAT      O 7408   9.207   2.640   0.412
 2389WAT     H1 7409   9.294   2.604   0.379
 2389WAT     H2 7410   9.139   2.567   0.416
 2390WAT      O 7411   8.041   6.552   2.575
 2390WAT     H1 7412   8.129   6.517   2.542
 2390WAT     H2 7413   8.038   6.652   2.565
 2391WAT      O 7414   2.745   0.730   5.954
 2391WAT     H1 7415   2.812   0.738   6.027
 2391WAT     H2 7416   2.653   0.735   5.993
 2392WAT      O 7417   9.247   6.647   7.444
 2392WAT     H1 7418   9.197   6.722   7.401
 2392WAT     H2 7419   9.210   6.631   7.536
 2393WAT      O 7420   9.100   1.351   2.206
 2393WAT     H1 7421   9.071   1.416   2.135
 2393WAT     H2 7422   9.193   1.372   2.235
 2394WAT      O 7423   3.637   3.729   9.174
 2394WAT     H1 7424   3.723   3.682   9.152
 2394WAT     H2 7425   3.564   3.661   9.184
 2395WAT      O 7426   6.523   8.635   5.289
 2395WAT     H1 7427   6.526   8.609   5.386
 2395WAT     H2 7428   6.566   8.563   5.235
 2396WAT      O 7429   0.909   5.528   4.466
 2396WAT     H1 7430   0.833   5.522   4.401
 2396WAT     H2 7431   0.873   5.540   4.559
 2397WAT      O 7432   6.401   9.735   7.642
 2397WAT     H1 7433   6.331   9.802   7.669
 2397WAT     H2 7434   6.359   9.662   7.589
 2398WAT      O 7435   7.307   8.195   1.863
 2398WAT     H1 7436   7.286   8.293   1.857
 2398WAT     H2 7437   7.284   8.151   1.777
 2399WAT      O 7438   0.174   9.224   0.398
 2399WAT     H1 7439   0.262   9.178   0.385
 2399WAT     H2 7440   0.154   9.281   0.319
 2400WAT      O 7441   5.792   9.345   3.221
 2400WAT     H1 7442   5.781   9.429   3.274
 2400WAT     H2 7443   5.886   9.339   3.187
 2401WAT      O 7444   7.016   0.331   2.410
 2401WAT     H1 7445   6.965   0.416   2.401
 2401WAT     H2 7446   7.027   0.308   2.507
 2402WAT      O 7447   1.960   5.401   1.779
 2402WAT     H1 7448   1.899   5.411   1.700
 2402WAT     H2 7449   1.906   5.393   1.863
 2403WAT      O 7450   3.792   1.054   7.683
 2403WAT     H1 7451   3.792   1.153   7.685
 2403WAT     H2 7452   3.699   1.020   7.670
 2404WAT      O 7453   5.312   9.540   1.096
 2404WAT     H1 7454   5.236   9.602   1.114
 2404WAT     H2 7455   5.277   9.451   1.069
 2405WAT      O 7456   7.551   5.244   8.167
 2405WAT     H1 7457   7.646   5.222   8.188
 2405WAT     H2 7458   7.543   5.273   8.072
 2406WAT      O 7459   2.564   4.361   4.679
 2406WAT     H1 7460   2.627   4.432   4.709
 2406WAT     H2 7461   2.483   4.362   4.737
 2407WAT      O 7462   4.034   3.262   8.563
 2407WAT     H1 7463   4.047   3.169   8.597
 2407WAT     H2 7464   4.086   3.326   8.620
 2408WAT      O 7465   4.980   9.187   4.514
 2408WAT     H1 7466   4.996   9.205   4.612
 2408WAT     H2 7467   5.067   9.192   4.465
 2409WAT      O 7468   5.176   5.259   3.761
 2409WAT     H1 7469   5.271   5.234   3.742
 2409WAT     H2 7470   5.148   5.220   3.848
 2410WAT      O 7471   0.847   8.203   6.326
 2410WAT     H1 7472   0.791   8.277   6.288
 2410WAT     H2 7473   0.944   8.224   6.313
 2411WAT      O 7474   7.871   6.496   0.608
 2411WAT     H1 7475   7.941   6.543   0.661
 2411WAT     H2 7476   7.780   6.515   0.647
 2412WAT      O 7477   5.141   0.934   5.814
 2412WAT     H1 7478   5.148   0.877   5.732
 2412WAT     H2 7479   5.096   0.882   5.887
 2413WAT      O 7480   5.249   5.483   8.846
 2413WAT     H1 7481   5.283   5.545   8.917
 2413WAT     H2 7482   5.322   5.463   8.781
 2414WAT      O 7483   5.226   4.101   1.032
 2414WAT     H1 7484   5.183   4.159   1.101
 2414WAT     H2 7485   5.299   4.048   1.075
 2415WAT      O 7486   8.059   2.699   2.516
 2415WAT     H1 7487   7.974   2.731   2.559
 2415WAT     H2 7488   8.089   2.766   2.448
 2416WAT      O 7489   9.540   4.946   8.668
 2416WAT     H1 7490   9.515   4.903   8.582
 2416WAT     H2 7491   9.603   5.022   8.651
 2417WAT      O 7492   3.895   4.309   9.438
 2417WAT     H1 7493   3.985   4.352   9.434
 2417WAT     H2 7494   3.849   4.336   9.523
 2418WAT      O 7495   4.734   5.432   8.904
 2418WAT     H1 7496   4.654   5.475   8.863
 2418WAT     H2 7497   4.741   5.337   8.871
 2419WAT      O 7498   4.098   5.567   0.692
 2419WAT     H1 7499   4.119   5.647   0.748
 2419WAT     H2 7500   4.146   5.487   0.729
 2420WAT      O 7501   0.530   1.449   2.213
 2420WAT     H1 7502   0.621   1.472   2.178
 2420WAT     H2 7503   0.517   1.350   2.206
 2421WAT      O 7504   7.878   5.607   1.678
 2421WAT     H1 7505   7.798   5.668   1.681
 2421WAT     H2 7506   7.869   5.538   1.751
 2422WAT      O 7507   2.657   2.080   9.072
 2422WAT     H1 7508   2.567   2.092   9.029
 2422WAT     H2 7509   2.728   2.114   9.010
 2423WAT      O 7510   0.356   5.443   1.599
 2423WAT     H1 7511   0.362   5.520   1.663
 2423WAT     H2 7512   0.268   5.445   1.552
 2424WAT      O 7513   1.583   5.473   3.559
 2424WAT     H1 7514   1.589   5.417   3.476
 2424WAT     H2 7515   1.536   5.559   3.538
 2425WAT      O 7516   5.069   4.313   7.590
 2425WAT     H1 7517   5.044   4.352   7.501
 2425WAT     H2 7518   5.113   4.383   7.646
 2426WAT      O 7519   5.445   4.520   8.293
 2426WAT     H1 7520   5.438   4.476   8.203
 2426WAT     H2 7521   5.498   4.461   8.354
 2427WAT      O 7522   1.842   3.181   1.483
 2427WAT     H1 7523   1.802   3.240   1.414
 2427WAT     H2 7524   1.911   3.232   1.535
 2428WAT      O 7525   7.424   5.686   0.466
 2428WAT     H1 7526   7.423   5.587   0.478
 2428WAT     H2 7527   7.342   5.726   0.508
 2429WAT      O 7528   0.509   4.523   2.647
 2429WAT     H1 7529   0.508   4.619   2.619
 2429WAT     H2 7530   0.590   4.478   2.609
 2430WAT      O 7531   6.725   7.323   3.971
 2430WAT     H1 7532   6.668   7.329   3.889
 2430WAT     H2 7533   6.731   7.413   4.014
 2431WAT      O 7534   9.288   4.725   9.445
 2431WAT     H1 7535   9.239   4.711   9.531
 2431WAT     H2 7536   9.345   4.806   9.451
 2432WAT      O 7537   3.175   7.740   7.262
 2432WAT     H1 7538   3.259   7.700   7.227
 2432WAT     H2 7539   3.140   7.685   7.337
 2433WAT      O 7540   9.193   4.425   5.004
 2433WAT     H1 7541   9.242   4.509   5.024
 2433WAT     H2 7542   9.181   4.415   4.905
 2434WAT      O 7543   7.329   3.033   0.504
 2434WAT     H1 7544   7.315   3.032   0.603
 2434WAT     H2 7545   7.247   2.998   0.459
 2435WAT      O 7546   6.579   1.113   5.932
 2435WAT     H1 7547   6.505   1.056   5.896
 2435WAT     H2 7548   6.656   1.112   5.868
 2436WAT      O 7549   8.172   7.250   0.240
 2436WAT     H1 7550   8.161   7.206   0.330
 2436WAT     H2 7551   8.083   7.254   0.194
 2437WAT      O 7552   4.230   3.088   5.800
 2437WAT     H1 7553   4.151   3.146   5.782
 2437WAT     H2 7554   4.228   3.009   5.738
 2438WAT      O 7555   3.706   3.018   1.130
 2438WAT     H1 7556   3.667   3.058   1.047
 2438WAT     H2 7557   3.649   3.040   1.209
 2439WAT      O 7558   1.767   4.007   9.592
 2439WAT     H1 7559   1.667   4.005   9.586
 2439WAT     H2 7560   1.803   4.067   9.520
 2440WAT      O 7561   9.057   2.066   8.557
 2440WAT     H1 7562   8.968   2.050   8.598
 2440WAT     H2 7563   9.112   1.983   8.564
 2441WAT      O 7564   8.664   1.724   8.329
 2441WAT     H1 7565   8.750   1.737   8.378
 2441WAT     H2 7566   8.652   1.799   8.263
 2442WAT      O 7567   2.222   7.693   0.755
 2442WAT     H1 7568   2.287   7.767   0.775
 2442WAT     H2 7569   2.261   7.633   0.685
 2443WAT      O 7570   9.875   5.663   0.173
 2443WAT     H1 7571   9.869   5.564   0.165
 2443WAT     H2 7572   9.839   5.692   0.262
 2444WAT      O 7573   8.564   9.439   6.270
 2444WAT     H1 7574   8.646   9.398   6.310
 2444WAT     H2 7575   8.583   9.465   6.175
 2445WAT      O 7576   5.365   3.130   1.681
 2445WAT     H1 7577   5.292   3.073   1.719
 2445WAT     H2 7578   5.419   3.169   1.755
 2446WAT      O 7579   9.862   7.965   0.891
 2446WAT     H1 7580   9.953   7.963   0.933
 2446WAT     H2 7581   9.833   8.060   0.880
 2447WAT      O 7582   9.681   7.704   5.171
 2447WAT     H1 7583   9.656   7.647   5.249
 2447WAT     H2 7584   9.649   7.798   5.187
 2448WAT      O 7585   4.313   3.965   1.106
 2448WAT     H1 7586   4.221   3.991   1.135
 2448WAT     H2 7587   4.365   4.046   1.081
 2449WAT      O 7588   3.162   8.662   2.457
 2449WAT     H1 7589   3.125   8.582   2.503
 2449WAT     H2 7590   3.166   8.645   2.358
 2450WAT      O 7591   4.212   9.636   8.960
 2450WAT     H1 7592   4.113   9.649   8.962
 2450WAT     H2 7593   4.234   9.539   8.968
 2451WAT      O 7594   3.836   7.678   2.668
 2451WAT     H1 7595   3.748   7.726   2.664
 2451WAT     H2 7596   3.906   7.739   2.703
 2452WAT      O 7597   5.375   7.780   9.556
 2452WAT     H1 7598   5.462   7.748   9.593
 2452WAT     H2 7599   5.353   7.727   9.474
 2453WAT      O 7600   0.641   7.713   1.641
 2453WAT     H1 7601   0.632   7.729   1.543
 2453WAT     H2 7602   0.678   7.796   1.684
 2454WAT      O 7603   7.581   4.400   7.121
 2454WAT     H1 7604   7.559   4.312   7.164
 2454WAT     H2 7605   7.515   4.417   7.048
 2455WAT      O 7606   8.584   9.486   5.605
 2455WAT     H1 7607   8.654   9.495   5.676
 2455WAT     H2 7608   8.616   9.529   5.520
 2456WAT      O 7609   1.915   1.232   9.227
 2456WAT     H1 7610   1.857   1.156   9.197
 2456WAT     H2 7611   1.892   1.314   9.176
 2457WAT      O 7612   7.967   3.571   4.613
 2457WAT     H1 7613   8.040   3.573   4.681
 2457WAT     H2 7614   7.894   3.634   4.640
 2458WAT      O 7615   6.714   2.788   2.553
 2458WAT     H1 7616   6.751   2.740   2.474
 2458WAT     H2 7617   6.627   2.747   2.580
 2459WAT      O 7618   1.815   5.382   1.284
 2459WAT     H1 7619   1.776   5.292   1.264
 2459WAT     H2 7620   1.914   5.379   1.274
 2460WAT      O 7621   7.374   7.248   4.647
 2460WAT     H1 7622   7.468   7.282   4.645
 2460WAT     H2 7623   7.312   7.323   4.674
 2461WAT      O 7624   2.050   7.909   0.429
 2461WAT     H1 7625   2.031   8.002   0.460
 2461WAT     H2 7626   2.030   7.844   0.502
 2462WAT      O 7627   5.956   0.318   1.904
 2462WAT     H1 7628   6.038   0.359   1.944
 2462WAT     H2 7629   5.927   0.240   1.959
 2463WAT      O 7630   5.335   1.562   7.852
 2463WAT     H1 7631   5.336   1.535   7.756
 2463WAT     H2 7632   5.263   1.513   7.901
 2464WAT      O 7633   3.769   8.640   1.814
 2464WAT     H1 7634   3.709   8.565   1.786
 2464WAT     H2 7635   3.782   8.704   1.738
 2465WAT      O 7636   3.899   4.166   7.933
 2465WAT     H1 7637   3.967   4.227   7.892
 2465WAT     H2 7638   3.808   4.200   7.915
 2466WAT      O 7639   7.422   5.060   8.326
 2466WAT     H1 7640   7.471   5.129   8.273
 2466WAT     H2 7641   7.422   4.973   8.277
 2467WAT      O 7642   0.462   0.463   6.895
 2467WAT     H1 7643   0.364   0.475   6.906
 2467WAT     H2 7644   0.480   0.403   6.816
 2468WAT      O 7645   9.533   4.475   8.883
 2468WAT     H1 7646   9.582   4.459   8.969
 2468WAT     H2 7647   9.520   4.574   8.870
 2469WAT      O 7648   4.852   3.838   9.157
 2469WAT     H1 7649   4.887   3.794   9.074
 2469WAT     H2 7650   4.771   3.893   9.134
 2470WAT      O 7651   5.586   0.898   4.691
 2470WAT     H1 7652   5.658   0.934   4.749
 2470WAT     H2 7653   5.624   0.833   4.625
 2471WAT      O 7654   3.966   5.818   1.764
 2471WAT     H1 7655   3.947   5.729   1.804
 2471WAT     H2 7656   3.965   5.810   1.664
 2472WAT      O 7657   4.253   5.799   7.032
 2472WAT     H1 7658   4.218   5.743   7.107
 2472WAT     H2 7659   4.267   5.741   6.951
 2473WAT      O 7660   2.379   8.734   1.825
 2473WAT     H1 7661   2.340   8.658   1.773
 2473WAT     H2 7662   2.414   8.700   1.912
 2474WAT      O 7663   1.807   8.098   2.646
 2474WAT     H1 7664   1.759   8.184   2.667
 2474WAT     H2 7665   1.862   8.072   2.725
 2475WAT      O 7666   4.901   1.738   1.322
 2475WAT     H1 7667   4.957   1.816   1.350
 2475WAT     H2 7668   4.902   1.668   1.393
 2476WAT      O 7669   0.232   3.469   7.065
 2476WAT     H1 7670   0.252   3.564   7.039
 2476WAT     H2 7671   0.285   3.407   7.008
 2477WAT      O 7672   1.676   9.340   7.253
 2477WAT     H1 7673   1.594   9.295   7.289
 2477WAT     H2 7674   1.725   9.385   7.327
 2478WAT      O 7675   1.823   4.358   6.225
 2478WAT     H1 7676   1.840   4.328   6.319
 2478WAT     H2 7677   1.804   4.456   6.224
 2479WAT      O 7678   8.225   2.559   6.087
 2479WAT     H1 7679   8.135   2.588   6.118
 2479WAT     H2 7680   8.275   2.517   6.162
 2480WAT      O 7681   8.185   2.783   6.605
 2480WAT     H1 7682   8.199   2.823   6.515
 2480WAT     H2 7683   8.240   2.833   6.673
 2481WAT      O 7684   2.346   5.300   7.452
 2481WAT     H1 7685   2.374   5.392   7.423
 2481WAT     H2 7686   2.262   5.274   7.404
 2482WAT      O 7687   2.911   5.556   2.082
 2482WAT     H1 7688   2.892   5.640   2.032
 2482WAT     H2 7689   2.918   5.576   2.179
 2483WAT      O 7690   9.065   9.600   9.594
 2483WAT     H1 7691   9.022   9.641   9.674
 2483WAT     H2 7692   9.145   9.548   9.623
 2484WAT      O 7693   3.497   7.006   0.847
 2484WAT     H1 7694   3.584   6.958   0.846
 2484WAT     H2 7695   3.506   7.092   0.898
 2485WAT      O 7696   0.040   5.397   9.487
 2485WAT     H1 7697   0.069   5.324   9.549
 2485WAT     H2 7698   0.100   5.476   9.498
 2486WAT      O 7699   1.188   5.466   6.225
 2486WAT     H1 7700   1.257   5.508   6.283
 2486WAT     H2 7701   1.230   5.436   6.139
 2487WAT      O 7702   3.736   9.333   0.345
 2487WAT     H1 7703   3.652   9.278   0.345
 2487WAT     H2 7704   3.757   9.361   0.251
 2488WAT      O 7705   6.846   7.017   6.271
 2488WAT     H1 7706   6.914   7.090   6.265
 2488WAT     H2 7707   6.813   6.995   6.179
 2489WAT      O 7708   2.981   8.537   8.688
 2489WAT     H1 7709   3.027   8.620   8.719
 2489WAT     H2 7710   3.047   8.462   8.682
 2490WAT      O 7711   6.058   8.506   1.430
 2490WAT     H1 7712   6.032   8.428   1.486
 2490WAT     H2 7713   6.005   8.587   1.458
 2491WAT      O 7714   3.852   2.653   6.529
 2491WAT     H1 7715   3.936   2.644   6.582
 2491WAT     H2 7716   3.773   2.643   6.590
 2492WAT      O 7717   7.927   7.732   7.909
 2492WAT     H1 7718   7.897   7.661   7.973
 2492WAT     H2 7719   8.016   7.707   7.871
 2493WAT      O 7720   2.329   8.860   6.422
 2493WAT     H1 7721   2.257   8.915   6.464
 2493WAT     H2 7722   2.414   8.872   6.473
 2494WAT      O 7723   6.162   1.624   3.981
 2494WAT     H1 7724   6.227   1.618   4.057
 2494WAT     H2 7725   6.073   1.654   4.015
 2495WAT      O 7726   1.605   1.879   4.255
 2495WAT     H1 7727   1.656   1.958   4.222
 2495WAT     H2 7728   1.578   1.822   4.177
 2496WAT      O 7729   1.924   5.423   6.384
 2496WAT     H1 7730   1.919   5.333   6.428
 2496WAT     H2 7731   1.938   5.411   6.286
 2497WAT      O 7732   1.930   8.773   5.518
 2497WAT     H1 7733   1.931   8.846   5.450
 2497WAT     H2 7734   2.002   8.707   5.496
 2498WAT      O 7735   0.445   3.960   3.545
 2498WAT     H1 7736   0.404   3.892   3.605
 2498WAT     H2 7737   0.391   3.968   3.461
 2499WAT      O 7738   8.504   8.629   6.148
 2499WAT     H1 7739   8.416   8.581   6.149
 2499WAT     H2 7740   8.575   8.569   6.184
 2500WAT      O 7741   3.801   3.923   2.685
 2500WAT     H1 7742   3.891   3.902   2.646
 2500WAT     H2 7743   3.806   4.008   2.737
 2501WAT      O 7744   9.744   4.039   1.635
 2501WAT     H1 7745   9.825   4.082   1.673
 2501WAT     H2 7746   9.739   4.056   1.536
 2502WAT      O 7747   5.267   0.446   0.699
 2502WAT     H1 7748   5.213   0.375   0.653
 2502WAT     H2 7749   5.331   0.404   0.762
 2503WAT      O 7750   6.121   1.643   7.828
 2503WAT     H1 7751   6.124   1.734   7.870
 2503WAT     H2 7752   6.028   1.623   7.798
 2504WAT      O 7753   6.138   2.462   9.759
 2504WAT     H1 7754   6.065   2.427   9.701
 2504WAT     H2 7755   6.227   2.444   9.715
 2505WAT      O 7756   9.763   9.678   9.785
 2505WAT     H1 7757   9.792   9.583   9.775
 2505WAT     H2 7758   9.827   9.738   9.738
 2506WAT      O 7759   8.451   4.130   3.018
 2506WAT     H1 7760   8.506   4.132   3.102
 2506WAT     H2 7761   8.361   4.090   3.037
 2507WAT      O 7762   9.742   9.654   8.241
 2507WAT     H1 7763   9.752   9.557   8.217
 2507WAT     H2 7764   9.803   9.708   8.183
 2508WAT      O 7765   1.189   5.243   3.723
 2508WAT     H1 7766   1.139   5.303   3.660
 2508WAT     H2 7767   1.276   5.286   3.747
 2509WAT      O 7768   9.474   3.564   3.968
 2509WAT     H1 7769   9.379   3.596   3.959
 2509WAT     H2 7770   9.500   3.564   4.064
 2510WAT      O 7771   3.165   9.766   0.746
 2510WAT     H1 7772   3.066   9.775   0.752
 2510WAT     H2 7773   3.196   9.695   0.809
 2511WAT      O 7774   3.038   5.830   7.062
 2511WAT     H1 7775   3.009   5.804   6.970
 2511WAT     H2 7776   2.973   5.794   7.129
 2512WAT      O 7777   0.350   9.026   3.466
 2512WAT     H1 7778   0.338   9.052   3.370
 2512WAT     H2 7779   0.286   9.078   3.523
 2513WAT      O 7780   7.304   7.869   6.208
 2513WAT     H1 7781   7.278   7.898   6.300
 2513WAT     H2 7782   7.390   7.915   6.183
 2514WAT      O 7783   1.029   7.558   0.947
 2514WAT     H1 7784   1.034   7.474   0.893
 2514WAT     H2 7785   1.069   7.543   1.037
 2515WAT      O 7786   6.181   3.824   3.769
 2515WAT     H1 7787   6.170   3.896   3.837
 2515WAT     H2 7788   6.156   3.736   3.810
 2516WAT      O 7789   5.580   5.048   6.658
 2516WAT     H1 7790   5.530   4.984   6.717
 2516WAT     H2 7791   5.631   5.113   6.714
 2517WAT      O 7792   7.352   5.304   9.849
 2517WAT     H1 7793   7.303   5.375   9.899
 2517WAT     H2 7794   7.434   5.343   9.808
 2518WAT      O 7795   6.356   0.662   4.085
 2518WAT     H1 7796   6.266   0.694   4.115
 2518WAT     H2 7797   6.374   0.694   3.992
 2519WAT      O 7798   5.160   3.357   5.617
 2519WAT     H1 7799   5.139   3.265   5.650
 2519WAT     H2 7800   5.258   3.366   5.603
 2520WAT      O 7801   9.835   8.502   7.373
 2520WAT     H1 7802   9.813   8.596   7.348
 2520WAT     H2 7803   9.825   8.443   7.293
 2521WAT      O 7804   9.605   5.364   3.024
 2521WAT     H1 7805   9.642   5.442   3.074
 2521WAT     H2 7806   9.633   5.368   2.928
 2522WAT      O 7807   4.000   7.179   3.061
 2522WAT     H1 7808   4.072   7.243   3.086
 2522WAT     H2 7809   3.912   7.213   3.094
 2523WAT      O 7810   7.089   3.578   1.656
 2523WAT     H1 7811   7.096   3.530   1.744
 2523WAT     H2 7812   6.994   3.582   1.628
 2524WAT      O 7813   7.464   8.023   2.022
 2524WAT     H1 7814   7.402   8.072   1.960
 2524WAT     H2 7815   7.412   7.957   2.076
 2525WAT      O 7816   9.764   3.766   1.304
 2525WAT     H1 7817   9.850   3.818   1.302
 2525WAT     H2 7818   9.757   3.712   1.220
 2526WAT      O 7819   4.049   1.810   7.690
 2526WAT     H1 7820   4.058   1.737   7.622
 2526WAT     H2 7821   4.052   1.898   7.644
 2527WAT      O 7822   7.663   2.357   3.842
 2527WAT     H1 7823   7.617   2.445   3.851
 2527WAT     H2 7824   7.609   2.297   3.784
 2528WAT      O 7825   4.717   0.309   5.532
 2528WAT     H1 7826   4.799   0.299   5.475
 2528WAT     H2 7827   4.679   0.219   5.551
 2529WAT      O 7828   5.681   2.775   3.661
 2529WAT     H1 7829   5.763   2.722   3.681
 2529WAT     H2 7830   5.600   2.720   3.679
 2530WAT      O 7831   4.674   5.048   6.394
 2530WAT     H1 7832   4.599   5.114   6.401
 2530WAT     H2 7833   4.671   5.004   6.305
 2531WAT      O 7834   8.947   6.843   8.088
 2531WAT     H1 7835   8.943   6.807   8.181
 2531WAT     H2 7836   8.905   6.934   8.086
 2532WAT      O 7837   5.674   1.818   6.333
 2532WAT     H1 7838   5.760   1.824   6.385
 2532WAT     H2 7839   5.601   1.863   6.383
 2533WAT      O 7840   1.608   3.295   1.856
 2533WAT     H1 7841   1.589   3.197   1.858
 2533WAT     H2 7842   1.571   3.338   1.939
 2534WAT      O 7843   7.995   1.010   9.829
 2534WAT     H1 7844   8.029   1.047   9.743
 2534WAT     H2 7845   8.070   1.004   9.895
 2535WAT      O 7846   2.767   5.161   7.927
 2535WAT     H1 7847   2.740   5.170   8.023
 2535WAT     H2 7848   2.839   5.092   7.919
 2536WAT      O 7849   5.461   2.312   6.657
 2536WAT     H1 7850   5.453   2.393   6.714
 2536WAT     H2 7851   5.380   2.255   6.668
 2537WAT      O 7852   2.474   4.955   3.409
 2537WAT     H1 7853   2.524   5.041   3.424
 2537WAT     H2 7854   2.391   4.955   3.464
 2538WAT      O 7855   1.037   8.324   2.786
 2538WAT     H1 7856   1.014   8.242   2.838
 2538WAT     H2 7857   1.069   8.299   2.695
 2539WAT      O 7858   1.418   2.200   6.978
 2539WAT     H1 7859   1.389   2.286   7.020
 2539WAT     H2 7860   1.410   2.126   7.045
 2540WAT      O 7861   9.356   8.718   5.648
 2540WAT     H1 7862   9.304   8.757   5.572
 2540WAT     H2 7863   9.449   8.696   5.617
 2541WAT      O 7864   3.659   8.538   7.198
 2541WAT     H1 7865   3.655   8.503   7.291
 2541WAT     H2 7866   3.662   8.638   7.200
 2542WAT      O 7867   5.871   7.455   1.737
 2542WAT     H1 7868   5.938   7.500   1.797
 2542WAT     H2 7869   5.901   7.361   1.719
 2543WAT      O 7870   9.442   7.090   0.670
 2543WAT     H1 7871   9.355   7.057   0.631
 2543WAT     H2 7872   9.477   7.165   0.614
 2544WAT      O 7873   4.999   1.339   8.834
 2544WAT     H1 7874   4.904   1.309   8.827
 2544WAT     H2 7875   5.002   1.432   8.871
 2545WAT      O 7876   3.513   0.904   3.014
 2545WAT     H1 7877   3.460   0.841   3.070
 2545WAT     H2 7878   3.603   0.865   2.996
 2546WAT      O 7879   0.122   5.807   8.626
 2546WAT     H1 7880   0.186   5.881   8.607
 2546WAT     H2 7881   0.029   5.841   8.620
 2547WAT      O 7882   0.313   8.265   8.991
 2547WAT     H1 7883   0.273   8.254   9.082
 2547WAT     H2 7884   0.254   8.222   8.922
 2548WAT      O 7885   8.677   0.791   4.364
 2548WAT     H1 7886   8.609   0.751   4.425
 2548WAT     H2 7887   8.639   0.798   4.271
 2549WAT      O 7888   2.272   2.361   2.251
 2549WAT     H1 7889   2.239   2.392   2.340
 2549WAT     H2 7890   2.372   2.360   2.251
 2550WAT      O 7891   6.150   9.282   8.181
 2550WAT     H1 7892   6.235   9.326   8.209
 2550WAT     H2 7893   6.155   9.259   8.084
 2551WAT      O 7894   4.019   5.140   5.876
 2551WAT     H1 7895   3.936   5.166   5.826
 2551WAT     H2 7896   4.063   5.064   5.830
 2552WAT      O 7897   6.808   3.871   1.643
 2552WAT     H1 7898   6.760   3.948   1.686
 2552WAT     H2 7899   6.772   3.785   1.679
 2553WAT      O 7900   5.520   9.479   6.972
 2553WAT     H1 7901   5.556   9.519   7.057
 2553WAT     H2 7902   5.421   9.491   6.969
 2554WAT      O 7903   3.366   9.775   1.053
 2554WAT     H1 7904   3.283   9.737   1.094
 2554WAT     H2 7905   3.378   9.869   1.084
 2555WAT      O 7906   5.546   8.189   3.554
 2555WAT     H1 7907   5.641   8.222   3.550
 2555WAT     H2 7908   5.518   8.159   3.462
 2556WAT      O 7909   6.145   5.776   5.027
 2556WAT     H1 7910   6.078   5.726   5.081
 2556WAT     H2 7911   6.211   5.712   4.988
 2557WAT      O 7912   6.704   0.294   0.370
 2557WAT     H1 7913   6.733   0.298   0.275
 2557WAT     H2 7914   6.638   0.367   0.388
 2558WAT      O 7915   7.868   4.348   7.139
 2558WAT     H1 7916   7.882   4.377   7.234
 2558WAT     H2 7917   7.773   4.364   7.113
 2559WAT      O 7918   3.524   0.007   0.537
 2559WAT     H1 7919   3.486  -0.073   0.492
 2559WAT     H2 7920   3.458   0.044   0.603
 2560WAT      O 7921   5.280   7.995   8.862
 2560WAT     H1 7922   5.244   7.902   8.857
 2560WAT     H2 7923   5.216   8.053   8.912
 2561WAT      O 7924   8.810   3.051   6.470
 2561WAT     H1 7925   8.716   3.029   6.446
 2561WAT     H2 7926   8.833   3.007   6.557
 2562WAT      O 7927   8.633   0.053   5.029
 2562WAT     H1 7928   8.645   0.039   4.931
 2562WAT     H2 7929   8.600  -0.031   5.072
 2563WAT      O 7930   3.312   4.895   3.581
 2563WAT     H1 7931   3.255   4.976   3.596
 2563WAT     H2 7932   3.403   4.910   3.619
 2564WAT      O 7933   7.989   5.441   1.506
 2564WAT     H1 7934   7.999   5.487   1.419
 2564WAT     H2 7935   7.930   5.495   1.566
 2565WAT      O 7936   2.359   0.191   4.268
 2565WAT     H1 7937   2.456   0.200   4.245
 2565WAT     H2 7938   2.347   0.206   4.366
 2566WAT      O 7939   7.116   3.119   4.298
 2566WAT     H1 7940   7.045   3.112   4.367
 2566WAT     H2 7941   7.200   3.075   4.332
 2567WAT      O 7942   0.113   6.200   5.134
 2567WAT     H1 7943   0.183   6.271   5.131
 2567WAT     H2 7944   0.062   6.199   5.048
 2568WAT      O 7945   2.795   9.593   0.778
 2568WAT     H1 7946   2.781   9.523   0.709
 2568WAT     H2 7947   2.815   9.681   0.733
 2569WAT      O 7948   8.880   6.588   7.350
 2569WAT     H1 7949   8.837   6.567   7.262
 2569WAT     H2 7950   8.853   6.520   7.418
 2570WAT      O 7951   6.004   2.060   3.537
 2570WAT     H1 7952   6.024   2.149   3.579
 2570WAT     H2 7953   6.088   2.007   3.530
 2571WAT      O 7954   0.148   5.727   9.482
 2571WAT     H1 7955   0.114   5.671   9.406
 2571WAT     H2 7956   0.184   5.813   9.447
 2572WAT      O 7957   7.067   3.559   1.216
 2572WAT     H1 7958   7.116   3.533   1.299
 2572WAT     H2 7959   7.085   3.491   1.145
 2573WAT      O 7960   4.718   7.616   5.349
 2573WAT     H1 7961   4.727   7.553   5.425
 2573WAT     H2 7962   4.622   7.623   5.322
 2574WAT      O 7963   1.605   7.879   9.514
 2574WAT     H1 7964   1.572   7.938   9.440
 2574WAT     H2 7965   1.588   7.924   9.602
 2575WAT      O 7966   0.336   1.474   1.650
 2575WAT     H1 7967   0.395   1.553   1.633
 2575WAT     H2 7968   0.274   1.462   1.572
 2576WAT      O 7969   4.699   1.531   8.218
 2576WAT     H1 7970   4.729   1.569   8.305
 2576WAT     H2 7971   4.715   1.597   8.145
 2577WAT      O 7972   4.545   5.679   7.135
 2577WAT     H1 7973   4.532   5.583   7.159
 2577WAT     H2 7974   4.456   5.719   7.111
 2578WAT      O 7975   0.935   0.895   4.642
 2578WAT     H1 7976   0.871   0.883   4.718
 2578WAT     H2 7977   1.026   0.861   4.669
 2579WAT      O 7978   9.138   4.646   7.454
 2579WAT     H1 7979   9.117   4.736   7.492
 2579WAT     H2 7980   9.114   4.575   7.522
 2580WAT      O 7981   0.536   1.299   5.216
 2580WAT     H1 7982   0.554   1.398   5.212
 2580WAT     H2 7983   0.599   1.256   5.281
 2581WAT      O 7984   5.005   5.441   0.128
 2581WAT     H1 7985   4.906   5.452   0.139
 2581WAT     H2 7986   5.026   5.426   0.032
 2582WAT      O 7987   8.945   8.307   6.209
 2582WAT     H1 7988   8.997   8.353   6.137
 2582WAT     H2 7989   8.999   8.305   6.293
 2583WAT      O 7990   1.186   4.251   9.880
 2583WAT     H1 7991   1.243   4.222   9.957
 2583WAT     H2 7992   1.158   4.346   9.893
 2584WAT      O 7993   9.443   4.858   1.569
 2584WAT     H1 7994   9.499   4.784   1.605
 2584WAT     H2 7995   9.486   4.946   1.589
 2585WAT      O 7996   1.118   2.759   9.223
 2585WAT     H1 7997   1.182   2.835   9.228
 2585WAT     H2 7998   1.034   2.783   9.271
 2586WAT      O 7999   4.268   2.072   7.329
 2586WAT     H1 8000   4.308   2.137   7.395
 2586WAT     H2 8001   4.187   2.029   7.370
 2587WAT      O 8002   8.265   3.410   5.182
 2587WAT     H1 8003   8.206   3.360   5.245
 2587WAT     H2 8004   8.243   3.385   5.088
 2588WAT      O 8005   3.664   8.445   7.837
 2588WAT     H1 8006   3.712   8.439   7.924
 2588WAT     H2 8007   3.731   8.446   7.762
 2589WAT      O 8008   2.819   1.631   6.673
 2589WAT     H1 8009   2.912   1.594   6.675
 2589WAT     H2 8010   2.768   1.588   6.599
 2590WAT      O 8011   2.956   6.556   6.806
 2590WAT     H1 8012   3.042   6.596   6.838
 2590WAT     H2 8013   2.946   6.464   6.843
 2591WAT      O 8014   4.668   7.964   1.196
 2591WAT     H1 8015   4.590   7.906   1.176
 2591WAT     H2 8016   4.704   8.001   1.110
 2592WAT      O 8017   2.523   5.510   8.718
 2592WAT     H1 8018   2.480   5.600   8.708
 2592WAT     H2 8019   2.525   5.464   8.630
 2593WAT      O 8020   4.118   9.462   5.188
 2593WAT     H1 8021   4.187   9.466   5.116
 2593WAT     H2 8022   4.163   9.477   5.277
 2594WAT      O 8023   2.685   6.219   9.666
 2594WAT     H1 8024   2.784   6.230   9.668
 2594WAT     H2 8025   2.662   6.122   9.680
 2595WAT      O 8026   9.273   7.299   7.891
 2595WAT     H1 8027   9.188   7.245   7.897
 2595WAT     H2 8028   9.351   7.238   7.899
 2596WAT      O 8029   0.151   7.211   5.973
 2596WAT     H1 8030   0.063   7.238   6.012
 2596WAT     H2 8031   0.224   7.265   6.017
 2597WAT      O 8032   2.300   4.363   4.372
 2597WAT     H1 8033   2.384   4.309   4.361
 2597WAT     H2 8034   2.241   4.351   4.292
 2598WAT      O 8035   7.367   0.325   2.288
 2598WAT     H1 8036   7.445   0.342   2.227
 2598WAT     H2 8037   7.317   0.410   2.303
 2599WAT      O 8038   8.036   7.830   7.100
 2599WAT     H1 8039   8.122   7.828   7.151
 2599WAT     H2 8040   8.048   7.882   7.016
 2600WAT      O 8041   7.393   2.670   3.635
 2600WAT     H1 8042   7.316   2.724   3.603
 2600WAT     H2 8043   7.477   2.723   3.625
 2601WAT      O 8044   6.567   6.800   9.053
 2601WAT     H1 8045   6.523   6.725   9.004
 2601WAT     H2 8046   6.513   6.822   9.135
 2602WAT      O 8047   2.355   3.044   4.332
 2602WAT     H1 8048   2.354   3.136   4.372
 2602WAT     H2 8049   2.380   2.978   4.403
 2603WAT      O 8050   8.409   5.516   1.467
 2603WAT     H1 8051   8.482   5.514   1.536
 2603WAT     H2 8052   8.442   5.476   1.382
 2604WAT      O 8053   1.882   1.621   3.696
 2604WAT     H1 8054   1.787   1.636   3.669
 2604WAT     H2 8055   1.942   1.677   3.640
 2605WAT      O 8056   2.658   1.046   1.204
 2605WAT     H1 8057   2.613   1.135   1.194
 2605WAT     H2 8058   2.709   1.045   1.290
 2606WAT      O 8059   5.436   1.751   6.663
 2606WAT     H1 8060   5.462   1.763   6.759
 2606WAT     H2 8061   5.337   1.741   6.657
 2607WAT      O 8062   0.886   5.523   1.184
 2607WAT     H1 8063   0.806   5.505   1.126
 2607WAT     H2 8064   0.874   5.611   1.230
 2608WAT      O 8065   0.594   8.183   9.024
 2608WAT     H1 8066   0.612   8.102   9.081
 2608WAT     H2 8067   0.499   8.212   9.037
 2609WAT      O 8068   1.640   7.558   4.069
 2609WAT     H1 8069   1.574   7.522   4.003
 2609WAT     H2 8070   1.600   7.556   4.160
 2610WAT      O 8071   0.180   7.160   4.840
 2610WAT     H1 8072   0.256   7.202   4.890
 2610WAT     H2 8073   0.205   7.067   4.813
 2611WAT      O 8074   5.149   0.022   9.666
 2611WAT     H1 8075   5.129   0.120   9.658
 2611WAT     H2 8076   5.092  -0.018   9.737
 2612WAT      O 8077   6.376   4.945   6.018
 2612WAT     H1 8078   6.354   5.027   6.070
 2612WAT     H2 8079   6.474   4.942   5.998
 2613WAT      O 8080   9.788   4.950   3.241
 2613WAT     H1 8081   9.716   4.893   3.200
 2613WAT     H2 8082   9.841   4.896   3.305
 2614WAT      O 8083   9.490   9.084   6.214
 2614WAT     H1 8084   9.462   9.032   6.294
 2614WAT     H2 8085   9.506   9.180   6.240
 2615WAT      O 8086   9.792   4.828   7.220
 2615WAT     H1 8087   9.865   4.763   7.197
 2615WAT     H2 8088   9.832   4.918   7.237
 2616WAT      O 8089   2.798   1.209   2.743
 2616WAT     H1 8090   2.862   1.284   2.761
 2616WAT     H2 8091   2.724   1.211   2.809
 2617WAT      O 8092   8.663   8.170   4.073
 2617WAT     H1 8093   8.683   8.106   3.999
 2617WAT     H2 8094   8.571   8.152   4.109
 2618WAT      O 8095   4.638   0.810   6.366
 2618WAT     H1 8096   4.592   0.858   6.441
 2618WAT     H2 8097   4.570   0.756   6.315
 2619WAT      O 8098   5.606   7.788   0.846
 2619WAT     H1 8099   5.532   7.735   0.806
 2619WAT     H2 8100   5.606   7.880   0.806
 2620WAT      O 8101   8.507   3.869   4.347
 2620WAT     H1 8102   8.595   3.903   4.381
 2620WAT     H2 8103   8.475   3.926   4.272
 2621WAT      O 8104   2.540   9.749   7.678
 2621WAT     H1 8105   2.528   9.783   7.585
 2621WAT     H2 8106   2.450   9.725   7.716
 2622WAT      O 8107   0.715   1.063   2.469
 2622WAT     H1 8108   0.704   1.122   2.389
 2622WAT     H2 8109   0.629   1.060   2.520
 2623WAT      O 8110   2.841   1.498   7.425
 2623WAT     H1 8111   2.908   1.568   7.452
 2623WAT     H2 8112   2.753   1.518   7.468
 2624WAT      O 8113   4.404   2.757   2.614
 2624WAT     H1 8114   4.449   2.684   2.666
 2624WAT     H2 8115   4.308   2.764   2.643
 2625WAT      O 8116   7.857   8.248   7.373
 2625WAT     H1 8117   7.894   8.201   7.293
 2625WAT     H2 8118   7.924   8.315   7.406
 2626WAT      O 8119   3.306   5.423   3.495
 2626WAT     H1 8120   3.288   5.393   3.402
 2626WAT     H2 8121   3.376   5.365   3.536
 2627WAT      O 8122   6.765   6.332   2.489
 2627WAT     H1 8123   6.769   6.281   2.403
 2627WAT     H2 8124   6.857   6.362   2.515
 2628WAT      O 8125   2.177   3.642   8.255
 2628WAT     H1 8126   2.235   3.627   8.175
 2628WAT     H2 8127   2.126   3.558   8.275
 2629WAT      O 8128   0.776   3.273   8.983
 2629WAT     H1 8129   0.796   3.370   8.966
 2629WAT     H2 8130   0.834   3.240   9.058
 2630WAT      O 8131   2.020   3.386   0.560
 2630WAT     H1 8132   2.050   3.432   0.476
 2630WAT     H2 8133   1.966   3.305   0.537
 2631WAT      O 8134   5.159   0.151   8.944
 2631WAT     H1 8135   5.137   0.062   8.985
 2631WAT     H2 8136   5.253   0.176   8.967
 2632WAT      O 8137   8.409   5.550   2.977
 2632WAT     H1 8138   8.484   5.559   2.911
 2632WAT     H2 8139   8.442   5.575   3.068
 2633WAT      O 8140   7.363   2.966   7.462
 2633WAT     H1 8141   7.397   2.900   7.396
 2633WAT     H2 8142   7.395   2.942   7.554
 2634WAT      O 8143   6.601   2.980   8.413
 2634WAT     H1 8144   6.540   2.901   8.413
 2634WAT     H2 8145   6.566   3.050   8.350
 2635WAT      O 8146   5.487   9.453   2.289
 2635WAT     H1 8147   5.503   9.549   2.312
 2635WAT     H2 8148   5.524   9.395   2.362
 2636WAT      O 8149   7.931   0.394   2.478
 2636WAT     H1 8150   7.878   0.323   2.431
 2636WAT     H2 8151   8.028   0.384   2.454
 2637WAT      O 8152   3.730   7.453   9.551
 2637WAT     H1 8153   3.727   7.406   9.639
 2637WAT     H2 8154   3.645   7.503   9.537
 2638WAT      O 8155   1.724   1.833   2.694
 2638WAT     H1 8156   1.707   1.930   2.676
 2638WAT     H2 8157   1.775   1.793   2.618
 2639WAT      O 8158   0.966   8.945   8.142
 2639WAT     H1 8159   0.867   8.938   8.142
 2639WAT     H2 8160   0.995   9.007   8.069
 2640WAT      O 8161   0.706   6.235   7.459
 2640WAT     H1 8162   0.782   6.177   7.431
 2640WAT     H2 8163   0.736   6.330   7.462
 2641WAT      O 8164   6.765   9.550   8.990
 2641WAT     H1 8165   6.845   9.606   8.969
 2641WAT     H2 8166   6.751   9.549   9.089
 2642WAT      O 8167   9.867   5.536   7.632
 2642WAT     H1 8168   9.913   5.468   7.691
 2642WAT     H2 8169   9.770   5.539   7.654
 2643WAT      O 8170   1.877   5.105   7.344
 2643WAT     H1 8171   1.795   5.056   7.371
 2643WAT     H2 8172   1.934   5.046   7.286
 2644WAT      O 8173   8.771   4.896   0.601
 2644WAT     H1 8174   8.856   4.904   0.549
 2644WAT     H2 8175   8.714   4.825   0.562
 2645WAT      O 8176   3.252   5.753   4.405
 2645WAT     H1 8177   3.192   5.767   4.483
 2645WAT     H2 8178   3.320   5.683   4.427
 2646WAT      O 8179   4.394   5.534   5.896
 2646WAT     H1 8180   4.483   5.518   5.940
 2646WAT     H2 8181   4.336   5.453   5.907
 2647WAT      O 8182   4.802   4.180   7.509
 2647WAT     H1 8183   4.834   4.247   7.577
 2647WAT     H2 8184   4.879   4.152   7.451
 2648WAT      O 8185   6.250   9.705   2.119
 2648WAT     H1 8186   6.332   9.761   2.132
 2648WAT     H2 8187   6.233   9.651   2.201
 2649WAT      O 8188   0.515   9.591   8.202
 2649WAT     H1 8189   0.493   9.675   8.252
 2649WAT     H2 8190   0.436   9.531   8.201
 2650WAT      O 8191   9.888   2.572   3.461
 2650WAT     H1 8192   9.920   2.490   3.509
 2650WAT     H2 8193   9.790   2.564   3.442
 2651WAT      O 8194   1.998   0.380   3.396
 2651WAT     H1 8195   2.014   0.478   3.389
 2651WAT     H2 8196   1.949   0.349   3.314
 2652WAT      O 8197   0.066   0.504   5.535
 2652WAT     H1 8198   0.112   0.416   5.521
 2652WAT     H2 8199   0.068   0.556   5.450
 2653WAT      O 8200   0.719   2.857   8.974
 2653WAT     H1 8201   0.727   2.904   9.061
 2653WAT     H2 8202   0.766   2.769   8.979
 2654WAT      O 8203   4.695   7.126   1.845
 2654WAT     H1 8204   4.745   7.074   1.776
 2654WAT     H2 8205   4.598   7.104   1.840
 2655WAT      O 8206   9.036   9.297   8.899
 2655WAT     H1 8207   9.058   9.392   8.876
 2655WAT     H2 8208   9.019   9.289   8.997
 2656WAT      O 8209   4.292   8.150   7.462
 2656WAT     H1 8210   4.293   8.051   7.453
 2656WAT     H2 8211   4.261   8.175   7.553
 2657WAT      O 8212   2.587   6.083   5.445
 2657WAT     H1 8213   2.539   6.141   5.511
 2657WAT     H2 8214   2.657   6.136   5.397
 2658WAT      O 8215   1.599   5.153   2.402
 2658WAT     H1 8216   1.600   5.072   2.461
 2658WAT     H2 8217   1.667   5.219   2.434
 2659WAT      O 8218   1.755   7.584   3.616
 2659WAT     H1 8219   1.764   7.608   3.713
 2659WAT     H2 8220   1.719   7.491   3.608
 2660WAT      O 8221   6.499   8.022   2.258
 2660WAT     H1 8222   6.542   7.953   2.200
 2660WAT     H2 8223   6.480   7.983   2.348
 2661WAT      O 8224   6.943   6.864   3.885
 2661WAT     H1 8225   6.928   6.824   3.795
 2661WAT     H2 8226   6.921   6.962   3.883
 2662WAT      O 8227   4.015   1.654   2.660
 2662WAT     H1 8228   3.987   1.732   2.716
 2662WAT     H2 8229   4.098   1.614   2.698
 2663WAT      O 8230   9.209   7.133   8.167
 2663WAT     H1 8231   9.220   7.233   8.167
 2663WAT     H2 8232   9.265   7.094   8.094
 2664WAT      O 8233   3.459   9.720   6.647
 2664WAT     H1 8234   3.394   9.784   6.689
 2664WAT     H2 8235   3.507   9.670   6.719
 2665WAT      O 8236   2.048   7.158   0.305
 2665WAT     H1 8237   2.077   7.113   0.390
 2665WAT     H2 8238   1.953   7.134   0.286
 2666WAT      O 8239   4.617   3.161   3.633
 2666WAT     H1 8240   4.677   3.124   3.704
 2666WAT     H2 8241   4.524   3.168   3.668
 2667WAT      O 8242   4.002   4.527   6.745
 2667WAT     H1 8243   3.993   4.622   6.776
 2667WAT     H2 8244   3.973   4.466   6.818
 2668WAT      O 8245   6.396   4.892   6.926
 2668WAT     H1 8246   6.478   4.947   6.909
 2668WAT     H2 8247   6.423   4.799   6.953
 2669WAT      O 8248   6.911   7.447   2.438
 2669WAT     H1 8249   6.913   7.365   2.495
 2669WAT     H2 8250   6.819   7.486   2.439
 2670WAT      O 8251   6.944   7.537   0.261
 2670WAT     H1 8252   6.958   7.528   0.163
 2670WAT     H2 8253   6.870   7.477   0.291
 2671WAT      O 8254   5.447   7.568   0.157
 2671WAT     H1 8255   5.445   7.478   0.114
 2671WAT     H2 8256   5.354   7.595   0.182
 2672WAT      O 8257   2.707   4.623   9.399
 2672WAT     H1 8258   2.665   4.697   9.452
 2672WAT     H2 8259   2.666   4.621   9.308
 2673WAT      O 8260   4.136   7.480   5.320
 2673WAT     H1 8261   4.102   7.524   5.237
 2673WAT     H2 8262   4.230   7.449   5.305
 2674WAT      O 8263   3.850   3.998   5.167
 2674WAT     H1 8264   3.900   4.010   5.081
 2674WAT     H2 8265   3.902   4.040   5.241
 2675WAT      O 8266   0.534   0.576   6.040
 2675WAT     H1 8267   0.472   0.576   5.962
 2675WAT     H2 8268   0.539   0.668   6.078
 2676WAT      O 8269   5.589   3.959   7.518
 2676WAT     H1 8270   5.686   3.942   7.502
 2676WAT     H2 8271   5.536   3.882   7.484
 2677WAT      O 8272   2.254   0.631   6.686
 2677WAT     H1 8273   2.347   0.595   6.682
 2677WAT     H2 8274   2.203   0.602   6.605
 2678WAT      O 8275   1.942   9.815   6.823
 2678WAT     H1 8276   1.875   9.880   6.788
 2678WAT     H2 8277   1.987   9.854   6.903
 2679WAT      O 8278   2.497   2.451   1.642
 2679WAT     H1 8279   2.406   2.492   1.636
 2679WAT     H2 8280   2.493   2.357   1.608
 2680WAT      O 8281   1.487   6.392   6.499
 2680WAT     H1 8282   1.422   6.417   6.428
 2680WAT     H2 8283   1.505   6.472   6.557
 2681WAT      O 8284   2.788   0.708   2.553
 2681WAT     H1 8285   2.779   0.756   2.640
 2681WAT     H2 8286   2.735   0.624   2.554
 2682WAT      O 8287   5.083   2.952   5.254
 2682WAT     H1 8288   5.146   2.925   5.180
 2682WAT     H2 8289   5.013   2.881   5.265
 2683WAT      O 8290   7.368   1.847   9.062
 2683WAT     H1 8291   7.299   1.780   9.091
 2683WAT     H2 8292   7.341   1.938   9.092
 2684WAT      O 8293   9.600   1.856   7.791
 2684WAT     H1 8294   9.571   1.949   7.768
 2684WAT     H2 8295   9.649   1.856   7.878
 2685WAT      O 8296   2.290   8.807   5.699
 2685WAT     H1 8297   2.241   8.894   5.698
 2685WAT     H2 8298   2.265   8.756   5.781
 2686WAT      O 8299   9.668   9.314   3.342
 2686WAT     H1 8300   9.721   9.389   3.383
 2686WAT     H2 8301   9.603   9.351   3.276
 2687WAT      O 8302   5.793   1.983   3.085
 2687WAT     H1 8303   5.855   2.029   3.021
 2687WAT     H2 8304   5.839   1.972   3.173
 2688WAT      O 8305   8.327   4.796   5.336
 2688WAT     H1 8306   8.379   4.882   5.341
 2688WAT     H2 8307   8.250   4.807   5.273
 2689WAT      O 8308   4.979   0.149   4.263
 2689WAT     H1 8309   4.925   0.215   4.315
 2689WAT     H2 8310   4.921   0.071   4.238
 2690WAT      O 8311   3.235   8.886   2.060
 2690WAT     H1 8312   3.311   8.838   2.015
 2690WAT     H2 8313   3.214   8.841   2.147
 2691WAT      O 8314   6.036   1.291   3.356
 2691WAT     H1 8315   5.976   1.275   3.435
 2691WAT     H2 8316   6.130   1.306   3.388
 2692WAT      O 8317   8.025   7.668   7.444
 2692WAT     H1 8318   7.925   7.674   7.442
 2692WAT     H2 8319   8.059   7.657   7.351
 2693WAT      O 8320   7.488   7.322   2.517
 2693WAT     H1 8321   7.443   7.235   2.540
 2693WAT     H2 8322   7.579   7.303   2.481
 2694WAT      O 8323   4.713   4.989   1.446
 2694WAT     H1 8324   4.775   5.061   1.419
 2694WAT     H2 8325   4.674   4.946   1.364
 2695WAT      O 8326   6.199   0.901   5.423
 2695WAT     H1 8327   6.239   0.833   5.485
 2695WAT     H2 8328   6.239   0.891   5.332
 2696WAT      O 8329   2.623   3.818   7.349
 2696WAT     H1 8330   2.720   3.838   7.334
 2696WAT     H2 8331   2.614   3.742   7.413
 2697WAT      O 8332   5.253   3.496   8.905
 2697WAT     H1 8333   5.321   3.424   8.890
 2697WAT     H2 8334   5.176   3.481   8.843
 2698WAT      O 8335   3.684   3.701   4.977
 2698WAT     H1 8336   3.641   3.787   5.004
 2698WAT     H2 8337   3.742   3.716   4.898
 2699WAT      O 8338   0.798   7.544   6.903
 2699WAT     H1 8339   0.822   7.579   6.812
 2699WAT     H2 8340   0.713   7.586   6.934
 2700WAT      O 8341   2.940   8.887   7.298
 2700WAT     H1 8342   2.904   8.801   7.262
 2700WAT     H2 8343   2.865   8.952   7.312
 2701WAT      O 8344   2.648   0.591   3.175
 2701WAT     H1 8345   2.664   0.524   3.247
 2701WAT     H2 8346   2.648   0.683   3.215
 2702WAT      O 8347   6.594   2.493   7.955
 2702WAT     H1 8348   6.567   2.579   7.912
 2702WAT     H2 8349   6.604   2.507   8.054
 2703WAT      O 8350   3.475   5.925   0.291
 2703WAT     H1 8351   3.503   5.829   0.297
 2703WAT     H2 8352   3.399   5.942   0.354
 2704WAT      O 8353   3.719   0.233   6.296
 2704WAT     H1 8354   3.812   0.233   6.260
 2704WAT     H2 8355   3.673   0.148   6.269
 2705WAT      O 8356   2.390   1.544   8.774
 2705WAT     H1 8357   2.363   1.538   8.870
 2705WAT     H2 8358   2.405   1.640   8.750
 2706WAT      O 8359   5.451   3.020   3.326
 2706WAT     H1 8360   5.411   3.014   3.418
 2706WAT     H2 8361   5.410   2.950   3.268
 2707WAT      O 8362   9.515   2.481   8.836
 2707WAT     H1 8363   9.457   2.429   8.898
 2707WAT     H2 8364   9.611   2.466   8.858
 2708WAT      O 8365   8.148   5.955   0.721
 2708WAT     H1 8366   8.199   5.899   0.656
 2708WAT     H2 8367   8.066   5.906   0.751
 2709WAT      O 8368   1.633   4.213   4.325
 2709WAT     H1 8369   1.699   4.221   4.250
 2709WAT     H2 8370   1.682   4.204   4.412
 2710WAT      O 8371   1.486   3.334   8.600
 2710WAT     H1 8372   1.568   3.275   8.607
 2710WAT     H2 8373   1.440   3.336   8.689
 2711WAT      O 8374   4.132   5.628   0.106
 2711WAT     H1 8375   4.040   5.594   0.126
 2711WAT     H2 8376   4.158   5.600   0.014
 2712WAT      O 8377   5.062   5.565   5.316
 2712WAT     H1 8378   5.109   5.506   5.381
 2712WAT     H2 8379   4.977   5.599   5.357
 2713WAT      O 8380   3.653   0.064   4.319
 2713WAT     H1 8381   3.613   0.140   4.268
 2713WAT     H2 8382   3.696  -0.000   4.256
 2714WAT      O 8383   9.106   1.453   2.962
 2714WAT     H1 8384   9.135   1.522   3.029
 2714WAT     H2 8385   9.070   1.500   2.881
 2715WAT      O 8386   7.860   3.171   6.021
 2715WAT     H1 8387   7.865   3.204   5.927
 2715WAT     H2 8388   7.820   3.241   6.080
 2716WAT      O 8389   1.190   0.610   7.628
 2716WAT     H1 8390   1.248   0.636   7.550
 2716WAT     H2 8391   1.134   0.689   7.654
 2717WAT      O 8392   0.943   6.855   7.790
 2717WAT     H1 8393   0.940   6.914   7.709
 2717WAT     H2 8394   1.038   6.835   7.814
 2718WAT      O 8395   4.155   8.001   3.761
 2718WAT     H1 8396   4.210   7.919   3.776
 2718WAT     H2 8397   4.205   8.065   3.703
 2719WAT      O 8398   4.854   8.562   9.583
 2719WAT     H1 8399   4.814   8.630   9.520
 2719WAT     H2 8400   4.940   8.597   9.619
 2720WAT      O 8401   8.905   2.619   5.232
 2720WAT     H1 8402   8.974   2.686   5.259
 2720WAT     H2 8403   8.813   2.656   5.248
 2721WAT      O 8404   6.992   7.053   7.506
 2721WAT     H1 8405   6.984   7.152   7.496
 2721WAT     H2 8406   7.017   7.012   7.419
 2722WAT      O 8407   8.517   5.418   4.787
 2722WAT     H1 8408   8.561   5.504   4.760
 2722WAT     H2 8409   8.428   5.436   4.826
 2723WAT      O 8410   0.464   6.484   5.830
 2723WAT     H1 8411   0.387   6.455   5.887
 2723WAT     H2 8412   0.536   6.415   5.835
 2724WAT      O 8413   1.780   4.405   2.381
 2724WAT     H1 8414   1.707   4.380   2.445
 2724WAT     H2 8415   1.743   4.466   2.311
 2725WAT      O 8416   1.495   5.031   1.952
 2725WAT     H1 8417   1.575   4.974   1.973
 2725WAT     H2 8418   1.481   5.097   2.026
 2726WAT      O 8419   9.455   4.696   9.817
 2726WAT     H1 8420   9.461   4.783   9.769
 2726WAT     H2 8421   9.539   4.680   9.869
 2727WAT      O 8422   4.701   6.999   0.468
 2727WAT     H1 8423   4.649   7.084   0.478
 2727WAT     H2 8424   4.639   6.925   0.441
 2728WAT      O 8425   3.620   6.505   2.394
 2728WAT     H1 8426   3.616   6.441   2.471
 2728WAT     H2 8427   3.671   6.587   2.422
 2729WAT      O 8428   9.606   1.587   5.379
 2729WAT     H1 8429   9.532   1.548   5.323
 2729WAT     H2 8430   9.601   1.686   5.378
 2730WAT      O 8431   1.832   7.372   6.904
 2730WAT     H1 8432   1.832   7.472   6.891
 2730WAT     H2 8433   1.922   7.343   6.935
 2731WAT      O 8434   1.739   2.702   6.984
 2731WAT     H1 8435   1.696   2.723   7.072
 2731WAT     H2 8436   1.793   2.781   6.954
 2732WAT      O 8437   7.173   2.794   6.542
 2732WAT     H1 8438   7.201   2.755   6.454
 2732WAT     H2 8439   7.224   2.749   6.616
 2733WAT      O 8440   3.020   9.601   3.661
 2733WAT     H1 8441   3.066   9.634   3.743
 2733WAT     H2 8442   2.927   9.637   3.659
 2734WAT      O 8443   8.601   4.274   6.224
 2734WAT     H1 8444   8.539   4.341   6.264
 2734WAT     H2 8445   8.618   4.298   6.128
 2735WAT      O 8446   5.070   9.593   3.393
 2735WAT     H1 8447   5.143   9.621   3.455
 2735WAT     H2 8448   4.985   9.640   3.417
 2736WAT      O 8449   4.819   0.877   0.431
 2736WAT     H1 8450   4.878   0.932   0.371
 2736WAT     H2 8451   4.858   0.876   0.524
 2737WAT      O 8452   5.988   2.185   3.217
 2737WAT     H1 8453   6.004   2.098   3.264
 2737WAT     H2 8454   6.074   2.220   3.181
 2738WAT      O 8455   8.733   5.729   2.271
 2738WAT     H1 8456   8.639   5.698   2.253
 2738WAT     H2 8457   8.767   5.779   2.191
 2739WAT      O 8458   7.838   5.666   2.381
 2739WAT     H1 8459   7.835   5.567   2.399
 2739WAT     H2 8460   7.852   5.681   2.283
 2740WAT      O 8461   6.518   4.106   0.292
 2740WAT     H1 8462   6.551   4.200   0.294
 2740WAT     H2 8463   6.593   4.044   0.267
 2741WAT      O 8464   3.845   9.701   6.677
 2741WAT     H1 8465   3.779   9.757   6.727
 2741WAT     H2 8466   3.825   9.705   6.579
 2742WAT      O 8467   3.220   4.444   9.696
 2742WAT     H1 8468   3.233   4.427   9.794
 2742WAT     H2 8469   3.226   4.357   9.647
 2743WAT      O 8470   3.882   2.949   1.874
 2743WAT     H1 8471   3.881   2.999   1.787
 2743WAT     H2 8472   3.835   3.002   1.944
 2744WAT      O 8473   9.521   1.738   4.658
 2744WAT     H1 8474   9.445   1.685   4.697
 2744WAT     H2 8475   9.607   1.701   4.692
 2745WAT      O 8476   1.226   8.157   8.649
 2745WAT     H1 8477   1.304   8.205   8.690
 2745WAT     H2 8478   1.244   8.059   8.650
 2746WAT      O 8479   1.628   5.151   8.234
 2746WAT     H1 8480   1.537   5.193   8.229
 2746WAT     H2 8481   1.621   5.055   8.208
 2747WAT      O 8482   4.177   2.108   9.168
 2747WAT     H1 8483   4.266   2.141   9.138
 2747WAT     H2 8484   4.133   2.177   9.226
 2748WAT      O 8485   6.624   9.653   3.539
 2748WAT     H1 8486   6.684   9.639   3.618
 2748WAT     H2 8487   6.529   9.645   3.569
 2749WAT      O 8488   8.774   5.151   5.432
 2749WAT     H1 8489   8.683   5.116   5.453
 2749WAT     H2 8490   8.778   5.180   5.337
 2750WAT      O 8491   0.320   1.443   5.341
 2750WAT     H1 8492   0.290   1.406   5.429
 2750WAT     H2 8493   0.393   1.386   5.303
 2751WAT      O 8494   8.543   6.068   0.485
 2751WAT     H1 8495   8.514   6.155   0.527
 2751WAT     H2 8496   8.631   6.081   0.440
 2752WAT      O 8497   9.599   9.791   8.432
 2752WAT     H1 8498   9.569   9.862   8.368
 2752WAT     H2 8499   9.665   9.731   8.386
 2753WAT      O 8500   1.900   8.439   6.090
 2753WAT     H1 8501   1.834   8.485   6.032
 2753WAT     H2 8502   1.908   8.487   6.178
 2754WAT      O 8503   9.581   6.351   6.827
 2754WAT     H1 8504   9.612   6.260   6.799
 2754WAT     H2 8505   9.582   6.357   6.926
 2755WAT      O 8506   7.182   5.414   9.296
 2755WAT     H1 8507   7.247   5.344   9.268
 2755WAT     H2 8508   7.090   5.389   9.266
 2756WAT      O 8509   4.261   5.799   9.564
 2756WAT     H1 8510   4.161   5.811   9.558
 2756WAT     H2 8511   4.297   5.782   9.472
 2757WAT      O 8512   8.324   4.786   4.935
 2757WAT     H1 8513   8.245   4.787   4.996
 2757WAT     H2 8514   8.302   4.836   4.851
 2758WAT      O 8515   7.704   2.580   7.788
 2758WAT     H1 8516   7.747   2.622   7.868
 2758WAT     H2 8517   7.769   2.519   7.743
 2759WAT      O 8518   4.267   1.565   2.702
 2759WAT     H1 8519   4.281   1.548   2.799
 2759WAT     H2 8520   4.322   1.643   2.674
 2760WAT      O 8521   7.587   9.572   9.149
 2760WAT     H1 8522   7.531   9.575   9.066
 2760WAT     H2 8523   7.549   9.634   9.217
 2761WAT      O 8524   7.558   2.143   6.722
 2761WAT     H1 8525   7.490   2.120   6.653
 2761WAT     H2 8526   7.637   2.185   6.678
 2762WAT      O 8527   7.906   6.575   5.857
 2762WAT     H1 8528   7.817   6.530   5.846
 2762WAT     H2 8529   7.894   6.674   5.856
 2763WAT      O 8530   2.737   7.133   8.678
 2763WAT     H1 8531   2.752   7.056   8.616
 2763WAT     H2 8532   2.645   7.127   8.717
 2764WAT      O 8533   7.452   2.730   0.174
 2764WAT     H1 8534   7.520   2.660   0.152
 2764WAT     H2 8535   7.404   2.705   0.258
 2765WAT      O 8536   0.747   3.751   3.095
 2765WAT     H1 8537   0.748   3.741   2.996
 2765WAT     H2 8538   0.811   3.823   3.122
 2766WAT      O 8539   2.939   4.119   9.312
 2766WAT     H1 8540   3.038   4.129   9.310
 2766WAT     H2 8541   2.896   4.208   9.323
 2767WAT      O 8542   8.354   0.891   2.533
 2767WAT     H1 8543   8.331   0.919   2.625
 2767WAT     H2 8544   8.271   0.866   2.483
 2768WAT      O 8545   4.939   6.101   5.049
 2768WAT     H1 8546   4.941   6.004   5.022
 2768WAT     H2 8547   4.885   6.153   4.983
 2769WAT      O 8548   5.061   4.872   4.747
 2769WAT     H1 8549   5.052   4.773   4.745
 2769WAT     H2 8550   5.150   4.899   4.710
 2770WAT      O 8551   5.579   5.507   6.535
 2770WAT     H1 8552   5.532   5.441   6.476
 2770WAT     H2 8553   5.511   5.565   6.580
 2771WAT      O 8554   5.521   2.307   8.083
 2771WAT     H1 8555   5.444   2.256   8.121
 2771WAT     H2 8556   5.598   2.305   8.146
 2772WAT      O 8557   6.103   1.889   1.957
 2772WAT     H1 8558   6.133   1.910   2.050
 2772WAT     H2 8559   6.005   1.908   1.949
 2773WAT      O 8560   4.681   4.915   6.914
 2773WAT     H1 8561   4.771   4.916   6.872
 2773WAT     H2 8562   4.658   5.006   6.947
 2774WAT      O 8563   0.312   6.416   0.853
 2774WAT     H1 8564   0.218   6.381   0.845
 2774WAT     H2 8565   0.329   6.482   0.780
 2775WAT      O 8566   2.565   2.196   9.313
 2775WAT     H1 8567   2.567   2.147   9.226
 2775WAT     H2 8568   2.655   2.235   9.332
 2776WAT      O 8569   4.276   0.860   8.375
 2776WAT     H1 8570   4.204   0.806   8.333
 2776WAT     H2 8571   4.302   0.935   8.314
 2777WAT      O 8572   9.071   3.604   4.905
 2777WAT     H1 8573   9.057   3.512   4.942
 2777WAT     H2 8574   8.996   3.664   4.933
 2778WAT      O 8575   1.768   1.012   1.029
 2778WAT     H1 8576   1.776   1.099   1.077
 2778WAT     H2 8577   1.854   0.962   1.036
 2779WAT      O 8578   5.532   8.141   3.269
 2779WAT     H1 8579   5.451   8.143   3.210
 2779WAT     H2 8580   5.611   8.177   3.218
 2780WAT      O 8581   3.450   9.284   9.435
 2780WAT     H1 8582   3.366   9.272   9.488
 2780WAT     H2 8583   3.427   9.297   9.339
 2781WAT      O 8584   2.115   7.160   6.344
 2781WAT     H1 8585   2.213   7.164   6.328
 2781WAT     H2 8586   2.089   7.068   6.371
 2782WAT      O 8587   1.703   1.272   8.712
 2782WAT     H1 8588   1.677   1.175   8.718
 2782WAT     H2 8589   1.794   1.284   8.752
 2783WAT      O 8590   5.056   1.358   2.929
 2783WAT     H1 8591   5.004   1.443   2.927
 2783WAT     H2 8592   5.124   1.359   2.856
 2784WAT      O 8593   1.103   2.456   0.028
 2784WAT     H1 8594   1.132   2.442   0.123
 2784WAT     H2 8595   1.039   2.533   0.024
 2785WAT      O 8596   9.052   9.453   2.074
 2785WAT     H1 8597   9.123   9.393   2.036
 2785WAT     H2 8598   8.965   9.405   2.074
 2786WAT      O 8599   3.357   1.676   4.173
 2786WAT     H1 8600   3.296   1.746   4.136
 2786WAT     H2 8601   3.309   1.589   4.179
 2787WAT      O 8602   1.318   4.948   7.175
 2787WAT     H1 8603   1.418   4.950   7.186
 2787WAT     H2 8604   1.277   4.902   7.254
 2788WAT      O 8605   3.718   2.381   2.157
 2788WAT     H1 8606   3.638   2.339   2.199
 2788WAT     H2 8607   3.780   2.414   2.229
 2789WAT      O 8608   2.652   1.365   1.666
 2789WAT     H1 8609   2.582   1.294   1.658
 2789WAT     H2 8610   2.645   1.409   1.756
 2790WAT      O 8611   2.332   0.822   7.687
 2790WAT     H1 8612   2.347   0.768   7.770
 2790WAT     H2 8613   2.346   0.919   7.707
 2791WAT      O 8614   1.260   6.391   1.887
 2791WAT     H1 8615   1.359   6.387   1.895
 2791WAT     H2 8616   1.226   6.472   1.936
 2792WAT      O 8617   3.853   9.164   9.046
 2792WAT     H1 8618   3.845   9.261   9.024
 2792WAT     H2 8619   3.871   9.154   9.144
 2793WAT      O 8620   5.574   1.760   8.877
 2793WAT     H1 8621   5.645   1.700   8.914
 2793WAT     H2 8622   5.610   1.853   8.867
 2794WAT      O 8623   0.570   3.744   8.317
 2794WAT     H1 8624   0.550   3.811   8.246
 2794WAT     H2 8625   0.487   3.690   8.335
 2795WAT      O 8626   5.120   9.523   4.654
 2795WAT     H1 8627   5.199   9.585   4.650
 2795WAT     H2 8628   5.151   9.431   4.679
 2796WAT      O 8629   7.912   0.815   6.526
 2796WAT     H1 8630   7.826   0.776   6.493
 2796WAT     H2 8631   7.944   0.883   6.460
 2797WAT      O 8632   9.602   2.478   1.208
 2797WAT     H1 8633   9.678   2.415   1.222
 2797WAT     H2 8634   9.589   2.494   1.110
 2798WAT      O 8635   6.712   4.621   6.701
 2798WAT     H1 8636   6.812   4.624   6.701
 2798WAT     H2 8637   6.680   4.572   6.621
 2799WAT      O 8638   2.302   3.153   7.419
 2799WAT     H1 8639   2.387   3.100   7.414
 2799WAT     H2 8640   2.234   3.101   7.471
 2800WAT      O 8641   9.268   8.415   0.657
 2800WAT     H1 8642   9.229   8.507   0.648
 2800WAT     H2 8643   9.202   8.347   0.625
 2801WAT      O 8644   2.892   8.174   9.064
 2801WAT     H1 8645   2.955   8.131   8.999
 2801WAT     H2 8646   2.803   8.184   9.021
 2802WAT      O 8647   4.276   5.958   3.508
 2802WAT     H1 8648   4.301   6.013   3.588
 2802WAT     H2 8649   4.320   5.869   3.513
 2803WAT      O 8650   8.233   7.627   2.531
 2803WAT     H1 8651   8.284   7.669   2.457
 2803WAT     H2 8652   8.239   7.527   2.524
 2804WAT      O 8653   7.580   9.667   6.544
 2804WAT     H1 8654   7.532   9.595   6.594
 2804WAT     H2 8655   7.640   9.625   6.475
 2805WAT      O 8656   4.211   0.001   9.880
 2805WAT     H1 8657   4.251   0.069   9.819
 2805WAT     H2 8658   4.284  -0.044   9.932
 2806WAT      O 8659   8.581   9.033   1.316
 2806WAT     H1 8660   8.576   8.988   1.405
 2806WAT     H2 8661   8.507   9.100   1.307
 2807WAT      O 8662   5.327   3.472   8.437
 2807WAT     H1 8663   5.289   3.449   8.348
 2807WAT     H2 8664   5.281   3.553   8.473
 2808WAT      O 8665   6.852   7.863   1.068
 2808WAT     H1 8666   6.846   7.797   0.994
 2808WAT     H2 8667   6.760   7.883   1.103
 2809WAT      O 8668   6.146   1.091   7.183
 2809WAT     H1 8669   6.051   1.120   7.195
 2809WAT     H2 8670   6.176   1.041   7.264
 2810WAT      O 8671   1.291   1.062   5.080
 2810WAT     H1 8672   1.361   1.034   5.145
 2810WAT     H2 8673   1.264   1.157   5.098
 2811WAT      O 8674   7.785   5.923   5.134
 2811WAT     H1 8675   7.839   5.885   5.209
 2811WAT     H2 8676   7.826   6.009   5.104
 2812WAT      O 8677   6.810   2.559   2.132
 2812WAT     H1 8678   6.836   2.483   2.192
 2812WAT     H2 8679   6.888   2.583   2.074
 2813WAT      O 8680   4.978   0.509   1.965
 2813WAT     H1 8681   4.946   0.464   2.049
 2813WAT     H2 8682   4.959   0.450   1.887
 2814WAT      O 8683   0.977   5.692   0.064
 2814WAT     H1 8684   1.039   5.693   0.143
 2814WAT     H2 8685   0.912   5.767   0.072
 2815WAT      O 8686   4.908   1.804   0.676
 2815WAT     H1 8687   4.857   1.870   0.621
 2815WAT     H2 8688   4.923   1.721   0.623
 2816WAT      O 8689   4.765   3.619   4.051
 2816WAT     H1 8690   4.697   3.692   4.045
 2816WAT     H2 8691   4.792   3.591   3.959
 2817WAT      O 8692   3.119   7.109   0.413
 2817WAT     H1 8693   3.199   7.061   0.450
 2817WAT     H2 8694   3.128   7.207   0.432
 2818WAT      O 8695   9.127   9.658   5.929
 2818WAT     H1 8696   9.199   9.689   5.867
 2818WAT     H2 8697   9.142   9.697   6.020
 2819WAT      O 8698   8.388   0.620   8.575
 2819WAT     H1 8699   8.328   0.564   8.519
 2819WAT     H2 8700   8.334   0.682   8.631
 2820WAT      O 8701   3.773   2.899   5.644
 2820WAT     H1 8702   3.768   2.986   5.595
 2820WAT     H2 8703   3.867   2.865   5.641
 2821WAT      O 8704   9.537   3.755   9.156
 2821WAT     H1 8705   9.573   3.840   9.194
 2821WAT     H2 8706   9.498   3.772   9.066
 2822WAT      O 8707   9.722   5.530   8.810
 2822WAT     H1 8708   9.662   5.459   8.775
 2822WAT     H2 8709   9.813   5.520   8.772
 2823WAT      O 8710   5.168   4.370   9.864
 2823WAT     H1 8711   5.207   4.398   9.952
 2823WAT     H2 8712   5.230   4.396   9.790
 2824WAT      O 8713   3.284   8.245   9.571
 2824WAT     H1 8714   3.194   8.283   9.594
 2824WAT     H2 8715   3.273   8.176   9.498
 2825WAT      O 8716   8.457   4.459   8.425
 2825WAT     H1 8717   8.440   4.460   8.524
 2825WAT     H2 8718   8.488   4.549   8.395
 2826WAT      O 8719   2.550   5.812   2.179
 2826WAT     H1 8720   2.518   5.748   2.109
 2826WAT     H2 8721   2.638   5.781   2.216
 2827WAT      O 8722   5.485   6.118   8.711
 2827WAT     H1 8723   5.551   6.055   8.673
 2827WAT     H2 8724   5.462   6.188   8.643
 2828WAT      O 8725   2.198   1.080   9.814
 2828WAT     H1 8726   2.163   1.131   9.893
 2828WAT     H2 8727   2.298   1.080   9.817
 2829WAT      O 8728   6.429   9.638   1.736
 2829WAT     H1 8729   6.496   9.618   1.664
 2829WAT     H2 8730   6.392   9.552   1.771
 2830WAT      O 8731   1.875   2.802   0.733
 2830WAT     H1 8732   1.951   2.866   0.725
 2830WAT     H2 8733   1.811   2.834   0.803
 2831WAT      O 8734   9.344   7.666   1.431
 2831WAT     H1 8735   9.364   7.750   1.380
 2831WAT     H2 8736   9.416   7.651   1.499
 2832WAT      O 8737   7.457   6.683   5.999
 2832WAT     H1 8738   7.392   6.657   5.927
 2832WAT     H2 8739   7.436   6.776   6.030
 2833WAT      O 8740   7.273   3.398   9.276
 2833WAT     H1 8741   7.180   3.435   9.281
 2833WAT     H2 8742   7.318   3.432   9.194
 2834WAT      O 8743   8.576   8.568   0.790
 2834WAT     H1 8744   8.669   8.531   0.799
 2834WAT     H2 8745   8.578   8.651   0.734
 2835WAT      O 8746   3.085   3.421   1.007
 2835WAT     H1 8747   3.064   3.493   1.074
 2835WAT     H2 8748   3.027   3.342   1.024
 2836WAT      O 8749   8.283   6.935   8.293
 2836WAT     H1 8750   8.357   6.955   8.229
 2836WAT     H2 8751   8.242   7.020   8.324
 2837WAT      O 8752   6.650   2.406   7.301
 2837WAT     H1 8753   6.709   2.485   7.283
 2837WAT     H2 8754   6.663   2.376   7.396
 2838WAT      O 8755   1.594   4.919   6.165
 2838WAT     H1 8756   1.586   4.836   6.109
 2838WAT     H2 8757   1.502   4.952   6.188
 2839WAT      O 8758   0.142   3.518   9.042
 2839WAT     H1 8759   0.211   3.585   9.068
 2839WAT     H2 8760   0.141   3.509   8.942
 2840WAT      O 8761   1.919   6.412   0.047
 2840WAT     H1 8762   1.877   6.384  -0.040
 2840WAT     H2 8763   2.013   6.442   0.031
 2841WAT      O 8764   9.319   2.314   0.922
 2841WAT     H1 8765   9.367   2.399   0.901
 2841WAT     H2 8766   9.303   2.263   0.838
 2842WAT      O 8767   4.756   7.120   3.320
 2842WAT     H1 8768   4.809   7.148   3.240
 2842WAT     H2 8769   4.707   7.035   3.300
 2843WAT      O 8770   7.391   3.886   2.158
 2843WAT     H1 8771   7.448   3.965   2.138
 2843WAT     H2 8772   7.423   3.842   2.242
 2844WAT      O 8773   3.794   3.964   6.206
 2844WAT     H1 8774   3.782   4.063   6.200
 2844WAT     H2 8775   3.714   3.918   6.169
 2845WAT      O 8776   5.817   3.945   8.952
 2845WAT     H1 8777   5.804   3.997   9.036
 2845WAT     H2 8778   5.911   3.954   8.920
 2846WAT      O 8779   5.959   9.453   0.398
 2846WAT     H1 8780   6.045   9.402   0.390
 2846WAT     H2 8781   5.957   9.525   0.328
 2847WAT      O 8782   4.372   7.738   5.934
 2847WAT     H1 8783   4.302   7.773   5.997
 2847WAT     H2 8784   4.462   7.772   5.962
 2848WAT      O 8785   2.926   7.447   2.079
 2848WAT     H1 8786   2.956   7.453   1.984
 2848WAT     H2 8787   2.927   7.351   2.108
 2849WAT      O 8788   8.400   9.555   1.343
 2849WAT     H1 8789   8.435   9.581   1.433
 2849WAT     H2 8790   8.388   9.638   1.288
 2850WAT      O 8791   2.980   4.518   6.194
 2850WAT     H1 8792   2.947   4.581   6.124
 2850WAT     H2 8793   2.928   4.531   6.278
 2851WAT      O 8794   1.513   3.268   3.889
 2851WAT     H1 8795   1.573   3.272   3.969
 2851WAT     H2 8796   1.509   3.174   3.855
 2852WAT      O 8797   3.014   7.063   3.442
 2852WAT     H1 8798   3.061   7.010   3.371
 2852WAT     H2 8799   3.038   7.026   3.532
 2853WAT      O 8800   6.911   0.133   5.774
 2853WAT     H1 8801   6.861   0.070   5.833
 2853WAT     H2 8802   7.008   0.131   5.798
 2854WAT      O 8803   5.811   4.543   1.606
 2854WAT     H1 8804   5.762   4.460   1.582
 2854WAT     H2 8805   5.908   4.522   1.622
 2855WAT      O 8806   6.706   4.269   2.502
 2855WAT     H1 8807   6.663   4.233   2.419
 2855WAT     H2 8808   6.681   4.365   2.513
 2856WAT      O 8809   0.891   9.364   5.377
 2856WAT     H1 8810   0.869   9.295   5.309
 2856WAT     H2 8811   0.897   9.454   5.334
 2857WAT      O 8812   9.609   9.755   4.683
 2857WAT     H1 8813   9.639   9.751   4.587
 2857WAT     H2 8814   9.591   9.663   4.716
 2858WAT      O 8815   9.871   1.692   2.032
 2858WAT     H1 8816   9.810   1.746   1.975
 2858WAT     H2 8817   9.943   1.652   1.976
 2859WAT      O 8818   0.165   5.691   2.433
 2859WAT     H1 8819   0.210   5.741   2.506
 2859WAT     H2 8820   0.091   5.746   2.395
 2860WAT      O 8821   2.137   4.864   3.900
 2860WAT     H1 8822   2.233   4.865   3.870
 2860WAT     H2 8823   2.084   4.802   3.843
 2861WAT      O 8824   6.953   2.069   9.413
 2861WAT     H1 8825   6.869   2.016   9.427
 2861WAT     H2 8826   6.981   2.108   9.501
 2862WAT      O 8827   5.474   5.323   0.902
 2862WAT     H1 8828   5.382   5.295   0.928
 2862WAT     H2 8829   5.506   5.267   0.825
 2863WAT      O 8830   0.354   7.532   0.184
 2863WAT     H1 8831   0.390   7.506   0.274
 2863WAT     H2 8832   0.268   7.582   0.196
 2864WAT      O 8833   5.967   5.362   0.535
 2864WAT     H1 8834   5.886   5.418   0.519
 2864WAT     H2 8835   5.941   5.265   0.531
 2865WAT      O 8836   7.298   4.661   1.173
 2865WAT     H1 8837   7.369   4.727   1.199
 2865WAT     H2 8838   7.212   4.687   1.217
 2866WAT      O 8839   5.608   2.350   0.711
 2866WAT     H1 8840   5.524   2.307   0.744
 2866WAT     H2 8841   5.684   2.286   0.720
 2867WAT      O 8842   4.325   2.253   9.732
 2867WAT     H1 8843   4.244   2.202   9.701
 2867WAT     H2 8844   4.401   2.235   9.670
 2868WAT      O 8845   5.102   0.583   6.521
 2868WAT     H1 8846   5.114   0.486   6.498
 2868WAT     H2 8847   5.044   0.626   6.452
 2869WAT      O 8848   2.750   0.687   4.005
 2869WAT     H1 8849   2.723   0.606   3.953
 2869WAT     H2 8850   2.667   0.739   4.030
 2870WAT      O 8851   2.380   0.136   7.338
 2870WAT     H1 8852   2.307   0.145   7.405
 2870WAT     H2 8853   2.390   0.041   7.312
 2871WAT      O 8854   2.601   3.783   0.700
 2871WAT     H1 8855   2.530   3.823   0.641
 2871WAT     H2 8856   2.663   3.855   0.730
 2872WAT      O 8857   7.037   6.648   5.624
 2872WAT     H1 8858   6.987   6.562   5.631
 2872WAT     H2 8859   7.117   6.636   5.565
 2873WAT      O 8860   1.536   0.322   5.351
 2873WAT     H1 8861   1.483   0.397   5.391
 2873WAT     H2 8862   1.521   0.319   5.252
 2874WAT      O 8863   8.407   1.533   9.727
 2874WAT     H1 8864   8.385   1.492   9.638
 2874WAT     H2 8865   8.328   1.585   9.759
 2875WAT      O 8866   0.324   5.342   3.289
 2875WAT     H1 8867   0.390   5.269   3.304
 2875WAT     H2 8868   0.253   5.337   3.359
 2876WAT      O 8869   6.915   2.360   8.905
 2876WAT     H1 8870   6.970   2.440   8.929
 2876WAT     H2 8871   6.918   2.294   8.980
 2877WAT      O 8872   4.970   3.180   8.245
 2877WAT     H1 8873   4.928   3.162   8.156
 2877WAT     H2 8874   4.989   3.278   8.253
 2878WAT      O 8875   7.039   4.128   4.022
 2878WAT     H1 8876   6.956   4.181   4.037
 2878WAT     H2 8877   7.119   4.187   4.038
 2879WAT      O 8878   8.490   9.363   9.782
 2879WAT     H1 8879   8.403   9.323   9.752
 2879WAT     H2 8880   8.488   9.375   9.881
 2880WAT      O 8881   6.027   3.327   5.998
 2880WAT     H1 8882   6.082   3.394   5.948
 2880WAT     H2 8883   5.938   3.318   5.954
 2881WAT      O 8884   1.407   9.087   8.643
 2881WAT     H1 8885   1.429   9.045   8.555
 2881WAT     H2 8886   1.309   9.081   8.659
 2882WAT      O 8887   0.097   4.003   2.882
 2882WAT     H1 8888   0.013   3.970   2.838
 2882WAT     H2 8889   0.084   4.004   2.981
 2883WAT      O 8890   8.588   3.767   8.915
 2883WAT     H1 8891   8.506   3.712   8.902
 2883WAT     H2 8892   8.565   3.864   8.911
 2884WAT      O 8893   9.286   4.154   8.914
 2884WAT     H1 8894   9.217   4.137   8.843
 2884WAT     H2 8895   9.378   4.143   8.875
 2885WAT      O 8896   2.650   5.514   5.675
 2885WAT     H1 8897   2.592   5.591   5.698
 2885WAT     H2 8898   2.744   5.533   5.702
 2886WAT      O 8899   0.343   3.679   5.287
 2886WAT     H1 8900   0.342   3.619   5.367
 2886WAT     H2 8901   0.269   3.654   5.225
 2887WAT      O 8902   6.568   8.944   1.565
 2887WAT     H1 8903   6.566   8.844   1.571
 2887WAT     H2 8904   6.618   8.971   1.483
 2888WAT      O 8905   6.946   4.943   9.076
 2888WAT     H1 8906   6.872   5.008   9.096
 2888WAT     H2 8907   6.994   4.973   8.994
 2889WAT      O 8908   4.537   1.261   4.906
 2889WAT     H1 8909   4.526   1.287   5.002
 2889WAT     H2 8910   4.594   1.328   4.859
 2890WAT      O 8911   7.840   7.684   5.924
 2890WAT     H1 8912   7.764   7.658   5.865
 2890WAT     H2 8913   7.823   7.650   6.017
 2891WAT      O 8914   4.706   0.075   7.182
 2891WAT     H1 8915   4.698  -0.016   7.141
 2891WAT     H2 8916   4.758   0.135   7.121
 2892WAT      O 8917   1.685   6.344   3.019
 2892WAT     H1 8918   1.616   6.290   2.970
 2892WAT     H2 8919   1.718   6.292   3.098
 2893WAT      O 8920   1.639   9.508   6.234
 2893WAT     H1 8921   1.544   9.480   6.223
 2893WAT     H2 8922   1.698   9.448   6.180
 2894WAT      O 8923   9.421   6.096   5.672
 2894WAT     H1 8924   9.367   6.092   5.755
 2894WAT     H2 8925   9.361   6.110   5.593
 2895WAT      O 8926   7.005   7.312   5.848
 2895WAT     H1 8927   7.045   7.398   5.879
 2895WAT     H2 8928   7.067   7.237   5.869
 2896WAT      O 8929   8.717   7.797   5.616
 2896WAT     H1 8930   8.721   7.894   5.590
 2896WAT     H2 8931   8.648   7.750   5.562
 2897WAT      O 8932   7.156   5.485   5.828
 2897WAT     H1 8933   7.199   5.399   5.801
 2897WAT     H2 8934   7.076   5.502   5.770
 2898WAT      O 8935   0.070   4.040   1.339
 2898WAT     H1 8936   0.097   4.015   1.247
 2898WAT     H2 8937   0.151   4.051   1.397
 2899WAT      O 8938   8.874   4.350   3.443
 2899WAT     H1 8939   8.856   4.270   3.386
 2899WAT     H2 8940   8.957   4.396   3.410
 2900WAT      O 8941   7.100   2.485   1.284
 2900WAT     H1 8942   7.088   2.385   1.288
 2900WAT     H2 8943   7.076   2.517   1.192
 2901WAT      O 8944   2.956   5.078   1.742
 2901WAT     H1 8945   2.884   5.116   1.685
 2901WAT     H2 8946   2.943   5.109   1.836
 2902WAT      O 8947   3.603   0.332   7.416
 2902WAT     H1 8948   3.610   0.303   7.321
 2902WAT     H2 8949   3.508   0.356   7.437
 2903WAT      O 8950   6.034   2.924   8.222
 2903WAT     H1 8951   6.130   2.896   8.225
 2903WAT     H2 8952   6.012   2.975   8.306
 2904WAT      O 8953   4.072   4.959   9.399
 2904WAT     H1 8954   4.076   5.057   9.377
 2904WAT     H2 8955   4.067   4.906   9.315
 2905WAT      O 8956   3.758   0.197   7.584
 2905WAT     H1 8957   3.714   0.272   7.535
 2905WAT     H2 8958   3.792   0.230   7.672
 2906WAT      O 8959   2.021   1.439   4.643
 2906WAT     H1 8960   1.935   1.394   4.620
 2906WAT     H2 8961   2.005   1.536   4.660
 2907WAT      O 8962   1.163   8.422   9.076
 2907WAT     H1 8963   1.231   8.373   9.022
 2907WAT     H2 8964   1.079   8.433   9.022
 2908WAT      O 8965   5.091   7.621   4.999
 2908WAT     H1 8966   5.151   7.551   5.036
 2908WAT     H2 8967   5.130   7.711   5.017
 2909WAT      O 8968   7.071   6.608   1.070
 2909WAT     H1 8969   7.107   6.684   1.016
 2909WAT     H2 8970   6.971   6.613   1.072
 2910WAT      O 8971   8.056   0.506   7.178
 2910WAT     H1 8972   8.028   0.593   7.139
 2910WAT     H2 8973   8.017   0.496   7.270
 2911WAT      O 8974   0.870   0.989   3.962
 2911WAT     H1 8975   0.931   1.055   4.006
 2911WAT     H2 8976   0.896   0.896   3.989
 2912WAT      O 8977   6.145   1.824   2.748
 2912WAT     H1 8978   6.106   1.753   2.806
 2912WAT     H2 8979   6.244   1.811   2.740
 2913WAT      O 8980   9.324   2.145   5.888
 2913WAT     H1 8981   9.395   2.196   5.936
 2913WAT     H2 8982   9.234   2.170   5.924
 2914WAT      O 8983   6.991   6.431   6.327
 2914WAT     H1 8984   6.974   6.407   6.422
 2914WAT     H2 8985   6.935   6.511   6.302
 2915WAT      O 8986   1.334   2.950   2.990
 2915WAT     H1 8987   1.344   2.917   2.897
 2915WAT     H2 8988   1.385   3.036   3.001
 2916WAT      O 8989   0.757   1.216   8.803
 2916WAT     H1 8990   0.687   1.191   8.870
 2916WAT     H2 8991   0.828   1.270   8.848
 2917WAT      O 8992   3.871   3.408   0.476
 2917WAT     H1 8993   3.942   3.360   0.423
 2917WAT     H2 8994   3.914   3.483   0.527
 2918WAT      O 8995   7.234   0.328   6.197
 2918WAT     H1 8996   7.195   0.419   6.181
 2918WAT     H2 8997   7.310   0.335   6.261
 2919WAT      O 8998   1.943   9.677   7.933
 2919WAT     H1 8999   2.011   9.608   7.955
 2919WAT     H2 9000   1.967   9.764   7.976
 2920WAT      O 9001   1.667   5.721   6.168
 2920WAT     H1 9002   1.670   5.622   6.180
 2920WAT     H2 9003   1.720   5.746   6.087
 2921WAT      O 9004   2.174   4.457   9.307
 2921WAT     H1 9005   2.182   4.550   9.271
 2921WAT     H2 9006   2.116   4.459   9.389
 2922WAT      O 9007   7.308   2.038   7.724
 2922WAT     H1 9008   7.328   1.980   7.804
 2922WAT     H2 9009   7.211   2.060   7.722
 2923WAT      O 9010   5.470   7.437   6.856
 2923WAT     H1 9011   5.509   7.366   6.798
 2923WAT     H2 9012   5.379   7.410   6.887
 2924WAT      O 9013   0.643   6.265   9.432
 2924WAT     H1 9014   0.726   6.319   9.446
 2924WAT     H2 9015   0.664   6.168   9.440
 2925WAT      O 9016   7.512   2.567   4.182
 2925WAT     H1 9017   7.418   2.535   4.185
 2925WAT     H2 9018   7.543   2.589   4.274
 2926WAT      O 9019   5.011   0.922   2.777
 2926WAT     H1 9020   5.045   1.002   2.729
 2926WAT     H2 9021   5.078   0.848   2.771
 2927WAT      O 9022   8.752   0.499   0.858
 2927WAT     H1 9023   8.733   0.549   0.942
 2927WAT     H2 9024   8.691   0.530   0.786
 2928WAT      O 9025   4.377   1.562   6.679
 2928WAT     H1 9026   4.298   1.526   6.729
 2928WAT     H2 9027   4.425   1.487   6.634
 2929WAT      O 9028   9.243   0.659   1.945
 2929WAT     H1 9029   9.326   0.701   1.981
 2929WAT     H2 9030   9.249   0.650   1.846
 2930WAT      O 9031   7.426   8.280   4.131
 2930WAT     H1 9032   7.435   8.309   4.227
 2930WAT     H2 9033   7.469   8.190   4.120
 2931WAT      O 9034   0.117   5.228   0.816
 2931WAT     H1 9035   0.024   5.255   0.791
 2931WAT     H2 9036   0.168   5.205   0.733
 2932WAT      O 9037   0.762   7.665   5.392
 2932WAT     H1 9038   0.801   7.655   5.484
 2932WAT     H2 9039   0.756   7.762   5.369
 2933WAT      O 9040   1.008   4.781   9.498
 2933WAT     H1 9041   1.012   4.687   9.465
 2933WAT     H2 9042   1.085   4.832   9.462
 2934WAT      O 9043   0.296   6.269   4.326
 2934WAT     H1 9044   0.358   6.231   4.256
 2934WAT     H2 9045   0.211   6.298   4.282
 2935WAT      O 9046   2.779   9.416   0.557
 2935WAT     H1 9047   2.748   9.490   0.497
 2935WAT     H2 9048   2.847   9.361   0.509
 2936WAT      O 9049   0.670   9.513   1.400
 2936WAT     H1 9050   0.639   9.522   1.495
 2936WAT     H2 9051   0.628   9.585   1.345
 2937WAT      O 9052   2.641   1.308   5.537
 2937WAT     H1 9053   2.737   1.282   5.525
 2937WAT     H2 9054   2.630   1.406   5.526
 2938WAT      O 9055   8.202   4.148   0.379
 2938WAT     H1 9056   8.201   4.214   0.304
 2938WAT     H2 9057   8.297   4.126   0.403
 2939WAT      O 9058   8.985   6.998   1.168
 2939WAT     H1 9059   8.956   6.967   1.259
 2939WAT     H2 9060   9.083   7.013   1.167
 2940WAT      O 9061   3.741   7.056   7.919
 2940WAT     H1 9062   3.656   7.004   7.915
 2940WAT     H2 9063   3.809   7.004   7.972
 2941WAT      O 9064   3.542   4.715   2.595
 2941WAT     H1 9065   3.548   4.636   2.534
 2941WAT     H2 9066   3.511   4.686   2.685
 2942WAT      O 9067   7.005   2.848   2.525
 2942WAT     H1 9068   6.954   2.891   2.599
 2942WAT     H2 9069   6.941   2.802   2.463
 2943WAT      O 9070   4.823   3.713   5.637
 2943WAT     H1 9071   4.850   3.795   5.587
 2943WAT     H2 9072   4.904   3.662   5.664
 2944WAT      O 9073   0.080   3.143   5.846
 2944WAT     H1 9074   0.044   3.182   5.762
 2944WAT     H2 9075   0.022   3.169   5.923
 2945WAT      O 9076   9.755   4.362   1.231
 2945WAT     H1 9077   9.853   4.360   1.248
 2945WAT     H2 9078   9.724   4.457   1.225
 2946WAT      O 9079   3.097   6.846   0.632
 2946WAT     H1 9080   3.089   6.900   0.716
 2946WAT     H2 9081   3.092   6.749   0.654
 2947WAT      O 9082   5.130   6.072   7.045
 2947WAT     H1 9083   5.115   6.033   6.954
 2947WAT     H2 9084   5.228   6.069   7.067
 2948WAT      O 9085   6.438   9.034   6.143
 2948WAT     H1 9086   6.448   9.058   6.047
 2948WAT     H2 9087   6.425   9.118   6.197
 2949WAT      O 9088   0.933   8.390   2.280
 2949WAT     H1 9089   0.945   8.292   2.268
 2949WAT     H2 9090   0.945   8.437   2.192
 2950WAT      O 9091   1.627   5.942   8.299
 2950WAT     H1 9092   1.533   5.913   8.280
 2950WAT     H2 9093   1.661   5.997   8.223
 2951WAT      O 9094   5.496   9.158   0.929
 2951WAT     H1 9095   5.501   9.150   1.029
 2951WAT     H2 9096   5.565   9.099   0.887
 2952WAT      O 9097   7.320   3.764   3.274
 2952WAT     H1 9098   7.226   3.794   3.288
 2952WAT     H2 9099   7.376   3.793   3.352
 2953WAT      O 9100   3.934   4.827   3.620
 2953WAT     H1 9101   3.983   4.857   3.702
 2953WAT     H2 9102   3.985   4.753   3.576
 2954WAT      O 9103   5.789   5.798   9.373
 2954WAT     H1 9104   5.719   5.735   9.340
 2954WAT     H2 9105   5.847   5.751   9.440
 2955WAT      O 9106   2.728   4.600   3.737
 2955WAT     H1 9107   2.757   4.657   3.659
 2955WAT     H2 9108   2.665   4.530   3.705
 2956WAT      O 9109   1.372   2.763   4.242
 2956WAT     H1 9110   1.352   2.709   4.324
 2956WAT     H2 9111   1.421   2.707   4.176
 2957WAT      O 9112   1.346   2.504   9.772
 2957WAT     H1 9113   1.284   2.457   9.835
 2957WAT     H2 9114   1.324   2.602   9.771
 2958WAT      O 9115   0.632   6.404   0.221
 2958WAT     H1 9116   0.707   6.362   0.272
 2958WAT     H2 9117   0.560   6.336   0.204
 2959WAT      O 9118   8.201   2.542   0.899
 2959WAT     H1 9119   8.297   2.557   0.924
 2959WAT     H2 9120   8.176   2.602   0.823
 2960WAT      O 9121   8.380   0.587   0.412
 2960WAT     H1 9122   8.361   0.513   0.476
 2960WAT     H2 9123   8.328   0.668   0.438
 2961WAT      O 9124   9.441   3.357   8.333
 2961WAT     H1 9125   9.368   3.306   8.379
 2961WAT     H2 9126   9.504   3.293   8.290
 2962WAT      O 9127   4.890   0.056   8.094
 2962WAT     H1 9128   4.836   0.134   8.124
 2962WAT     H2 9129   4.883  -0.018   8.161
 2963WAT      O 9130   4.082   7.083   1.849
 2963WAT     H1 9131   4.118   7.085   1.943
 2963WAT     H2 9132   4.121   7.160   1.798
 2964WAT      O 9133   2.774   6.842   8.909
 2964WAT     H1 9134   2.861   6.871   8.868
 2964WAT     H2 9135   2.786   6.751   8.948
 2965WAT      O 9136   8.574   2.935   4.122
 2965WAT     H1 9137   8.657   2.941   4.067
 2965WAT     H2 9138   8.596   2.905   4.214
 2966WAT      O 9139   9.420   6.637   1.311
 2966WAT     H1 9140   9.487   6.688   1.258
 2966WAT     H2 9141   9.338   6.621   1.256
 2967WAT      O 9142   2.703   3.094   3.576
 2967WAT     H1 9143   2.667   3.058   3.489
 2967WAT     H2 9144   2.760   3.173   3.557
 2968WAT      O 9145   0.318   4.609   5.100
 2968WAT     H1 9146   0.256   4.650   5.167
 2968WAT     H2 9147   0.265   4.571   5.024
 2969WAT      O 9148   5.189   0.133   5.643
 2969WAT     H1 9149   5.102   0.151   5.689
 2969WAT     H2 9150   5.255   0.205   5.666
 2970WAT      O 9151   1.246   7.944   5.261
 2970WAT     H1 9152   1.292   7.884   5.326
 2970WAT     H2 9153   1.213   7.890   5.184
 2971WAT      O 9154   8.718   6.352   3.984
 2971WAT     H1 9155   8.747   6.388   4.073
 2971WAT     H2 9156   8.796   6.350   3.922
 2972WAT      O 9157   0.985   2.502   1.623
 2972WAT     H1 9158   1.017   2.506   1.528
 2972WAT     H2 9159   0.897   2.454   1.626
 2973WAT      O 9160   2.330   3.571   0.372
 2973WAT     H1 9161   2.367   3.662   0.392
 2973WAT     H2 9162   2.373   3.536   0.288
 2974WAT      O 9163   7.812   8.387   8.570
 2974WAT     H1 9164   7.807   8.293   8.604
 2974WAT     H2 9165   7.721   8.429   8.576
 2975WAT      O 9166   3.366   7.929   6.959
 2975WAT     H1 9167   3.389   7.846   7.010
 2975WAT     H2 9168   3.414   8.007   6.999
 2976WAT      O 9169   4.531   7.190   4.334
 2976WAT     H1 9170   4.504   7.098   4.306
 2976WAT     H2 9171   4.486   7.257   4.275
 2977WAT      O 9172   4.902   8.949   4.927
 2977WAT     H1 9173   4.915   9.043   4.957
 2977WAT     H2 9174   4.975   8.924   4.863
 2978WAT      O 9175   0.901   3.946   6.931
 2978WAT     H1 9176   0.914   3.930   7.029
 2978WAT     H2 9177   0.815   3.904   6.902
 2979WAT      O 9178   7.499   9.710   2.003
 2979WAT     H1 9179   7.410   9.687   2.042
 2979WAT     H2 9180   7.566   9.642   2.030
 2980WAT      O 9181   7.290   9.425   9.500
 2980WAT     H1 9182   7.232   9.471   9.432
 2980WAT     H2 9183   7.297   9.482   9.582
 2981WAT      O 9184   0.027   9.145   0.776
 2981WAT     H1 9185   0.042   9.206   0.854
 2981WAT     H2 9186   0.038   9.050   0.806
 2982WAT      O 9187   7.835   3.183   7.589
 2982WAT     H1 9188   7.926   3.225   7.580
 2982WAT     H2 9189   7.810   3.181   7.686
 2983WAT      O 9190   6.991   8.425   6.319
 2983WAT     H1 9191   7.047   8.395   6.241
 2983WAT     H2 9192   6.943   8.347   6.357
 2984WAT      O 9193   6.749   2.767   8.690
 2984WAT     H1 9194   6.789   2.711   8.618
 2984WAT     H2 9195   6.822   2.809   8.744
 2985WAT      O 9196   7.428   6.735   5.659
 2985WAT     H1 9197   7.435   6.828   5.695
 2985WAT     H2 9198   7.387   6.676   5.728
 2986WAT      O 9199   3.854   9.299   4.901
 2986WAT     H1 9200   3.870   9.230   4.829
 2986WAT     H2 9201   3.790   9.262   4.968
 2987WAT      O 9202   9.710   2.075   6.048
 2987WAT     H1 9203   9.628   2.128   6.064
 2987WAT     H2 9204   9.782   2.135   6.013
 2988WAT      O 9205   3.851   6.932   3.292
 2988WAT     H1 9206   3.852   6.942   3.192
 2988WAT     H2 9207   3.805   6.847   3.316
 2989WAT      O 9208   4.156   3.877   5.399
 2989WAT     H1 9209   4.080   3.813   5.389
 2989WAT     H2 9210   4.160   3.936   5.318
 2990WAT      O 9211   3.061   0.972   9.866
 2990WAT     H1 9212   3.095   1.054   9.912
 2990WAT     H2 9213   3.004   0.999   9.789
 2991WAT      O 9214   5.240   4.369   9.108
 2991WAT     H1 9215   5.174   4.422   9.163
 2991WAT     H2 9216   5.319   4.347   9.165
 2992WAT      O 9217   5.808   5.946   6.662
 2992WAT     H1 9218   5.856   5.954   6.750
 2992WAT     H2 9219   5.745   5.868   6.666
 2993WAT      O 9220   6.332   8.807   3.922
 2993WAT     H1 9221   6.412   8.867   3.916
 2993WAT     H2 9222   6.301   8.783   3.830
 2994WAT      O 9223   4.651   5.735   1.791
 2994WAT     H1 9224   4.739   5.708   1.831
 2994WAT     H2 9225   4.663   5.821   1.741
 2995WAT      O 9226   1.028   8.879   1.668
 2995WAT     H1 9227   1.085   8.953   1.704
 2995WAT     H2 9228   0.932   8.908   1.669
 2996WAT      O 9229   6.466   8.412   9.694
 2996WAT     H1 9230   6.520   8.336   9.658
 2996WAT     H2 9231   6.372   8.381   9.710
 2997WAT      O 9232   8.320   4.400   6.239
 2997WAT     H1 9233   8.384   4.472   6.211
 2997WAT     H2 9234   8.328   4.384   6.337
 2998WAT      O 9235   9.592   8.759   6.446
 2998WAT     H1 9236   9.523   8.831   6.457
 2998WAT     H2 9237   9.568   8.702   6.368
 2999WAT      O 9238   1.449   0.129   2.947
 2999WAT     H1 9239   1.464   0.204   2.882
 2999WAT     H2 9240   1.404   0.165   3.028
 3000WAT      O 9241   2.065   4.513   9.547
 3000WAT     H1 9242   1.969   4.535   9.528
 3000WAT     H2 9243   2.110   4.593   9.588
 3001WAT      O 9244   8.623   2.464   0.711
 3001WAT     H1 9245   8.583   2.380   0.674
 3001WAT     H2 9246   8.721   2.450   0.725
 3002WAT      O 9247   8.282   5.785   2.355
 3002WAT     H1 9248   8.234   5.778   2.268
 3002WAT     H2 9249   8.369   5.735   2.349
 3003WAT      O 9250   0.931   5.720   5.078
 3003WAT     H1 9251   0.850   5.779   5.076
 3003WAT     H2 9252   0.979   5.726   4.991
 3004WAT      O 9253   2.359   1.916   2.823
 3004WAT     H1 9254   2.274   1.873   2.790
 3004WAT     H2 9255   2.433   1.896   2.760
 3005WAT      O 9256   0.094   5.068   1.035
 3005WAT     H1 9257   0.104   5.130   0.957
 3005WAT     H2 9258   0.052   4.983   1.004
 3006WAT      O 9259   8.512   2.947   8.945
 3006WAT     H1 9260   8.470   3.026   8.988
 3006WAT     H2 9261   8.453   2.867   8.957
 3007WAT      O 9262   4.027   3.288   3.086
 3007WAT     H1 9263   3.982   3.229   3.153
 3007WAT     H2 9264   3.967   3.300   3.006
 3008WAT      O 9265   0.792   5.398   6.169
 3008WAT     H1 9266   0.729   5.324   6.192
 3008WAT     H2 9267   0.858   5.366   6.101
 3009WAT      O 9268   0.967   3.646   9.325
 3009WAT     H1 9269   0.877   3.686   9.341
 3009WAT     H2 9270   0.964   3.591   9.241
 3010WAT      O 9271   1.992   1.231   2.110
 3010WAT     H1 9272   1.897   1.203   2.095
 3010WAT     H2 9273   2.000   1.330   2.100
 3011WAT      O 9274   9.733   2.968   4.300
 3011WAT     H1 9275   9.710   2.961   4.202
 3011WAT     H2 9276   9.724   2.878   4.342
 3012WAT      O 9277   8.064   9.192   9.111
 3012WAT     H1 9278   8.044   9.267   9.048
 3012WAT     H2 9279   8.095   9.229   9.199
 3013WAT      O 9280   2.516   0.925   1.911
 3013WAT     H1 9281   2.583   0.860   1.875
 3013WAT     H2 9282   2.519   0.926   2.010
 3014WAT      O 9283   4.631   4.989   0.282
 3014WAT     H1 9284   4.564   5.026   0.346
 3014WAT     H2 9285   4.644   4.891   0.299
 3015WAT      O 9286   1.487   9.457   1.399
 3015WAT     H1 9287   1.582   9.469   1.427
 3015WAT     H2 9288   1.432   9.427   1.477
 3016WAT      O 9289   0.864   2.229   8.655
 3016WAT     H1 9290   0.945   2.173   8.637
 3016WAT     H2 9291   0.846   2.230   8.753
 3017WAT      O 9292   4.174   4.038   2.759
 3017WAT     H1 9293   4.120   4.004   2.682
 3017WAT     H2 9294   4.256   3.982   2.770
 3018WAT      O 9295   9.809   9.204   4.675
 3018WAT     H1 9296   9.870   9.233   4.749
 3018WAT     H2 9297   9.714   9.215   4.704
 3019WAT      O 9298   7.439   8.998   3.094
 3019WAT     H1 9299   7.440   8.915   3.149
 3019WAT     H2 9300   7.502   9.065   3.134
 3020WAT      O 9301   1.220   1.230   8.448
 3020WAT     H1 9302   1.258   1.193   8.533
 3020WAT     H2 9303   1.294   1.244   8.382
 3021WAT      O 9304   3.944   9.756   7.077
 3021WAT     H1 9305   3.848   9.735   7.059
 3021WAT     H2 9306   3.978   9.698   7.152
 3022WAT      O 9307   9.262   6.553   4.731
 3022WAT     H1 9308   9.235   6.471   4.781
 3022WAT     H2 9309   9.321   6.526   4.654
 3023WAT      O 9310   9.540   1.800   1.700
 3023WAT     H1 9311   9.594   1.795   1.784
 3023WAT     H2 9312   9.602   1.813   1.622
 3024WAT      O 9313   8.034   7.035   7.597
 3024WAT     H1 9314   7.994   6.957   7.646
 3024WAT     H2 9315   8.119   7.007   7.553
 3025WAT      O 9316   0.194   6.897   4.679
 3025WAT     H1 9317   0.289   6.874   4.657
 3025WAT     H2 9318   0.147   6.815   4.713
 3026WAT      O 9319   7.201   7.389   8.615
 3026WAT     H1 9320   7.175   7.300   8.652
 3026WAT     H2 9321   7.124   7.427   8.563
 3027WAT      O 9322   7.071   7.344   1.292
 3027WAT     H1 9323   7.028   7.407   1.357
 3027WAT     H2 9324   7.004   7.278   1.260
 3028WAT      O 9325   5.143   7.270   4.389
 3028WAT     H1 9326   5.110   7.248   4.297
 3028WAT     H2 9327   5.156   7.369   4.397
 3029WAT      O 9328   0.210   6.128   1.548
 3029WAT     H1 9329   0.115   6.115   1.576
 3029WAT     H2 9330   0.266   6.150   1.628
 3030WAT      O 9331   8.715   5.390   5.783
 3030WAT     H1 9332   8.712   5.472   5.840
 3030WAT     H2 9333   8.700   5.309   5.841
 3031WAT      O 9334   3.826   7.293   3.595
 3031WAT     H1 9335   3.760   7.368   3.595
 3031WAT     H2 9336   3.823   7.246   3.507
 3032WAT      O 9337   1.374   4.026   0.086
 3032WAT     H1 9338   1.359   4.107   0.144
 3032WAT     H2 9339   1.325   3.948   0.126
 3033WAT      O 9340   5.782   1.582   5.683
 3033WAT     H1 9341   5.692   1.612   5.652
 3033WAT     H2 9342   5.852   1.618   5.622
 3034WAT      O 9343   1.967   1.885   9.757
 3034WAT     H1 9344   1.935   1.960   9.698
 3034WAT     H2 9345   1.889   1.833   9.790
 3035WAT      O 9346   1.264   7.911   5.703
 3035WAT     H1 9347   1.324   7.908   5.783
 3035WAT     H2 9348   1.185   7.969   5.723
 3036WAT      O 9349   2.374   9.481   2.907
 3036WAT     H1 9350   2.398   9.577   2.895
 3036WAT     H2 9351   2.353   9.464   3.004
 3037WAT      O 9352   5.194   0.415   0.054
 3037WAT     H1 9353   5.285   0.445   0.027
 3037WAT     H2 9354   5.194   0.393   0.152
 3038WAT      O 9355   9.454   8.002   5.036
 3038WAT     H1 9356   9.525   8.014   5.106
 3038WAT     H2 9357   9.377   8.062   5.056
 3039WAT      O 9358   9.499   0.381   0.633
 3039WAT     H1 9359   9.561   0.440   0.686
 3039WAT     H2 9360   9.550   0.339   0.558
 3040WAT      O 9361   8.941   8.233   5.163
 3040WAT     H1 9362   8.851   8.226   5.119
 3040WAT     H2 9363   8.941   8.177   5.246
 3041WAT      O 9364   6.986   2.574   2.869
 3041WAT     H1 9365   6.962   2.542   2.777
 3041WAT     H2 9366   7.025   2.498   2.921
 3042WAT      O 9367   9.297   4.391   6.865
 3042WAT     H1 9368   9.369   4.428   6.924
 3042WAT     H2 9369   9.224   4.458   6.855
 3043WAT      O 9370   5.236   2.583   3.165
 3043WAT     H1 9371   5.207   2.586   3.261
 3043WAT     H2 9372   5.234   2.489   3.133
 3044WAT      O 9373   4.408   9.629   7.540
 3044WAT     H1 9374   4.332   9.596   7.597
 3044WAT     H2 9375   4.462   9.695   7.593
 3045WAT      O 9376   5.665   3.240   6.863
 3045WAT     H1 9377   5.652   3.294   6.780
 3045WAT     H2 9378   5.594   3.170   6.869
 3046WAT      O 9379   7.111   8.816   9.070
 3046WAT     H1 9380   7.058   8.879   9.014
 3046WAT     H2 9381   7.207   8.843   9.068
 3047WAT      O 9382   0.765   2.811   6.327
 3047WAT     H1 9383   0.672   2.834   6.296
 3047WAT     H2 9384   0.778   2.845   6.420
 3048WAT      O 9385   1.009   6.593   4.011
 3048WAT     H1 9386   0.961   6.538   4.079
 3048WAT     H2 9387   1.012   6.688   4.042
 3049WAT      O 9388   8.062   6.364   4.702
 3049WAT     H1 9389   8.093   6.309   4.778
 3049WAT     H2 9390   8.105   6.332   4.617
 3050WAT      O 9391   9.075   0.514   0.403
 3050WAT     H1 9392   9.142   0.470   0.463
 3050WAT     H2 9393   9.002   0.448   0.381
 3051WAT      O 9394   4.108   0.448   4.820
 3051WAT     H1 9395   4.192   0.428   4.871
 3051WAT     H2 9396   4.132   0.497   4.736
 3052WAT      O 9397   1.436   8.306   4.444
 3052WAT     H1 9398   1.526   8.292   4.485
 3052WAT     H2 9399   1.374   8.234   4.474
 3053WAT      O 9400   9.000   6.344   1.443
 3053WAT     H1 9401   8.945   6.302   1.372
 3053WAT     H2 9402   9.055   6.274   1.489
 3054WAT      O 9403   9.296   1.321   4.598
 3054WAT     H1 9404   9.316   1.346   4.693
 3054WAT     H2 9405   9.200   1.341   4.579
 3055WAT      O 9406   6.653   8.474   8.000
 3055WAT     H1 9407   6.656   8.396   7.937
 3055WAT     H2 9408   6.711   8.547   7.964
 3056WAT      O 9409   9.836   9.115   5.037
 3056WAT     H1 9410   9.895   9.192   5.012
 3056WAT     H2 9411   9.886   9.029   5.026
 3057WAT      O 9412   4.442   0.971   6.532
 3057WAT     H1 9413   4.532   1.009   6.509
 3057WAT     H2 9414   4.442   0.943   6.628
 3058WAT      O 9415   5.816   7.162   7.340
 3058WAT     H1 9416   5.887   7.225   7.372
 3058WAT     H2 9417   5.733   7.175   7.395
 3059WAT      O 9418   7.936   3.765   4.923
 3059WAT     H1 9419   8.016   3.724   4.878
 3059WAT     H2 9420   7.883   3.693   4.968
 3060WAT      O 9421   2.025   1.169   0.658
 3060WAT     H1 9422   2.018   1.093   0.723
 3060WAT     H2 9423   2.010   1.135   0.565
 3061WAT      O 9424   2.690   6.198   3.378
 3061WAT     H1 9425   2.679   6.243   3.289
 3061WAT     H2 9426   2.776   6.148   3.380
 3062WAT      O 9427   9.015   1.670   7.718
 3062WAT     H1 9428   8.994   1.574   7.696
 3062WAT     H2 9429   8.970   1.695   7.804
 3063WAT      O 9430   0.971   6.873   3.690
 3063WAT     H1 9431   0.951   6.946   3.625
 3063WAT     H2 9432   1.070   6.858   3.695
 3064WAT      O 9433   3.082   3.225   9.703
 3064WAT     H1 9434   3.113   3.141   9.657
 3064WAT     H2 9435   3.021   3.202   9.778
 3065WAT      O 9436   4.013   7.921   8.791
 3065WAT     H1 9437   3.965   7.904   8.705
 3065WAT     H2 9438   4.086   7.987   8.776
 3066WAT      O 9439   2.402   7.505   2.090
 3066WAT     H1 9440   2.380   7.572   2.019
 3066WAT     H2 9441   2.494   7.469   2.074
 3067WAT      O 9442   2.024   2.510   6.531
 3067WAT     H1 9443   2.100   2.533   6.593
 3067WAT     H2 9444   1.950   2.468   6.584
 3068WAT      O 9445   4.355   5.440   0.545
 3068WAT     H1 9446   4.414   5.520   0.547
 3068WAT     H2 9447   4.310   5.430   0.633
 3069WAT      O 9448   0.045   0.192   2.941
 3069WAT     H1 9449   0.106   0.234   3.008
 3069WAT     H2 9450   0.025   0.258   2.868
 3070WAT      O 9451   0.956   1.886   4.473
 3070WAT     H1 9452   0.989   1.847   4.388
 3070WAT     H2 9453   0.960   1.986   4.468
 3071WAT      O 9454   9.209   4.140   0.464
 3071WAT     H1 9455   9.281   4.209   0.463
 3071WAT     H2 9456   9.248   4.050   0.482
 3072WAT      O 9457   2.390   8.260   3.129
 3072WAT     H1 9458   2.465   8.318   3.097
 3072WAT     H2 9459   2.380   8.182   3.066
 3073WAT      O 9460   1.046   1.829   3.523
 3073WAT     H1 9461   1.098   1.909   3.492
 3073WAT     H2 9462   1.028   1.839   3.621
 3074WAT      O 9463   1.940   7.281   0.595
 3074WAT     H1 9464   1.936   7.248   0.500
 3074WAT     H2 9465   1.959   7.204   0.655
 3075WAT      O 9466   5.844   1.097   6.921
 3075WAT     H1 9467   5.859   1.150   6.838
 3075WAT     H2 9468   5.755   1.050   6.916
 3076WAT      O 9469   1.460   6.496   0.192
 3076WAT     H1 9470   1.403   6.546   0.257
 3076WAT     H2 9471   1.513   6.426   0.239
 3077WAT      O 9472   1.500   2.319   8.617
 3077WAT     H1 9473   1.591   2.331   8.578
 3077WAT     H2 9474   1.436   2.294   8.545
 3078WAT      O 9475   2.711   7.887   9.463
 3078WAT     H1 9476   2.722   7.982   9.491
 3078WAT     H2 9477   2.678   7.833   9.541
 3079WAT      O 9478   2.576   0.012   3.186
 3079WAT     H1 9479   2.620   0.037   3.100
 3079WAT     H2 9480   2.563  -0.087   3.189
 3080WAT      O 9481   7.888   1.541   8.137
 3080WAT     H1 9482   7.893   1.494   8.225
 3080WAT     H2 9483   7.922   1.635   8.147
 3081WAT      O 9484   4.326   7.073   8.610
 3081WAT     H1 9485   4.408   7.061   8.666
 3081WAT     H2 9486   4.281   7.159   8.634
 3082WAT      O 9487   4.741   5.379   2.036
 3082WAT     H1 9488   4.755   5.380   2.135
 3082WAT     H2 9489   4.771   5.465   1.996
 3083WAT      O 9490   9.372   1.582   1.696
 3083WAT     H1 9491   9.416   1.671   1.686
 3083WAT     H2 9492   9.434   1.520   1.744
 3084WAT      O 9493   2.412   1.935   7.770
 3084WAT     H1 9494   2.477   1.927   7.845
 3084WAT     H2 9495   2.350   2.012   7.788
 3085WAT      O 9496   7.089   3.930   3.339
 3085WAT     H1 9497   7.124   4.023   3.330
 3085WAT     H2 9498   7.029   3.925   3.419
 3086WAT      O 9499   3.015   6.535   8.756
 3086WAT     H1 9500   2.950   6.494   8.692
 3086WAT     H2 9501   3.087   6.468   8.776
 3087WAT      O 9502   2.670   8.213   0.618
 3087WAT     H1 9503   2.725   8.162   0.552
 3087WAT     H2 9504   2.592   8.254   0.570
 3088WAT      O 9505   2.455   3.399   8.870
 3088WAT     H1 9506   2.534   3.438   8.917
 3088WAT     H2 9507   2.380   3.386   8.935
 3089WAT      O 9508   8.632   1.153   6.205
 3089WAT     H1 9509   8.612   1.209   6.124
 3089WAT     H2 9510   8.691   1.077   6.179
 3090WAT      O 9511   4.096   0.094   7.221
 3090WAT     H1 9512   4.168   0.026   7.237
 3090WAT     H2 9513   4.037   0.064   7.147
 3091WAT      O 9514   4.945   0.802   7.314
 3091WAT     H1 9515   4.921   0.706   7.328
 3091WAT     H2 9516   4.939   0.851   7.401
 3092WAT      O 9517   7.024   4.208   2.257
 3092WAT     H1 9518   7.047   4.112   2.241
 3092WAT     H2 9519   7.085   4.266   2.203
 3093WAT      O 9520   1.004   9.556   4.969
 3093WAT     H1 9521   1.087   9.605   4.941
 3093WAT     H2 9522   0.985   9.576   5.066
 3094WAT      O 9523   0.918   2.307   5.933
 3094WAT     H1 9524   0.945   2.212   5.918
 3094WAT     H2 9525   0.907   2.324   6.031
 3095WAT      O 9526   6.958   2.622   0.226
 3095WAT     H1 9527   7.035   2.665   0.272
 3095WAT     H2 9528   6.873   2.666   0.255
 3096WAT      O 9529   8.179   5.021   7.165
 3096WAT     H1 9530   8.222   4.962   7.097
 3096WAT     H2 9531   8.150   4.965   7.243
 3097WAT      O 9532   9.525   8.292   4.027
 3097WAT     H1 9533   9.464   8.346   3.968
 3097WAT     H2 9534   9.476   8.267   4.110
 3098WAT      O 9535   4.576   6.503   2.144
 3098WAT     H1 9536   4.596   6.584   2.200
 3098WAT     H2 9537   4.655   6.441   2.146
 3099WAT      O 9538   3.574   7.039   5.121
 3099WAT     H1 9539   3.670   7.064   5.111
 3099WAT     H2 9540   3.523   7.067   5.039
 3100WAT      O 9541   8.044   8.831   2.339
 3100WAT     H1 9542   8.083   8.816   2.430
 3100WAT     H2 9543   8.116   8.857   2.275
 3101WAT      O 9544   2.155   0.810   0.169
 3101WAT     H1 9545   2.137   0.813   0.071
 3101WAT     H2 9546   2.212   0.888   0.195
 3102WAT      O 9547   9.301   4.635   3.972
 3102WAT     H1 9548   9.247   4.641   4.056
 3102WAT     H2 9549   9.293   4.544   3.933
 3103WAT      O 9550   5.525   3.253   3.898
 3103WAT     H1 9551   5.537   3.169   3.846
 3103WAT     H2 9552   5.428   3.273   3.908
 3104WAT      O 9553   0.351   3.715   9.026
 3104WAT     H1 9554   0.336   3.814   9.025
 3104WAT     H2 9555   0.367   3.684   9.119
 3105WAT      O 9556   2.047   7.311   5.256
 3105WAT     H1 9557   2.056   7.229   5.200
 3105WAT     H2 9558   2.092   7.388   5.209
 3106WAT      O 9559   2.391   9.369   7.733
 3106WAT     H1 9560   2.309   9.382   7.678
 3106WAT     H2 9561   2.381   9.416   7.821
 3107WAT      O 9562   5.959   6.191   9.528
 3107WAT     H1 9563   5.866   6.154   9.530
 3107WAT     H2 9564   6.014   6.147   9.598
 3108WAT      O 9565   6.355   8.426   4.311
 3108WAT     H1 9566   6.448   8.445   4.343
 3108WAT     H2 9567   6.295   8.502   4.333
 3109WAT      O 9568   1.645   0.294   6.251
 3109WAT     H1 9569   1.549   0.274   6.232
 3109WAT     H2 9570   1.703   0.241   6.189
 3110WAT      O 9571   2.045   9.664   3.801
 3110WAT     H1 9572   1.950   9.646   3.774
 3110WAT     H2 9573   2.068   9.759   3.781
 3111WAT      O 9574   0.356   6.940   3.921
 3111WAT     H1 9575   0.392   6.908   4.009
 3111WAT     H2 9576   0.385   7.034   3.906
 3112WAT      O 9577   7.825   6.785   4.759
 3112WAT     H1 9578   7.822   6.885   4.754
 3112WAT     H2 9579   7.920   6.755   4.760
 3113WAT      O 9580   9.158   9.102   8.740
 3113WAT     H1 9581   9.071   9.057   8.717
 3113WAT     H2 9582   9.143   9.169   8.812
 3114WAT      O 9583   9.478   1.534   8.927
 3114WAT     H1 9584   9.519   1.582   8.850
 3114WAT     H2 9585   9.438   1.601   8.990
 3115WAT      O 9586   9.800   0.461   7.634
 3115WAT     H1 9587   9.788   0.368   7.668
 3115WAT     H2 9588   9.821   0.458   7.536
 3116WAT      O 9589   4.900   6.462   5.069
 3116WAT     H1 9590   4.874   6.554   5.043
 3116WAT     H2 9591   4.991   6.441   5.032
 3117WAT      O 9592   8.043   9.170   7.132
 3117WAT     H1 9593   8.134   9.145   7.167
 3117WAT     H2 9594   8.031   9.134   7.040
 3118WAT      O 9595   8.550   0.511   8.217
 3118WAT     H1 9596   8.521   0.530   8.123
 3118WAT     H2 9597   8.648   0.530   8.226
 3119WAT      O 9598   3.904   1.133   0.283
 3119WAT     H1 9599   3.919   1.053   0.225
 3119WAT     H2 9600   3.964   1.129   0.362
 3120WAT      O 9601   4.205   9.737   1.669
 3120WAT     H1 9602   4.192   9.652   1.618
 3120WAT     H2 9603   4.118   9.785   1.677
 3121WAT      O 9604   8.538   6.085   9.658
 3121WAT     H1 9605   8.500   6.140   9.733
 3121WAT     H2 9606   8.480   6.094   9.577
 3122WAT      O 9607   5.795   1.393   6.067
 3122WAT     H1 9608   5.778   1.416   6.163
 3122WAT     H2 9609   5.708   1.379   6.021
 3123WAT      O 9610   4.528   7.551   4.604
 3123WAT     H1 9611   4.519   7.454   4.624
 3123WAT     H2 9612   4.479   7.573   4.519
 3124WAT      O 9613   5.419   2.063   6.007
 3124WAT     H1 9614   5.418   2.118   6.090
 3124WAT     H2 9615   5.482   1.987   6.017
 3125WAT      O 9616   3.754   8.706   5.838
 3125WAT     H1 9617   3.680   8.742   5.780
 3125WAT     H2 9618   3.789   8.621   5.799
 3126WAT      O 9619   5.864   4.614   0.335
 3126WAT     H1 9620   5.874   4.537   0.398
 3126WAT     H2 9621   5.911   4.594   0.249
 3127WAT      O 9622   0.733   2.812   8.031
 3127WAT     H1 9623   0.700   2.822   7.937
 3127WAT     H2 9624   0.719   2.717   8.061
 3128WAT      O 9625   8.601   7.020   8.965
 3128WAT     H1 9626   8.643   7.054   8.881
 3128WAT     H2 9627   8.609   7.090   9.036
 3129WAT      O 9628   0.971   8.106   4.218
 3129WAT     H1 9629   1.021   8.098   4.304
 3129WAT     H2 9630   0.954   8.015   4.181
 3130WAT      O 9631   7.610   0.512   2.972
 3130WAT     H1 9632   7.587   0.488   3.066
 3130WAT     H2 9633   7.536   0.484   2.911
 3131WAT      O 9634   8.885   5.643   1.019
 3131WAT     H1 9635   8.831   5.672   1.098
 3131WAT     H2 9636   8.832   5.577   0.965
 3132WAT      O 9637   1.670   3.568   9.110
 3132WAT     H1 9638   1.674   3.592   9.207
 3132WAT     H2 9639   1.738   3.623   9.060
 3133WAT      O 9640   0.037   1.871   3.189
 3133WAT     H1 9641  -0.017   1.800   3.143
 3133WAT     H2 9642   0.053   1.843   3.284
 3134WAT      O 9643   9.173   3.704   8.382
 3134WAT     H1 9644   9.133   3.636   8.320
 3134WAT     H2 9645   9.101   3.745   8.437
 3135WAT      O 9646   0.928   7.308   6.827
 3135WAT     H1 9647   1.027   7.309   6.834
 3135WAT     H2 9648   0.891   7.394   6.864
 3136WAT      O 9649   8.751   7.588   7.322
 3136WAT     H1 9650   8.806   7.671   7.315
 3136WAT     H2 9651   8.700   7.575   7.237
 3137WAT      O 9652   7.045   3.462   6.855
 3137WAT     H1 9653   7.062   3.387   6.919
 3137WAT     H2 9654   6.960   3.444   6.804
 3138WAT      O 9655   9.704   5.700   8.407
 3138WAT     H1 9656   9.710   5.752   8.492
 3138WAT     H2 9657   9.751   5.612   8.419
 3139WAT      O 9658   0.935   9.738   5.651
 3139WAT     H1 9659   0.998   9.693   5.714
 3139WAT     H2 9660   0.889   9.669   5.594
 3140WAT      O 9661   2.914   4.254   2.824
 3140WAT     H1 9662   3.014   4.259   2.814
 3140WAT     H2 9663   2.891   4.204   2.907
 3141WAT      O 9664   7.550   0.061   1.236
 3141WAT     H1 9665   7.503  -0.019   1.199
 3141WAT     H2 9666   7.559   0.052   1.336
 3142WAT      O 9667   9.704   7.834   4.366
 3142WAT     H1 9668   9.676   7.915   4.418
 3142WAT     H2 9669   9.772   7.860   4.298
 3143WAT      O 9670   0.872   2.254   1.301
 3143WAT     H1 9671   0.898   2.281   1.208
 3143WAT     H2 9672   0.780   2.215   1.300
 3144WAT      O 9673   1.545   3.304   5.771
 3144WAT     H1 9674   1.573   3.373   5.838
 3144WAT     H2 9675   1.527   3.218   5.817
 3145WAT      O 9676   6.237   1.942   9.818
 3145WAT     H1 9677   6.226   1.916   9.722
 3145WAT     H2 9678   6.335   1.945   9.840
 3146WAT      O 9679   8.975   9.295   0.678
 3146WAT     H1 9680   8.924   9.332   0.601
 3146WAT     H2 9681   8.914   9.241   0.737
 3147WAT      O 9682   8.173   2.522   2.166
 3147WAT     H1 9683   8.166   2.616   2.134
 3147WAT     H2 9684   8.123   2.462   2.103
 3148WAT      O 9685   4.141   1.414   3.511
 3148WAT     H1 9686   4.086   1.481   3.561
 3148WAT     H2 9687   4.129   1.324   3.551
 3149WAT      O 9688   0.274   0.689   1.747
 3149WAT     H1 9689   0.260   0.590   1.754
 3149WAT     H2 9690   0.358   0.707   1.697
 3150WAT      O 9691   8.557   2.503   4.450
 3150WAT     H1 9692   8.463   2.523   4.423
 3150WAT     H2 9693   8.613   2.487   4.369
 3151WAT      O 9694   8.994   0.511   6.123
 3151WAT     H1 9695   9.000   0.565   6.039
 3151WAT     H2 9696   9.065   0.441   6.123
 3152WAT      O 9697   2.178   6.471   9.387
 3152WAT     H1 9698   2.172   6.529   9.306
 3152WAT     H2 9699   2.196   6.526   9.468
 3153WAT      O 9700   2.028   1.716   5.073
 3153WAT     H1 9701   2.111   1.751   5.118
 3153WAT     H2 9702   1.973   1.793   5.041
 3154WAT      O 9703   7.282   2.351   6.315
 3154WAT     H1 9704   7.262   2.319   6.223
 3154WAT     H2 9705   7.377   2.382   6.321
 3155WAT      O 9706   7.085   7.798   4.305
 3155WAT     H1 9707   7.060   7.887   4.267
 3155WAT     H2 9708   7.117   7.810   4.400
 3156WAT      O 9709   4.541   7.733   6.598
 3156WAT     H1 9710   4.506   7.695   6.684
 3156WAT     H2 9711   4.622   7.787   6.617
 3157WAT      O 9712   9.321   3.002   4.120
 3157WAT     H1 9713   9.265   3.083   4.140
 3157WAT     H2 9714   9.357   2.964   4.205
 3158WAT      O 9715   2.627   1.744   5.204
 3158WAT     H1 9716   2.550   1.744   5.141
 3158WAT     H2 9717   2.710   1.773   5.156
 3159WAT      O 9718   2.287   2.578   2.491
 3159WAT     H1 9719   2.337   2.606   2.410
 3159WAT     H2 9720   2.350   2.570   2.569
 3160WAT      O 9721   2.814   3.603   2.686
 3160WAT     H1 9722   2.880   3.674   2.709
 3160WAT     H2 9723   2.843   3.516   2.725
 3161WAT      O 9724   5.117   4.176   1.710
 3161WAT     H1 9725   5.187   4.246   1.699
 3161WAT     H2 9726   5.063   4.195   1.792
 3162WAT      O 9727   0.321   7.120   7.055
 3162WAT     H1 9728   0.378   7.064   6.995
 3162WAT     H2 9729   0.376   7.156   7.130
 3163WAT      O 9730   3.629   4.154   1.447
 3163WAT     H1 9731   3.634   4.144   1.546
 3163WAT     H2 9732   3.666   4.071   1.404
 3164WAT      O 9733   8.430   1.965   9.559
 3164WAT     H1 9734   8.352   1.905   9.572
 3164WAT     H2 9735   8.514   1.920   9.591
 3165WAT      O 9736   9.383   6.842   8.225
 3165WAT     H1 9737   9.322   6.826   8.148
 3165WAT     H2 9738   9.459   6.900   8.197
 3166WAT      O 9739   2.697   5.753   7.457
 3166WAT     H1 9740   2.670   5.797   7.543
 3166WAT     H2 9741   2.681   5.654   7.464
 3167WAT      O 9742   6.947   0.439   7.887
 3167WAT     H1 9743   6.951   0.426   7.987
 3167WAT     H2 9744   6.873   0.385   7.849
 3168WAT      O 9745   8.809   5.966   5.543
 3168WAT     H1 9746   8.785   5.900   5.472
 3168WAT     H2 9747   8.908   5.963   5.558
 3169WAT      O 9748   3.993   6.326   9.041
 3169WAT     H1 9749   3.938   6.252   9.002
 3169WAT     H2 9750   4.075   6.287   9.084
 3170WAT      O 9751   4.070   3.846   7.549
 3170WAT     H1 9752   4.093   3.764   7.496
 3170WAT     H2 9753   4.049   3.820   7.643
 3171WAT      O 9754   9.490   2.541   8.017
 3171WAT     H1 9755   9.464   2.632   7.984
 3171WAT     H2 9756   9.429   2.472   7.977
 3172WAT      O 9757   5.775   4.000   6.776
 3172WAT     H1 9758   5.713   3.924   6.797
 3172WAT     H2 9759   5.723   4.085   6.771
 3173WAT      O 9760   0.082   2.742   1.199
 3173WAT     H1 9761   0.075   2.832   1.156
 3173WAT     H2 9762   0.138   2.683   1.141
 3174WAT      O 9763   6.402   2.863   6.571
 3174WAT     H1 9764   6.380   2.824   6.481
 3174WAT     H2 9765   6.432   2.957   6.560
 3175WAT      O 9766   8.513   7.509   0.405
 3175WAT     H1 9767   8.428   7.462   0.429
 3175WAT     H2 9768   8.548   7.471   0.319
 3176WAT      O 9769   1.349   1.034   6.888
 3176WAT     H1 9770   1.444   1.020   6.914
 3176WAT     H2 9771   1.317   1.122   6.925
 3177WAT      O 9772   2.857   0.693   1.623
 3177WAT     H1 9773   2.916   0.620   1.588
 3177WAT     H2 9774   2.796   0.724   1.550
 3178WAT      O 9775   1.577   0.995   4.303
 3178WAT     H1 9776   1.478   1.008   4.313
 3178WAT     H2 9777   1.601   0.998   4.206
 3179WAT      O 9778   4.641   9.199   2.302
 3179WAT     H1 9779   4.672   9.204   2.207
 3179WAT     H2 9780   4.541   9.208   2.304
 3180WAT      O 9781   4.713   8.416   3.094
 3180WAT     H1 9782   4.681   8.376   3.008
 3180WAT     H2 9783   4.809   8.394   3.107
 3181WAT      O 9784   6.921   6.171   3.562
 3181WAT     H1 9785   6.832   6.202   3.529
 3181WAT     H2 9786   6.909   6.117   3.645
 3182WAT      O 9787   3.214   3.997   8.536
 3182WAT     H1 9788   3.159   4.081   8.530
 3182WAT     H2 9789   3.307   4.016   8.506
 3183WAT      O 9790   2.427   9.742   2.911
 3183WAT     H1 9791   2.381   9.794   2.839
 3183WAT     H2 9792   2.520   9.775   2.921
 3184WAT      O 9793   4.751   5.901   7.850
 3184WAT     H1 9794   4.681   5.885   7.781
 3184WAT     H2 9795   4.762   5.999   7.865
 3185WAT      O 9796   9.279   2.233   0.111
 3185WAT     H1 9797   9.290   2.259   0.206
 3185WAT     H2 9798   9.317   2.304   0.052
 3186WAT      O 9799   9.325   5.521   4.897
 3186WAT     H1 9800   9.271   5.534   4.980
 3186WAT     H2 9801   9.418   5.491   4.922
 3187WAT      O 9802   9.141   2.248   1.565
 3187WAT     H1 9803   9.236   2.262   1.593
 3187WAT     H2 9804   9.114   2.155   1.587
 3188WAT      O 9805   9.459   2.016   3.507
 3188WAT     H1 9806   9.412   1.998   3.593
 3188WAT     H2 9807   9.552   1.979   3.512
 3189WAT      O 9808   6.523   2.186   3.632
 3189WAT     H1 9809   6.514   2.138   3.719
 3189WAT     H2 9810   6.486   2.129   3.559
 3190WAT      O 9811   0.599   5.048   0.733
 3190WAT     H1 9812   0.638   5.028   0.643
 3190WAT     H2 9813   0.503   5.074   0.723
 3191WAT      O 9814   4.141   3.269   5.275
 3191WAT     H1 9815   4.059   3.264   5.218
 3191WAT     H2 9816   4.139   3.196   5.342
 3192WAT      O 9817   2.825   7.965   8.718
 3192WAT     H1 9818   2.793   7.871   8.710
 3192WAT     H2 9819   2.804   8.014   8.633
 3193WAT      O 9820   6.501   1.251   0.767
 3193WAT     H1 9821   6.429   1.222   0.704
 3193WAT     H2 9822   6.590   1.244   0.722
 3194WAT      O 9823   7.424   3.653   5.504
 3194WAT     H1 9824   7.399   3.747   5.479
 3194WAT     H2 9825   7.341   3.600   5.518
 3195WAT      O 9826   6.061   9.514   3.956
 3195WAT     H1 9827   6.103   9.486   3.869
 3195WAT     H2 9828   6.056   9.435   4.017
 3196WAT      O 9829   9.489   3.217   0.015
 3196WAT     H1 9830   9.552   3.212   0.092
 3196WAT     H2 9831   9.529   3.169  -0.064
 3197WAT      O 9832   5.976   8.578   6.955
 3197WAT     H1 9833   5.964   8.602   7.052
 3197WAT     H2 9834   5.960   8.659   6.899
 3198WAT      O 9835   9.531   6.181   1.983
 3198WAT     H1 9836   9.607   6.127   2.018
 3198WAT     H2 9837   9.548   6.207   1.888
 3199WAT      O 9838   5.888   5.623   5.681
 3199WAT     H1 9839   5.819   5.648   5.750
 3199WAT     H2 9840   5.894   5.695   5.612
 3200WAT      O 9841   8.101   9.832   8.453
 3200WAT     H1 9842   8.010   9.799   8.479
 3200WAT     H2 9843   8.096   9.874   8.362
 3201WAT      O 9844   7.795   5.669   5.849
 3201WAT     H1 9845   7.757   5.694   5.939
 3201WAT     H2 9846   7.859   5.593   5.860
 3202WAT      O 9847   2.858   9.527   2.220
 3202WAT     H1 9848   2.834   9.435   2.252
 3202WAT     H2 9849   2.832   9.537   2.124
 3203WAT      O 9850   2.349   0.389   3.278
 3203WAT     H1 9851   2.324   0.297   3.250
 3203WAT     H2 9852   2.448   0.395   3.288
 3204WAT      O 9853   0.776   7.372   1.965
 3204WAT     H1 9854   0.689   7.323   1.968
 3204WAT     H2 9855   0.772   7.444   1.895
 3205WAT      O 9856   8.040   4.589   6.313
 3205WAT     H1 9857   8.108   4.519   6.338
 3205WAT     H2 9858   8.080   4.680   6.326
 3206WAT      O 9859   5.716   3.594   5.077
 3206WAT     H1 9860   5.812   3.567   5.081
 3206WAT     H2 9861   5.659   3.512   5.071
 3207WAT      O 9862   5.736   0.847   8.764
 3207WAT     H1 9863   5.684   0.933   8.764
 3207WAT     H2 9864   5.672   0.770   8.769
 3208WAT      O 9865   0.578   5.493   7.421
 3208WAT     H1 9866   0.624   5.526   7.503
 3208WAT     H2 9867   0.626   5.527   7.340
 3209WAT      O 9868   5.351   5.892   8.483
 3209WAT     H1 9869   5.432   5.851   8.441
 3209WAT     H2 9870   5.291   5.820   8.518
 3210WAT      O 9871   1.586   5.950   2.729
 3210WAT     H1 9872   1.517   5.884   2.701
 3210WAT     H2 9873   1.677   5.910   2.717
 3211WAT      O 9874   3.598   2.093   8.250
 3211WAT     H1 9875   3.521   2.032   8.229
 3211WAT     H2 9876   3.566   2.169   8.306
 3212WAT      O 9877   7.743   5.135   3.783
 3212WAT     H1 9878   7.759   5.037   3.768
 3212WAT     H2 9879   7.677   5.147   3.857
 3213WAT      O 9880   7.681   3.767   5.873
 3213WAT     H1 9881   7.765   3.741   5.826
 3213WAT     H2 9882   7.699   3.847   5.931
 3214WAT      O 9883   2.148   4.863   4.196
 3214WAT     H1 9884   2.144   4.868   4.096
 3214WAT     H2 9885   2.229   4.813   4.224
 3215WAT      O 9886   7.440   1.068   3.703
 3215WAT     H1 9887   7.514   1.056   3.769
 3215WAT     H2 9888   7.386   0.984   3.696
 3216WAT      O 9889   8.761   7.595   3.502
 3216WAT     H1 9890   8.708   7.511   3.513
 3216WAT     H2 9891   8.784   7.632   3.592
 3217WAT      O 9892   0.285   1.818   8.833
 3217WAT     H1 9893   0.304   1.866   8.919
 3217WAT     H2 9894   0.363   1.759   8.811
 3218WAT      O 9895   7.579   9.441   1.048
 3218WAT     H1 9896   7.488   9.402   1.065
 3218WAT     H2 9897   7.643   9.367   1.027
 3219WAT      O 9898   9.082   1.621   7.184
 3219WAT     H1 9899   9.037   1.554   7.243
 3219WAT     H2 9900   9.181   1.606   7.186
 3220WAT      O 9901   9.012   4.997   6.273
 3220WAT     H1 9902   8.937   5.058   6.247
 3220WAT     H2 9903   9.098   5.048   6.276
 3221WAT      O 9904   6.076   1.085   8.351
 3221WAT     H1 9905   6.094   1.183   8.352
 3221WAT     H2 9906   6.009   1.064   8.280
 3222WAT      O 9907   6.591   6.936   0.741
 3222WAT     H1 9908   6.613   6.963   0.647
 3222WAT     H2 9909   6.649   6.986   0.805
 3223WAT      O 9910   7.378   0.404   4.384
 3223WAT     H1 9911   7.373   0.381   4.287
 3223WAT     H2 9912   7.470   0.385   4.418
 3224WAT      O 9913   8.039   5.424   6.224
 3224WAT     H1 9914   8.128   5.469   6.221
 3224WAT     H2 9915   8.026   5.370   6.140
 3225WAT      O 9916   4.595   9.144   7.946
 3225WAT     H1 9917   4.603   9.241   7.925
 3225WAT     H2 9918   4.638   9.126   8.035
 3226WAT      O 9919   9.858   4.880   2.951
 3226WAT     H1 9920   9.834   4.968   2.991
 3226WAT     H2 9921   9.781   4.847   2.896
 3227WAT      O 9922   6.366   1.450   1.626
 3227WAT     H1 9923   6.331   1.409   1.710
 3227WAT     H2 9924   6.457   1.486   1.641
 3228WAT      O 9925   9.097   9.770   8.509
 3228WAT     H1 9926   9.137   9.826   8.437
 3228WAT     H2 9927   9.165   9.707   8.545
 3229WAT      O 9928   9.270   9.302   9.418
 3229WAT     H1 9929   9.208   9.232   9.453
 3229WAT     H2 9930   9.351   9.258   9.380
 3230WAT      O 9931   5.474   0.320   1.402
 3230WAT     H1 9932   5.503   0.391   1.337
 3230WAT     H2 9933   5.531   0.327   1.485
 3231WAT      O 9934   2.798   6.478   8.614
 3231WAT     H1 9935   2.759   6.568   8.630
 3231WAT     H2 9936   2.756   6.437   8.533
 3232WAT      O 9937   5.303   3.668   9.764
 3232WAT     H1 9938   5.322   3.722   9.682
 3232WAT     H2 9939   5.328   3.721   9.846
 3233WAT      O 9940   4.795   8.842   8.704
 3233WAT     H1 9941   4.739   8.799   8.634
 3233WAT     H2 9942   4.768   8.938   8.713
 3234WAT      O 9943   5.525   9.729   2.703
 3234WAT     H1 9944   5.605   9.715   2.645
 3234WAT     H2 9945   5.508   9.827   2.712
 3235WAT      O 9946   5.115   3.297   3.417
 3235WAT     H1 9947   5.107   3.282   3.318
 3235WAT     H2 9948   5.212   3.302   3.441
 3236WAT      O 9949   9.594   1.405   5.683
 3236WAT     H1 9950   9.518   1.370   5.628
 3236WAT     H2 9951   9.566   1.491   5.727
 3237WAT      O 9952   0.966   2.798   2.392
 3237WAT     H1 9953   1.036   2.746   2.342
 3237WAT     H2 9954   0.901   2.734   2.432
 3238WAT      O 9955   1.443   9.774   7.706
 3238WAT     H1 9956   1.403   9.806   7.791
 3238WAT     H2 9957   1.425   9.840   7.633
 3239WAT      O 9958   9.810   5.601   6.844
 3239WAT     H1 9959   9.813   5.523   6.782
 3239WAT     H2 9960   9.895   5.652   6.839
 3240WAT      O 9961   1.630   5.417   3.963
 3240WAT     H1 9962   1.577   5.483   4.015
 3240WAT     H2 9963   1.694   5.369   4.024
 3241WAT      O 9964   8.484   5.787   1.771
 3241WAT     H1 9965   8.395   5.801   1.730
 3241WAT     H2 9966   8.494   5.848   1.850
 3242WAT      O 9967   2.571   7.009   7.705
 3242WAT     H1 9968   2.642   6.940   7.700
 3242WAT     H2 9969   2.578   7.070   7.626
 3243WAT      O 9970   2.834   8.551   0.516
 3243WAT     H1 9971   2.810   8.627   0.577
 3243WAT     H2 9972   2.751   8.508   0.482
 3244WAT      O 9973   4.865   2.315   8.735
 3244WAT     H1 9974   4.906   2.233   8.696
 3244WAT     H2 9975   4.825   2.371   8.662
 3245WAT      O 9976   8.615   7.619   8.615
 3245WAT     H1 9977   8.578   7.560   8.687
 3245WAT     H2 9978   8.656   7.700   8.655
 3246WAT      O 9979   3.241   9.472   6.091
 3246WAT     H1 9980   3.191   9.502   6.172
 3246WAT     H2 9981   3.338   9.497   6.100
 3247WAT      O 9982   4.489   0.327   0.088
 3247WAT     H1 9983   4.464   0.254   0.025
 3247WAT     H2 9984   4.525   0.288   0.173
 3248WAT      O 9985   0.379   6.398   8.716
 3248WAT     H1 9986   0.382   6.481   8.772
 3248WAT     H2 9987   0.289   6.355   8.726
 3249WAT      O 9988   9.296   8.377   0.348
 3249WAT     H1 9989   9.372   8.362   0.286
 3249WAT     H2 9990   9.271   8.291   0.392
 3250WAT      O 9991   1.266   5.546   4.999
 3250WAT     H1 9992   1.225   5.455   5.001
 3250WAT     H2 9993   1.255   5.586   4.908
 3251WAT      O 9994   7.642   8.951   8.006
 3251WAT     H1 9995   7.718   8.886   7.998
 3251WAT     H2 9996   7.559   8.903   8.034
 3252WAT      O 9997   4.829   8.802   1.711
 3252WAT     H1 9998   4.772   8.756   1.643
 3252WAT     H2 9999   4.869   8.733   1.772
 3253WAT      O10000   8.901   8.942   9.854
 3253WAT     H110001   8.958   8.860   9.857
 3253WAT     H210002   8.954   9.020   9.888
 3254WAT      O10003   3.853   8.776   0.017
 3254WAT     H110004   3.931   8.829  -0.016
 3254WAT     H210005   3.880   8.681   0.031
 3255WAT      O10006   7.254   5.244   5.726
 3255WAT     H110007   7.241   5.256   5.627
 3255WAT     H210008   7.265   5.147   5.747
 3256WAT      O10009   2.796   0.249   2.920
 3256WAT     H110010   2.858   0.231   2.843
 3256WAT     H210011   2.826   0.331   2.968
 3257WAT      O10012   1.578   9.254   2.650
 3257WAT     H110013   1.478   9.253   2.660
 3257WAT     H210014   1.620   9.204   2.725
 3258WAT      O10015   2.988   7.835   3.163
 3258WAT     H110016   3.007   7.756   3.104
 3258WAT     H210017   3.043   7.827   3.247
 3259WAT      O10018   4.074   1.907   0.210
 3259WAT     H110019   4.154   1.966   0.219
 3259WAT     H210020   4.008   1.930   0.282
 3260WAT      O10021   5.414   7.378   2.373
 3260WAT     H110022   5.411   7.283   2.406
 3260WAT     H210023   5.455   7.380   2.282
 3261WAT      O10024   6.934   0.040   3.423
 3261WAT     H110025   6.933   0.009   3.518
 3261WAT     H210026   7.003   0.111   3.411
 3262WAT      O10027   4.704   3.734   9.578
 3262WAT     H110028   4.768   3.724   9.502
 3262WAT     H210029   4.662   3.824   9.575
 3263WAT      O10030   4.988   8.538   3.984
 3263WAT     H110031   4.920   8.494   3.925
 3263WAT     H210032   5.076   8.492   3.974
 3264WAT      O10033   6.402   7.821   8.576
 3264WAT     H110034   6.451   7.738   8.605
 3264WAT     H210035   6.448   7.901   8.613
 3265WAT      O10036   0.251   2.209   8.772
 3265WAT     H110037   0.261   2.307   8.757
 3265WAT     H210038   0.335   2.163   8.744
 3266WAT      O10039   2.958   1.503   0.897
 3266WAT     H110040   2.876   1.462   0.937
 3266WAT     H210041   2.941   1.598   0.873
 3267WAT      O10042   0.071   9.606   6.380
 3267WAT     H110043   0.087   9.685   6.439
 3267WAT     H210044   0.151   9.589   6.323
 3268WAT      O10045   1.652   9.469   2.543
 3268WAT     H110046   1.626   9.381   2.582
 3268WAT     H210047   1.646   9.540   2.613
 3269WAT      O10048   1.803   8.132   7.925
 3269WAT     H110049   1.773   8.223   7.954
 3269WAT     H210050   1.892   8.140   7.879
 3270WAT      O10051   1.836   3.855   7.822
 3270WAT     H110052   1.860   3.869   7.726
 3270WAT     H210053   1.740   3.826   7.828
 3271WAT      O10054   5.342   6.898   6.325
 3271WAT     H110055   5.312   6.870   6.416
 3271WAT     H210056   5.427   6.850   6.302
 3272WAT      O10057   2.086   6.874   6.446
 3272WAT     H110058   2.118   6.836   6.532
 3272WAT     H210059   2.150   6.848   6.373
 3273WAT      O10060   4.650   9.601   9.262
 3273WAT     H110061   4.572   9.596   9.325
 3273WAT     H210062   4.680   9.508   9.240
 3274WAT      O10063   1.242   4.871   0.097
 3274WAT     H110064   1.300   4.805   0.146
 3274WAT     H210065   1.174   4.908   0.159
 3275WAT      O10066   0.347   1.652   2.127
 3275WAT     H110067   0.427   1.594   2.144
 3275WAT     H210068   0.264   1.604   2.156
 3276WAT      O10069   4.419   8.212   2.931
 3276WAT     H110070   4.511   8.247   2.913
 3276WAT     H210071   4.358   8.239   2.856
 3277WAT      O10072   8.199   0.303   6.439
 3277WAT     H110073   8.175   0.207   6.433
 3277WAT     H210074   8.262   0.327   6.364
 3278WAT      O10075   2.213   8.292   0.561
 3278WAT     H110076   2.225   8.373   0.618
 3278WAT     H210077   2.302   8.258   0.531
 3279WAT      O10078   9.476   4.054   3.510
 3279WAT     H110079   9.568   4.090   3.520
 3279WAT     H210080   9.441   4.076   3.419
 3280WAT      O10081   0.827   1.388   7.671
 3280WAT     H110082   0.892   1.313   7.657
 3280WAT     H210083   0.734   1.351   7.666
 3281WAT      O10084   9.025   0.054   1.819
 3281WAT     H110085   8.991   0.101   1.738
 3281WAT     H210086   8.957  -0.012   1.850
 3282WAT      O10087   6.113   7.682   9.880
 3282WAT     H110088   6.169   7.764   9.865
 3282WAT     H210089   6.107   7.630   9.795
 3283WAT      O10090   5.953   0.994   2.828
 3283WAT     H110091   6.046   1.028   2.840
 3283WAT     H210092   5.930   0.934   2.904
 3284WAT      O10093   6.431   0.918   7.204
 3284WAT     H110094   6.418   0.966   7.117
 3284WAT     H210095   6.350   0.932   7.261
 3285WAT      O10096   8.718   9.596   4.644
 3285WAT     H110097   8.760   9.613   4.555
 3285WAT     H210098   8.655   9.520   4.638
 3286WAT      O10099   6.896   9.722   5.263
 3286WAT     H110100   6.862   9.649   5.322
 3286WAT     H210101   6.995   9.728   5.272
 3287WAT      O10102   4.577   3.118   1.244
 3287WAT     H110103   4.569   3.027   1.204
 3287WAT     H210104   4.532   3.120   1.333
 3288WAT      O10105   3.778   1.406   3.638
 3288WAT     H110106   3.791   1.335   3.708
 3288WAT     H210107   3.735   1.365   3.557
 3289WAT      O10108   6.554   2.769   1.240
 3289WAT     H110109   6.606   2.687   1.217
 3289WAT     H210110   6.458   2.746   1.250
 3290WAT      O10111   5.411   5.428   7.440
 3290WAT     H110112   5.439   5.486   7.516
 3290WAT     H210113   5.445   5.335   7.456
 3291WAT      O10114   0.287   1.141   0.578
 3291WAT     H110115   0.331   1.179   0.659
 3291WAT     H210116   0.210   1.084   0.606
 3292WAT      O10117   6.705   8.704   2.162
 3292WAT     H110118   6.664   8.774   2.221
 3292WAT     H210119   6.672   8.717   2.069
 3293WAT      O10120   7.549   7.183   2.204
 3293WAT     H110121   7.607   7.105   2.179
 3293WAT     H210122   7.595   7.238   2.273
 3294WAT      O10123   0.868   1.233   0.379
 3294WAT     H110124   0.886   1.194   0.289
 3294WAT     H210125   0.779   1.278   0.379
 3295WAT      O10126   0.374   3.683   9.290
 3295WAT     H110127   0.340   3.770   9.325
 3295WAT     H210128   0.343   3.609   9.349
 3296WAT      O10129   8.341   0.251   3.137
 3296WAT     H110130   8.346   0.343   3.177
 3296WAT     H210131   8.415   0.195   3.173
 3297WAT      O10132   5.096   7.256   4.085
 3297WAT     H110133   5.006   7.297   4.101
 3297WAT     H210134   5.086   7.175   4.027
 3298WAT      O10135   9.349   0.019   4.670
 3298WAT     H110136   9.306   0.087   4.729
 3298WAT     H210137   9.444   0.004   4.699
 3299WAT      O10138   5.762   5.285   3.994
 3299WAT     H110139   5.845   5.237   3.965
 3299WAT     H210140   5.778   5.384   3.989
 3300WAT      O10141   4.428   9.781   6.660
 3300WAT     H110142   4.387   9.751   6.746
 3300WAT     H210143   4.395   9.872   6.637
 3301WAT      O10144   5.664   8.215   0.053
 3301WAT     H110145   5.691   8.163   0.133
 3301WAT     H210146   5.613   8.156  -0.010
 3302WAT      O10147   3.488   5.140   5.212
 3302WAT     H110148   3.588   5.147   5.214
 3302WAT     H210149   3.461   5.076   5.141
 3303WAT      O10150   2.958   2.907   2.903
 3303WAT     H110151   3.010   2.981   2.946
 3303WAT     H210152   2.931   2.934   2.811
 3304WAT      O10153   6.458   2.749   8.700
 3304WAT     H110154   6.558   2.752   8.697
 3304WAT     H210155   6.425   2.808   8.773
 3305WAT      O10156   1.804   2.429   7.242
 3305WAT     H110157   1.826   2.526   7.260
 3305WAT     H210158   1.721   2.404   7.292
 3306WAT      O10159   7.642   6.929   2.088
 3306WAT     H110160   7.724   6.882   2.120
 3306WAT     H210161   7.564   6.903   2.144
 3307WAT      O10162   8.988   2.498   2.023
 3307WAT     H110163   8.953   2.550   1.945
 3307WAT     H210164   9.071   2.449   1.996
 3308WAT      O10165   6.162   5.529   0.324
 3308WAT     H110166   6.215   5.558   0.403
 3308WAT     H210167   6.142   5.431   0.330
 3309WAT      O10168   7.920   4.586   9.692
 3309WAT     H110169   8.000   4.528   9.676
 3309WAT     H210170   7.936   4.676   9.650
 3310WAT      O10171   2.157   5.988   4.690
 3310WAT     H110172   2.245   5.995   4.644
 3310WAT     H210173   2.088   5.956   4.625
 3311WAT      O10174   4.584   3.991   2.213
 3311WAT     H110175   4.641   4.069   2.186
 3311WAT     H210176   4.512   3.977   2.144
 3312WAT      O10177   2.133   8.209   8.909
 3312WAT     H110178   2.189   8.238   8.831
 3312WAT     H210179   2.182   8.230   8.994
 3313WAT      O10180   1.211   7.114   6.330
 3313WAT     H110181   1.274   7.172   6.277
 3313WAT     H210182   1.238   7.018   6.321
 3314WAT      O10183   3.409   7.560   4.147
 3314WAT     H110184   3.383   7.535   4.240
 3314WAT     H210185   3.375   7.492   4.082
 3315WAT      O10186   8.695   6.977   4.964
 3315WAT     H110187   8.784   7.011   4.936
 3315WAT     H210188   8.628   6.996   4.893
 3316WAT      O10189   3.901   0.921   7.483
 3316WAT     H110190   3.851   0.974   7.551
 3316WAT     H210191   3.868   0.945   7.391
 3317WAT      O10192   5.368   8.882   1.242
 3317WAT     H110193   5.354   8.790   1.278
 3317WAT     H210194   5.323   8.949   1.301
 3318WAT      O10195   2.677   9.059   5.114
 3318WAT     H110196   2.759   9.003   5.129
 3318WAT     H210197   2.700   9.155   5.129
 3319WAT      O10198   4.789   8.301   4.662
 3319WAT     H110199   4.750   8.219   4.622
 3319WAT     H210200   4.784   8.376   4.596
 3320WAT      O10201   1.715   3.202   8.899
 3320WAT     H110202   1.767   3.243   8.825
 3320WAT     H210203   1.688   3.109   8.874
 3321WAT      O10204   4.073   6.506   0.988
 3321WAT     H110205   4.133   6.452   1.048
 3321WAT     H210206   4.042   6.588   1.036
 3322WAT      O10207   5.221   7.067   0.051
 3322WAT     H110208   5.168   7.089   0.133
 3322WAT     H210209   5.300   7.128   0.045
 3323WAT      O10210   7.249   7.947   3.881
 3323WAT     H110211   7.231   8.043   3.902
 3323WAT     H210212   7.264   7.896   3.966
 3324WAT      O10213   2.394   6.058   4.576
 3324WAT     H110214   2.454   6.003   4.519
 3324WAT     H210215   2.448   6.125   4.627
 3325WAT      O10216   2.711   5.177   8.601
 3325WAT     H110217   2.722   5.175   8.700
 3325WAT     H210218   2.766   5.250   8.562
 3326WAT      O10219   1.682   5.990   6.887
 3326WAT     H110220   1.618   6.005   6.811
 3326WAT     H210221   1.632   5.998   6.974
 3327WAT      O10222   0.422   4.177   2.512
 3327WAT     H110223   0.521   4.189   2.510
 3327WAT     H210224   0.378   4.256   2.468
 3328WAT      O10225   9.694   1.635   7.665
 3328WAT     H110226   9.636   1.702   7.711
 3328WAT     H210227   9.789   1.664   7.669
 3329WAT      O10228   6.789   9.195   5.049
 3329WAT     H110229   6.689   9.202   5.050
 3329WAT     H210230   6.825   9.224   5.137
 3330WAT      O10231   3.803   6.765   4.390
 3330WAT     H110232   3.797   6.794   4.295
 3330WAT     H210233   3.885   6.803   4.431
 3331WAT      O10234   8.557   1.287   1.993
 3331WAT     H110235   8.527   1.213   2.052
 3331WAT     H210236   8.633   1.335   2.036
 3332WAT      O10237   0.144   9.707   8.907
 3332WAT     H110238   0.133   9.690   8.809
 3332WAT     H210239   0.114   9.627   8.958
 3333WAT      O10240   1.535   0.667   4.190
 3333WAT     H110241   1.458   0.653   4.251
 3333WAT     H210242   1.621   0.657   4.241
 3334WAT      O10243   2.687   5.971   4.907
 3334WAT     H110244   2.717   5.944   4.999
 3334WAT     H210245   2.595   5.937   4.891
 3335WAT      O10246   6.249   1.864   3.853
 3335WAT     H110247   6.149   1.858   3.858
 3335WAT     H210248   6.289   1.781   3.890
 3336WAT      O10249   8.086   5.217   4.266
 3336WAT     H110250   7.993   5.215   4.231
 3336WAT     H210251   8.149   5.240   4.192
 3337WAT      O10252   4.795   5.576   9.119
 3337WAT     H110253   4.834   5.657   9.074
 3337WAT     H210254   4.756   5.515   9.050
 3338WAT      O10255   7.608   3.531   9.228
 3338WAT     H110256   7.647   3.621   9.247
 3338WAT     H210257   7.530   3.542   9.166
 3339WAT      O10258   2.239   9.109   0.874
 3339WAT     H110259   2.204   9.046   0.943
 3339WAT     H210260   2.330   9.141   0.901
 3340WAT      O10261   2.819   9.755   7.131
 3340WAT     H110262   2.897   9.696   7.109
 3340WAT     H210263   2.742   9.729   7.073
 3341WAT      O10264   5.311   9.111   1.756
 3341WAT     H110265   5.396   9.068   1.786
 3341WAT     H210266   5.329   9.207   1.734
 3342WAT      O10267   4.300   4.259   8.342
 3342WAT     H110268   4.209   4.286   8.371
 3342WAT     H210269   4.363   4.265   8.419
 3343WAT      O10270   3.308   3.884   9.023
 3343WAT     H110271   3.348   3.898   9.114
 3343WAT     H210272   3.274   3.791   9.016
 3344WAT      O10273   5.356   6.449   4.132
 3344WAT     H110274   5.317   6.390   4.061
 3344WAT     H210275   5.404   6.392   4.199
 3345WAT      O10276   1.813   3.156   2.162
 3345WAT     H110277   1.730   3.105   2.141
 3345WAT     H210278   1.886   3.092   2.188
 3346WAT      O10279   4.971   1.967   8.404
 3346WAT     H110280   4.987   1.889   8.344
 3346WAT     H210281   5.041   2.037   8.388
 3347WAT      O10282   0.260   7.577   1.542
 3347WAT     H110283   0.353   7.543   1.557
 3347WAT     H210284   0.205   7.561   1.623
 3348WAT      O10285   3.133   8.495   7.135
 3348WAT     H110286   3.179   8.581   7.113
 3348WAT     H210287   3.097   8.500   7.229
 3349WAT      O10288   3.099   6.529   8.343
 3349WAT     H110289   3.020   6.472   8.322
 3349WAT     H210290   3.174   6.472   8.376
 3350WAT      O10291   5.909   6.478   4.686
 3350WAT     H110292   5.867   6.387   4.693
 3350WAT     H210293   5.870   6.527   4.608
 3351WAT      O10294   8.518   1.717   4.975
 3351WAT     H110295   8.468   1.723   5.062
 3351WAT     H210296   8.565   1.803   4.957
 3352WAT      O10297   0.361   3.278   2.939
 3352WAT     H110298   0.288   3.215   2.965
 3352WAT     H210299   0.405   3.314   3.021
 3353WAT      O10300   8.352   3.280   4.650
 3353WAT     H110301   8.298   3.304   4.570
 3353WAT     H210302   8.393   3.190   4.638
 3354WAT      O10303   7.696   4.569   1.626
 3354WAT     H110304   7.702   4.477   1.662
 3354WAT     H210305   7.748   4.575   1.540
 3355WAT      O10306   3.845   6.666   9.284
 3355WAT     H110307   3.834   6.735   9.356
 3355WAT     H210308   3.910   6.700   9.216
 3356WAT      O10309   8.574   5.177   3.069
 3356WAT     H110310   8.566   5.143   2.975
 3356WAT     H210311   8.492   5.155   3.121
 3357WAT      O10312   0.572   6.052   1.271
 3357WAT     H110313   0.552   6.001   1.188
 3357WAT     H210314   0.487   6.085   1.312
 3358WAT      O10315   8.538   6.724   5.455
 3358WAT     H110316   8.517   6.689   5.546
 3358WAT     H210317   8.635   6.710   5.435
 3359WAT      O10318   2.495   3.318   6.680
 3359WAT     H110319   2.486   3.339   6.583
 3359WAT     H210320   2.474   3.399   6.734
 3360WAT      O10321   2.195   6.244   1.868
 3360WAT     H110322   2.129   6.174   1.841
 3360WAT     H210323   2.200   6.248   1.967
 3361WAT      O10324   6.484   5.707   7.615
 3361WAT     H110325   6.407   5.761   7.579
 3361WAT     H210326   6.451   5.617   7.642
 3362WAT      O10327   6.077   2.478   5.502
 3362WAT     H110328   6.151   2.453   5.565
 3362WAT     H210329   6.059   2.576   5.508
 3363WAT      O10330   1.189   0.606   8.423
 3363WAT     H110331   1.119   0.645   8.482
 3363WAT     H210332   1.150   0.532   8.368
 3364WAT      O10333   3.487   8.162   7.065
 3364WAT     H110334   3.510   8.193   7.158
 3364WAT     H210335   3.390   8.177   7.048
 3365WAT      O10336   8.953   7.215   4.582
 3365WAT     H110337   8.947   7.128   4.533
 3365WAT     H210338   9.019   7.207   4.657
 3366WAT      O10339   6.701   4.734   7.429
 3366WAT     H110340   6.651   4.647   7.423
 3366WAT     H210341   6.795   4.720   7.399
 3367WAT      O10342   8.622   3.268   4.507
 3367WAT     H110343   8.698   3.230   4.454
 3367WAT     H210344   8.645   3.360   4.537
 3368WAT      O10345   3.802   0.399   1.289
 3368WAT     H110346   3.828   0.321   1.346
 3368WAT     H210347   3.765   0.471   1.347
 3369WAT      O10348   8.836   8.683   7.949
 3369WAT     H110349   8.840   8.610   7.882
 3369WAT     H210350   8.868   8.768   7.908
 3370WAT      O10351   3.545   7.118   2.022
 3370WAT     H110352   3.459   7.146   2.063
 3370WAT     H210353   3.596   7.060   2.085
 3371WAT      O10354   1.661   7.080   3.937
 3371WAT     H110355   1.682   6.983   3.949
 3371WAT     H210356   1.653   7.124   4.026
 3372WAT      O10357   8.797   1.768   6.134
 3372WAT     H110358   8.870   1.837   6.141
 3372WAT     H210359   8.729   1.798   6.067
 3373WAT      O10360   1.601   8.001   4.181
 3373WAT     H110361   1.640   7.911   4.164
 3373WAT     H210362   1.657   8.050   4.247
 3374WAT      O10363   1.717   6.637   7.553
 3374WAT     H110364   1.773   6.559   7.581
 3374WAT     H210365   1.621   6.609   7.548
 3375WAT      O10366   5.091   6.396   9.167
 3375WAT     H110367   5.078   6.430   9.074
 3375WAT     H210368   5.018   6.431   9.226
 3376WAT      O10369   3.628   7.045   6.403
 3376WAT     H110370   3.668   7.126   6.362
 3376WAT     H210371   3.541   7.068   6.445
 3377WAT      O10372   3.761   0.547   8.574
 3377WAT     H110373   3.692   0.602   8.620
 3377WAT     H210374   3.769   0.576   8.479
 3378WAT      O10375   1.041   8.942   4.341
 3378WAT     H110376   1.028   8.925   4.244
 3378WAT     H210377   0.972   8.892   4.393
 3379WAT      O10378   5.081   5.098   7.497
 3379WAT     H110379   5.084   5.000   7.514
 3379WAT     H210380   4.987   5.131   7.504
 3380WAT      O10381   8.085   5.457   3.621
 3380WAT     H110382   8.009   5.523   3.614
 3380WAT     H210383   8.098   5.430   3.716
 3381WAT      O10384   2.982   1.738   3.838
 3381WAT     H110385   2.899   1.697   3.876
 3381WAT     H210386   2.973   1.745   3.738
 3382WAT      O10387   1.039   2.523   1.080
 3382WAT     H110388   1.128   2.509   1.123
 3382WAT     H210389   0.998   2.434   1.058
 3383WAT      O10390   9.750   6.743   5.973
 3383WAT     H110391   9.754   6.842   5.980
 3383WAT     H210392   9.763   6.715   5.878
 3384WAT      O10393   8.384   0.482   3.317
 3384WAT     H110394   8.298   0.527   3.292
 3384WAT     H210395   8.437   0.542   3.376
 3385WAT      O10396   7.388   6.290   9.363
 3385WAT     H110397   7.430   6.235   9.291
 3385WAT     H210398   7.458   6.317   9.430
 3386WAT      O10399   2.305   8.517   1.699
 3386WAT     H110400   2.331   8.463   1.620
 3386WAT     H210401   2.211   8.550   1.687
 3387WAT      O10402   0.632   7.516   9.337
 3387WAT     H110403   0.584   7.452   9.397
 3387WAT     H210404   0.730   7.494   9.337
 3388WAT      O10405   8.112   1.960   4.288
 3388WAT     H110406   8.050   1.886   4.314
 3388WAT     H210407   8.128   1.956   4.189
 3389WAT      O10408   9.707   5.425   2.096
 3389WAT     H110409   9.743   5.335   2.071
 3389WAT     H210410   9.769   5.496   2.064
 3390WAT      O10411   2.350   7.875   6.122
 3390WAT     H110412   2.411   7.916   6.190
 3390WAT     H210413   2.261   7.919   6.125
 3391WAT      O10414   4.136   8.272   4.665
 3391WAT     H110415   4.185   8.246   4.749
 3391WAT     H210416   4.201   8.280   4.590
 3392WAT      O10417   5.776   2.169   1.768
 3392WAT     H110418   5.785   2.259   1.812
 3392WAT     H210419   5.734   2.180   1.678
 3393WAT      O10420   3.477   0.939   8.535
 3393WAT     H110421   3.563   0.977   8.569
 3393WAT     H210422   3.404   1.006   8.545
 3394WAT      O10423   4.982   1.579   9.861
 3394WAT     H110424   4.942   1.487   9.859
 3394WAT     H210425   4.959   1.628   9.777
 3395WAT      O10426   0.723   3.630   1.725
 3395WAT     H110427   0.815   3.664   1.747
 3395WAT     H210428   0.715   3.621   1.626
 3396WAT      O10429   6.467   7.598   5.895
 3396WAT     H110430   6.385   7.568   5.943
 3396WAT     H210431   6.466   7.698   5.887
 3397WAT      O10432   7.775   7.116   7.520
 3397WAT     H110433   7.726   7.031   7.500
 3397WAT     H210434   7.873   7.097   7.529
 3398WAT      O10435   9.821   5.774   8.897
 3398WAT     H110436   9.803   5.846   8.830
 3398WAT     H210437   9.786   5.687   8.863
 3399WAT      O10438   2.671   2.064   8.311
 3399WAT     H110439   2.666   1.965   8.323
 3399WAT     H210440   2.604   2.109   8.370
 3400WAT      O10441   2.986   9.505   2.656
 3400WAT     H110442   2.988   9.562   2.574
 3400WAT     H210443   3.045   9.425   2.643
 3401WAT      O10444   8.805   4.864   8.718
 3401WAT     H110445   8.804   4.949   8.666
 3401WAT     H210446   8.841   4.882   8.810
 3402WAT      O10447   7.747   6.719   3.548
 3402WAT     H110448   7.805   6.779   3.602
 3402WAT     H210449   7.783   6.626   3.552
 3403WAT      O10450   8.814   4.594   1.134
 3403WAT     H110451   8.766   4.506   1.142
 3403WAT     H210452   8.882   4.588   1.061
 3404WAT      O10453   9.358   8.854   0.798
 3404WAT     H110454   9.319   8.778   0.748
 3404WAT     H210455   9.390   8.924   0.734
 3405WAT      O10456   9.763   7.919   1.866
 3405WAT     H110457   9.751   7.960   1.956
 3405WAT     H210458   9.697   7.845   1.853
 3406WAT      O10459   5.794   3.671   2.810
 3406WAT     H110460   5.889   3.652   2.833
 3406WAT     H210461   5.738   3.667   2.893
 3407WAT      O10462   3.045   8.490   6.382
 3407WAT     H110463   3.113   8.490   6.309
 3407WAT     H210464   2.989   8.573   6.376
 3408WAT      O10465   8.589   7.394   3.533
 3408WAT     H110466   8.596   7.311   3.477
 3408WAT     H210467   8.578   7.370   3.629
 3409WAT      O10468   2.947   6.205   6.357
 3409WAT     H110469   3.033   6.200   6.306
 3409WAT     H210470   2.966   6.212   6.455
 3410WAT      O10471   9.047   4.611   3.408
 3410WAT     H110472   9.110   4.614   3.330
 3410WAT     H210473   9.095   4.637   3.491
 3411WAT      O10474   0.626   2.893   1.576
 3411WAT     H110475   0.552   2.862   1.636
 3411WAT     H210476   0.713   2.859   1.612
 3412WAT      O10477   8.416   2.964   3.266
 3412WAT     H110478   8.485   3.028   3.299
 3412WAT     H210479   8.325   2.994   3.296
 3413WAT      O10480   2.798   0.316   6.922
 3413WAT     H110481   2.791   0.303   7.021
 3413WAT     H210482   2.886   0.359   6.901
 3414WAT      O10483   6.303   9.608   2.886
 3414WAT     H110484   6.360   9.527   2.881
 3414WAT     H210485   6.336   9.668   2.959
 3415WAT      O10486   9.125   0.787   7.663
 3415WAT     H110487   9.187   0.827   7.595
 3415WAT     H210488   9.032   0.786   7.626
 3416WAT      O10489   3.703   2.137   5.714
 3416WAT     H110490   3.620   2.099   5.675
 3416WAT     H210491   3.728   2.085   5.796
 3417WAT      O10492   8.596   2.953   9.364
 3417WAT     H110493   8.634   2.946   9.456
 3417WAT     H210494   8.581   2.861   9.327
 3418WAT      O10495   8.951   1.695   2.197
 3418WAT     H110496   9.016   1.711   2.271
 3418WAT     H210497   8.971   1.607   2.153
 3419WAT      O10498   3.561   9.453   3.735
 3419WAT     H110499   3.496   9.517   3.776
 3419WAT     H210500   3.548   9.362   3.775
 3420WAT      O10501   3.522   1.694   0.351
 3420WAT     H110502   3.585   1.772   0.354
 3420WAT     H210503   3.565   1.619   0.300
 3421WAT      O10504   7.780   0.674   5.699
 3421WAT     H110505   7.711   0.603   5.713
 3421WAT     H210506   7.736   0.764   5.698
 3422WAT      O10507   9.464   0.278   1.454
 3422WAT     H110508   9.452   0.357   1.514
 3422WAT     H210509   9.520   0.209   1.500
 3423WAT      O10510   7.220   5.180   5.434
 3423WAT     H110511   7.317   5.194   5.414
 3423WAT     H210512   7.165   5.242   5.378
 3424WAT      O10513   8.042   8.890   5.423
 3424WAT     H110514   8.010   8.796   5.433
 3424WAT     H210515   7.972   8.953   5.457
 3425WAT      O10516   5.515   3.219   8.603
 3425WAT     H110517   5.421   3.207   8.573
 3425WAT     H210518   5.516   3.268   8.690
 3426WAT      O10519   2.623   1.063   0.251
 3426WAT     H110520   2.657   1.024   0.337
 3426WAT     H210521   2.630   0.994   0.179
 3427WAT      O10522   7.507   3.671   3.673
 3427WAT     H110523   7.440   3.623   3.729
 3427WAT     H210524   7.531   3.614   3.594
 3428WAT      O10525   4.965   9.065   7.838
 3428WAT     H110526   4.966   8.992   7.771
 3428WAT     H210527   4.920   9.034   7.922
 3429WAT      O10528   7.967   6.480   7.686
 3429WAT     H110529   7.915   6.508   7.767
 3429WAT     H210530   7.995   6.384   7.696
 3430WAT      O10531   3.134   9.088   4.567
 3430WAT     H110532   3.180   9.030   4.500
 3430WAT     H210533   3.062   9.035   4.613
 3431WAT      O10534   6.344   0.999   5.852
 3431WAT     H110535   6.364   1.014   5.755
 3431WAT     H210536   6.289   1.075   5.887
 3432WAT      O10537   4.557   1.175   6.810
 3432WAT     H110538   4.586   1.121   6.731
 3432WAT     H210539   4.457   1.177   6.814
 3433WAT      O10540   9.776   1.246   7.110
 3433WAT     H110541   9.875   1.254   7.122
 3433WAT     H210542   9.757   1.198   7.025
 3434WAT      O10543   3.299   8.977   8.060
 3434WAT     H110544   3.397   8.986   8.042
 3434WAT     H210545   3.248   9.020   7.985
 3435WAT      O10546   6.327   1.049   5.603
 3435WAT     H110547   6.259   1.001   5.547
 3435WAT     H210548   6.373   1.118   5.547
 3436WAT      O10549   1.900   0.805   4.044
 3436WAT     H110550   1.913   0.709   4.071
 3436WAT     H210551   1.958   0.863   4.102
 3437WAT      O10552   8.309   1.799   8.372
 3437WAT     H110553   8.368   1.745   8.432
 3437WAT     H210554   8.302   1.755   8.283
 3438WAT      O10555   5.466   3.313   9.264
 3438WAT     H110556   5.498   3.242   9.202
 3438WAT     H210557   5.374   3.291   9.297
 3439WAT      O10558   3.951   4.463   0.225
 3439WAT     H110559   3.899   4.546   0.208
 3439WAT     H210560   3.899   4.402   0.284
 3440WAT      O10561   6.968   0.480   6.419
 3440WAT     H110562   7.054   0.457   6.465
 3440WAT     H210563   6.987   0.508   6.325
 3441WAT      O10564   4.514   3.064   4.210
 3441WAT     H110565   4.558   3.048   4.122
 3441WAT     H210566   4.427   3.110   4.196
 3442WAT      O10567   5.098   6.873   1.022
 3442WAT     H110568   5.061   6.788   0.988
 3442WAT     H210569   5.032   6.916   1.084
 3443WAT      O10570   6.671   9.402   8.460
 3443WAT     H110571   6.707   9.491   8.489
 3443WAT     H210572   6.677   9.395   8.361
 3444WAT      O10573   3.648   8.314   0.314
 3444WAT     H110574   3.593   8.303   0.397
 3444WAT     H210575   3.705   8.395   0.322
 3445WAT      O10576   0.659   6.633   0.094
 3445WAT     H110577   0.666   6.700   0.167
 3445WAT     H210578   0.660   6.541   0.133
 3446WAT      O10579   7.839   3.600   8.888
 3446WAT     H110580   7.789   3.535   8.944
 3446WAT     H210581   7.780   3.632   8.814
 3447WAT      O10582   7.488   0.169   6.805
 3447WAT     H110583   7.559   0.105   6.777
 3447WAT     H210584   7.507   0.260   6.769
 3448WAT      O10585   5.845   5.377   3.245
 3448WAT     H110586   5.828   5.446   3.316
 3448WAT     H210587   5.938   5.341   3.256
 3449WAT      O10588   7.185   4.154   1.955
 3449WAT     H110589   7.153   4.089   2.024
 3449WAT     H210590   7.170   4.116   1.864
 3450WAT      O10591   7.557   1.256   7.100
 3450WAT     H110592   7.484   1.320   7.122
 3450WAT     H210593   7.645   1.304   7.099
 3451WAT      O10594   3.820   7.430   7.752
 3451WAT     H110595   3.862   7.446   7.841
 3451WAT     H210596   3.782   7.515   7.717
 3452WAT      O10597   1.080   3.058   7.087
 3452WAT     H110598   1.055   3.153   7.100
 3452WAT     H210599   1.171   3.053   7.043
 3453WAT      O10600   1.838   8.919   9.303
 3453WAT     H110601   1.877   8.872   9.382
 3453WAT     H210602   1.799   8.852   9.240
 3454WAT      O10603   8.915   9.242   2.488
 3454WAT     H110604   8.943   9.237   2.584
 3454WAT     H210605   8.984   9.292   2.436
 3455WAT      O10606   5.887   8.062   7.356
 3455WAT     H110607   5.927   8.002   7.287
 3455WAT     H210608   5.960   8.101   7.413
 3456WAT      O10609   5.218   4.569   6.780
 3456WAT     H110610   5.215   4.472   6.806
 3456WAT     H210611   5.167   4.581   6.695
 3457WAT      O10612   9.838   5.530   5.312
 3457WAT     H110613   9.767   5.584   5.267
 3457WAT     H210614   9.920   5.528   5.256
 3458WAT      O10615   3.319   4.342   2.438
 3458WAT     H110616   3.347   4.410   2.371
 3458WAT     H210617   3.364   4.362   2.526
 3459WAT      O10618   8.458   0.375   2.156
 3459WAT     H110619   8.395   0.399   2.083
 3459WAT     H210620   8.421   0.406   2.244
 3460WAT      O10621   2.797   8.561   8.479
 3460WAT     H110622   2.848   8.535   8.561
 3460WAT     H210623   2.860   8.579   8.404
 3461WAT      O10624   4.313   3.543   2.135
 3461WAT     H110625   4.403   3.545   2.178
 3461WAT     H210626   4.244   3.573   2.201
 3462WAT      O10627   7.228   7.617   2.719
 3462WAT     H110628   7.320   7.598   2.685
 3462WAT     H210629   7.234   7.670   2.804
 3463WAT      O10630   4.013   2.292   9.278
 3463WAT     H110631   3.969   2.380   9.261
 3463WAT     H210632   3.943   2.221   9.289
 3464WAT      O10633   3.778   0.261   0.670
 3464WAT     H110634   3.777   0.166   0.702
 3464WAT     H210635   3.863   0.278   0.620
 3465WAT      O10636   6.898   4.533   2.802
 3465WAT     H110637   6.868   4.445   2.764
 3465WAT     H210638   6.938   4.589   2.729
 3466WAT      O10639   8.985   4.468   0.128
 3466WAT     H110640   9.073   4.474   0.174
 3466WAT     H210641   8.947   4.560   0.118
 3467WAT      O10642   5.358   0.807   6.005
 3467WAT     H110643   5.341   0.905   5.993
 3467WAT     H210644   5.295   0.771   6.074
 3468WAT      O10645   0.577   1.571   9.383
 3468WAT     H110646   0.537   1.654   9.423
 3468WAT     H210647   0.567   1.496   9.448
 3469WAT      O10648   4.905   5.426   8.133
 3469WAT     H110649   5.003   5.415   8.115
 3469WAT     H210650   4.860   5.461   8.051
 3470WAT      O10651   1.661   5.994   4.753
 3470WAT     H110652   1.681   5.961   4.661
 3470WAT     H210653   1.627   6.088   4.749
 3471WAT      O10654   3.356   1.930   7.231
 3471WAT     H110655   3.277   1.868   7.229
 3471WAT     H210656   3.413   1.913   7.152
 3472WAT      O10657   8.773   2.446   4.262
 3472WAT     H110658   8.774   2.375   4.191
 3472WAT     H210659   8.842   2.515   4.241
 3473WAT      O10660   7.070   8.889   8.696
 3473WAT     H110661   7.030   8.922   8.782
 3473WAT     H210662   7.072   8.789   8.696
 3474WAT      O10663   5.856   1.056   0.591
 3474WAT     H110664   5.896   1.077   0.502
 3474WAT     H210665   5.915   0.990   0.639
 3475WAT      O10666   3.738   3.511   1.613
 3475WAT     H110667   3.662   3.545   1.557
 3475WAT     H210668   3.786   3.439   1.563
 3476WAT      O10669   8.760   8.448   3.461
 3476WAT     H110670   8.730   8.417   3.552
 3476WAT     H210671   8.788   8.544   3.467
 3477WAT      O10672   1.441   4.876   1.137
 3477WAT     H110673   1.447   4.950   1.204
 3477WAT     H210674   1.351   4.834   1.141
 3478WAT      O10675   9.153   1.342   8.663
 3478WAT     H110676   9.080   1.275   8.674
 3478WAT     H210677   9.185   1.342   8.568
 3479WAT      O10678   6.899   5.519   2.930
 3479WAT     H110679   6.878   5.513   3.028
 3479WAT     H210680   6.916   5.615   2.906
 3480WAT      O10681   4.212   5.216   9.581
 3480WAT     H110682   4.162   5.267   9.511
 3480WAT     H210683   4.265   5.279   9.637
 3481WAT      O10684   9.541   8.069   7.191
 3481WAT     H110685   9.533   8.164   7.222
 3481WAT     H210686   9.575   8.013   7.266
 3482WAT      O10687   7.305   9.063   4.159
 3482WAT     H110688   7.284   9.031   4.252
 3482WAT     H210689   7.329   9.160   4.161
 3483WAT      O10690   1.682   5.987   9.114
 3483WAT     H110691   1.658   6.085   9.119
 3483WAT     H210692   1.781   5.976   9.123
 3484WAT      O10693   2.089   5.640   6.368
 3484WAT     H110694   2.148   5.639   6.448
 3484WAT     H210695   2.027   5.562   6.371
 3485WAT      O10696   0.106   8.507   0.902
 3485WAT     H110697   0.066   8.532   0.814
 3485WAT     H210698   0.034   8.487   0.968
 3486WAT      O10699   0.497   7.348   3.814
 3486WAT     H110700   0.495   7.304   3.725
 3486WAT     H210701   0.548   7.291   3.879
 3487WAT      O10702   7.816   1.225   1.608
 3487WAT     H110703   7.826   1.324   1.601
 3487WAT     H210704   7.904   1.185   1.636
 3488WAT      O10705   7.877   8.898   6.416
 3488WAT     H110706   7.883   8.968   6.487
 3488WAT     H210707   7.951   8.832   6.427
 3489WAT      O10708   5.025   1.115   4.586
 3489WAT     H110709   5.003   1.049   4.515
 3489WAT     H210710   4.960   1.192   4.583
 3490WAT      O10711   7.324   6.596   3.840
 3490WAT     H110712   7.336   6.694   3.852
 3490WAT     H210713   7.407   6.548   3.870
 3491WAT      O10714   1.559   3.920   7.071
 3491WAT     H110715   1.617   3.839   7.068
 3491WAT     H210716   1.544   3.954   6.978
 3492WAT      O10717   4.957   8.360   3.148
 3492WAT     H110718   4.955   8.261   3.152
 3492WAT     H210719   5.043   8.390   3.107
 3493WAT      O10720   5.784   2.894   3.095
 3493WAT     H110721   5.703   2.840   3.121
 3493WAT     H210722   5.850   2.892   3.170
 3494WAT      O10723   6.107   8.016   0.971
 3494WAT     H110724   6.013   8.034   0.999
 3494WAT     H210725   6.108   7.944   0.901
 3495WAT      O10726   5.425   6.778   5.546
 3495WAT     H110727   5.502   6.810   5.601
 3495WAT     H210728   5.454   6.700   5.490
 3496WAT      O10729   6.659   3.798   9.646
 3496WAT     H110730   6.660   3.702   9.671
 3496WAT     H210731   6.744   3.821   9.598
 3497WAT      O10732   4.675   2.841   3.423
 3497WAT     H110733   4.716   2.923   3.384
 3497WAT     H210734   4.738   2.764   3.410
 3498WAT      O10735   4.641   9.579   8.294
 3498WAT     H110736   4.687   9.658   8.335
 3498WAT     H210737   4.614   9.515   8.366
 3499WAT      O10738   5.032   8.461   7.965
 3499WAT     H110739   5.041   8.472   8.063
 3499WAT     H210740   5.107   8.403   7.931
 3500WAT      O10741   0.934   5.605   8.320
 3500WAT     H110742   0.901   5.567   8.406
 3500WAT     H210743   0.896   5.697   8.308
 3501WAT      O10744   6.069   6.168   1.529
 3501WAT     H110745   6.127   6.222   1.467
 3501WAT     H210746   5.987   6.138   1.480
 3502WAT      O10747   1.731   7.471   4.595
 3502WAT     H110748   1.714   7.564   4.563
 3502WAT     H210749   1.814   7.469   4.650
 3503WAT      O10750   4.064   0.201   7.579
 3503WAT     H110751   4.047   0.103   7.573
 3503WAT     H210752   3.977   0.250   7.581
 3504WAT      O10753   3.909   1.479   5.475
 3504WAT     H110754   3.914   1.404   5.541
 3504WAT     H210755   3.814   1.500   5.454
 3505WAT      O10756   5.859   6.737   2.948
 3505WAT     H110757   5.848   6.760   2.851
 3505WAT     H210758   5.949   6.767   2.979
 3506WAT      O10759   4.036   6.011   0.633
 3506WAT     H110760   3.946   6.053   0.626
 3506WAT     H210761   4.069   5.986   0.541
 3507WAT      O10762   5.157   3.322   6.043
 3507WAT     H110763   5.211   3.248   6.002
 3507WAT     H210764   5.193   3.410   6.012
 3508WAT      O10765   2.482   6.586   3.869
 3508WAT     H110766   2.464   6.678   3.903
 3508WAT     H210767   2.450   6.518   3.935
 3509WAT      O10768   6.760   3.949   7.927
 3509WAT     H110769   6.667   3.913   7.928
 3509WAT     H210770   6.782   3.988   8.016
 3510WAT      O10771   0.009   9.521   6.851
 3510WAT     H110772   0.040   9.444   6.906
 3510WAT     H210773   0.018   9.605   6.903
 3511WAT      O10774   8.395   2.811   1.274
 3511WAT     H110775   8.423   2.894   1.322
 3511WAT     H210776   8.475   2.768   1.231
 3512WAT      O10777   5.118   1.402   1.378
 3512WAT     H110778   5.122   1.467   1.302
 3512WAT     H210779   5.171   1.438   1.455
 3513WAT      O10780   5.432   7.738   5.412
 3513WAT     H110781   5.379   7.816   5.379
 3513WAT     H210782   5.436   7.668   5.340
 3514WAT      O10783   6.217   9.390   1.125
 3514WAT     H110784   6.202   9.301   1.169
 3514WAT     H210785   6.200   9.381   1.026
 3515WAT      O10786   6.087   9.730   4.566
 3515WAT     H110787   6.005   9.787   4.570
 3515WAT     H210788   6.083   9.670   4.486
 3516WAT      O10789   1.412   0.585   8.602
 3516WAT     H110790   1.471   0.504   8.591
 3516WAT     H210791   1.339   0.581   8.534
 3517WAT      O10792   2.119   3.669   9.132
 3517WAT     H110793   2.159   3.677   9.041
 3517WAT     H210794   2.047   3.738   9.143
 3518WAT      O10795   2.709   0.569   8.781
 3518WAT     H110796   2.725   0.509   8.702
 3518WAT     H210797   2.796   0.610   8.809
 3519WAT      O10798   4.708   2.133   2.869
 3519WAT     H110799   4.649   2.052   2.874
 3519WAT     H210800   4.688   2.184   2.785
 3520WAT      O10801   5.687   8.564   1.610
 3520WAT     H110802   5.763   8.628   1.619
 3520WAT     H210803   5.604   8.614   1.584
 3521WAT      O10804   1.135   8.173   1.868
 3521WAT     H110805   1.171   8.089   1.827
 3521WAT     H210806   1.194   8.201   1.944
 3522WAT      O10807   5.221   2.479   5.494
 3522WAT     H110808   5.201   2.420   5.572
 3522WAT     H210809   5.139   2.490   5.438
 3523WAT      O10810   2.706   2.175   5.936
 3523WAT     H110811   2.652   2.219   6.008
 3523WAT     H210812   2.719   2.078   5.957
 3524WAT      O10813   7.086   9.816   9.352
 3524WAT     H110814   7.095   9.869   9.267
 3524WAT     H210815   7.085   9.878   9.430
 3525WAT      O10816   5.714   0.761   6.410
 3525WAT     H110817   5.738   0.820   6.333
 3525WAT     H210818   5.741   0.667   6.390
 3526WAT      O10819   8.381   7.785   2.381
 3526WAT     H110820   8.329   7.854   2.331
 3526WAT     H210821   8.398   7.817   2.474
 3527WAT      O10822   3.849   4.052   2.122
 3527WAT     H110823   3.757   4.076   2.151
 3527WAT     H210824   3.866   4.089   2.031
 3528WAT      O10825   7.777   2.414   7.025
 3528WAT     H110826   7.856   2.362   7.059
 3528WAT     H210827   7.806   2.474   6.951
 3529WAT      O10828   3.462   4.088   6.389
 3529WAT     H110829   3.504   4.106   6.478
 3529WAT     H210830   3.529   4.103   6.317
 3530WAT      O10831   2.418   7.909   4.937
 3530WAT     H110832   2.344   7.879   4.876
 3530WAT     H210833   2.393   7.889   5.032
 3531WAT      O10834   4.701   6.229   2.419
 3531WAT     H110835   4.633   6.254   2.488
 3531WAT     H210836   4.793   6.248   2.455
 3532WAT      O10837   2.865   4.815   4.554
 3532WAT     H110838   2.850   4.811   4.653
 3532WAT     H210839   2.962   4.801   4.535
 3533WAT      O10840   3.401   5.181   1.533
 3533WAT     H110841   3.487   5.185   1.583
 3533WAT     H210842   3.360   5.272   1.530
 3534WAT      O10843   0.124   8.614   7.090
 3534WAT     H110844   0.031   8.603   7.125
 3534WAT     H210845   0.190   8.602   7.165
 3535WAT      O10846   5.186   5.518   2.546
 3535WAT     H110847   5.138   5.605   2.541
 3535WAT     H210848   5.125   5.444   2.517
 3536WAT      O10849   9.086   7.067   3.845
 3536WAT     H110850   9.069   7.081   3.943
 3536WAT     H210851   9.022   7.122   3.792
 3537WAT      O10852   2.779   4.564   7.921
 3537WAT     H110853   2.832   4.593   8.001
 3537WAT     H210854   2.837   4.563   7.840
 3538WAT      O10855   5.182   7.547   0.258
 3538WAT     H110856   5.111   7.549   0.187
 3538WAT     H210857   5.156   7.609   0.332
 3539WAT      O10858   1.299   9.661   1.435
 3539WAT     H110859   1.322   9.714   1.517
 3539WAT     H210860   1.382   9.620   1.398
 3540WAT      O10861   9.598   8.468   2.440
 3540WAT     H110862   9.627   8.557   2.476
 3540WAT     H210863   9.613   8.465   2.342
 3541WAT      O10864   1.278   0.181   4.663
 3541WAT     H110865   1.337   0.111   4.623
 3541WAT     H210866   1.278   0.173   4.762
 3542WAT      O10867   6.365   1.728   5.177
 3542WAT     H110868   6.337   1.769   5.264
 3542WAT     H210869   6.298   1.751   5.106
 3543WAT      O10870   3.409   6.904   6.787
 3543WAT     H110871   3.472   6.891   6.863
 3543WAT     H210872   3.361   6.991   6.799
 3544WAT      O10873   8.359   6.276   3.882
 3544WAT     H110874   8.439   6.227   3.846
 3544WAT     H210875   8.387   6.366   3.914
 3545WAT      O10876   7.892   7.220   0.929
 3545WAT     H110877   7.898   7.156   1.006
 3545WAT     H210878   7.818   7.285   0.946
 3546WAT      O10879   1.690   1.159   7.269
 3546WAT     H110880   1.739   1.076   7.242
 3546WAT     H210881   1.699   1.172   7.368
 3547WAT      O10882   7.543   1.430   3.906
 3547WAT     H110883   7.470   1.401   3.968
 3547WAT     H210884   7.627   1.380   3.928
 3548WAT      O10885   6.006   9.353   7.078
 3548WAT     H110886   5.993   9.254   7.093
 3548WAT     H210887   6.001   9.400   7.166
 3549WAT      O10888   1.078   7.390   4.308
 3549WAT     H110889   1.029   7.472   4.279
 3549WAT     H210890   1.069   7.378   4.407
 3550WAT      O10891   0.247   8.526   9.275
 3550WAT     H110892   0.191   8.596   9.230
 3550WAT     H210893   0.189   8.474   9.339
 3551WAT      O10894   3.583   6.529   9.533
 3551WAT     H110895   3.564   6.512   9.630
 3551WAT     H210896   3.670   6.488   9.508
 3552WAT      O10897   6.985   6.921   5.620
 3552WAT     H110898   7.037   6.966   5.548
 3552WAT     H210899   6.983   6.823   5.604
 3553WAT      O10900   2.113   6.109   5.577
 3553WAT     H110901   2.138   6.026   5.628
 3553WAT     H210902   2.024   6.095   5.533
 3554WAT      O10903   8.781   8.709   4.661
 3554WAT     H110904   8.818   8.801   4.670
 3554WAT     H210905   8.801   8.657   4.745
 3555WAT      O10906   7.430   4.973   0.690
 3555WAT     H110907   7.355   5.026   0.729
 3555WAT     H210908   7.461   4.905   0.756
 3556WAT      O10909   6.118   3.960   6.227
 3556WAT     H110910   6.170   3.908   6.295
 3556WAT     H210911   6.181   3.997   6.158
 3557WAT      O10912   7.325   4.432   3.238
 3557WAT     H110913   7.425   4.426   3.240
 3557WAT     H210914   7.296   4.485   3.159
 3558WAT      O10915   0.150   2.797   1.978
 3558WAT     H110916   0.080   2.728   1.963
 3558WAT     H210917   0.241   2.755   1.970
 3559WAT      O10918   2.208   7.020   2.625
 3559WAT     H110919   2.172   6.937   2.666
 3559WAT     H210920   2.265   6.996   2.546
 3560WAT      O10921   8.970   0.058   7.097
 3560WAT     H110922   8.957   0.062   6.998
 3560WAT     H210923   9.042   0.123   7.124
 3561WAT      O10924   7.644   8.360   4.408
 3561WAT     H110925   7.726   8.371   4.465
 3561WAT     H210926   7.660   8.289   4.340
 3562WAT      O10927   4.831   3.177   8.011
 3562WAT     H110928   4.759   3.245   7.998
 3562WAT     H210929   4.839   3.120   7.929
 3563WAT      O10930   5.180   2.666   7.158
 3563WAT     H110931   5.267   2.618   7.167
 3563WAT     H210932   5.196   2.763   7.140
 3564WAT      O10933   8.542   6.338   5.806
 3564WAT     H110934   8.599   6.286   5.742
 3564WAT     H210935   8.533   6.288   5.891
 3565WAT      O10936   2.316   5.690   4.662
 3565WAT     H110937   2.257   5.672   4.741
 3565WAT     H210938   2.319   5.609   4.604
 3566WAT      O10939   5.141   3.536   7.187
 3566WAT     H110940   5.043   3.526   7.168
 3566WAT     H210941   5.158   3.624   7.231
 3567WAT      O10942   6.506   3.312   9.731
 3567WAT     H110943   6.415   3.307   9.691
 3567WAT     H210944   6.569   3.256   9.678
 3568WAT      O10945   8.978   6.936   5.032
 3568WAT     H110946   9.017   6.890   4.952
 3568WAT     H210947   9.033   7.016   5.054
 3569WAT      O10948   1.051   6.860   2.322
 3569WAT     H110949   1.042   6.921   2.401
 3569WAT     H210950   1.038   6.765   2.350
 3570WAT      O10951   7.058   0.310   3.116
 3570WAT     H110952   6.990   0.384   3.119
 3570WAT     H210953   7.023   0.234   3.061
 3571WAT      O10954   9.044   6.045   0.942
 3571WAT     H110955   8.979   6.018   0.871
 3571WAT     H210956   9.008   6.023   1.032
 3572WAT      O10957   7.730   2.953   4.257
 3572WAT     H110958   7.651   3.013   4.246
 3572WAT     H210959   7.799   2.977   4.188
 3573WAT      O10960   4.771   7.741   1.606
 3573WAT     H110961   4.784   7.725   1.508
 3573WAT     H210962   4.816   7.826   1.632
 3574WAT      O10963   0.624   8.862   6.322
 3574WAT     H110964   0.531   8.891   6.344
 3574WAT     H210965   0.655   8.796   6.391
 3575WAT      O10966   2.527   5.211   2.430
 3575WAT     H110967   2.552   5.218   2.527
 3575WAT     H210968   2.430   5.187   2.422
 3576WAT      O10969   4.400   2.765   0.553
 3576WAT     H110970   4.448   2.721   0.630
 3576WAT     H210971   4.352   2.846   0.586
 3577WAT      O10972   8.006   3.256   3.015
 3577WAT     H110973   7.970   3.330   3.072
 3577WAT     H210974   7.961   3.257   2.927
 3578WAT      O10975   5.780   7.357   2.126
 3578WAT     H110976   5.686   7.322   2.135
 3578WAT     H210977   5.778   7.457   2.120
 3579WAT      O10978   8.772   5.743   8.683
 3579WAT     H110979   8.768   5.780   8.776
 3579WAT     H210980   8.740   5.648   8.684
 3580WAT      O10981   8.086   4.003   7.550
 3580WAT     H110982   8.060   4.000   7.646
 3580WAT     H210983   8.125   4.092   7.528
 3581WAT      O10984   7.713   0.908   0.932
 3581WAT     H110985   7.657   0.926   1.013
 3581WAT     H210986   7.798   0.864   0.959
 3582WAT      O10987   4.319   7.351   0.679
 3582WAT     H110988   4.267   7.436   0.680
 3582WAT     H210989   4.259   7.275   0.705
 3583WAT      O10990   1.345   1.521   1.942
 3583WAT     H110991   1.261   1.479   1.976
 3583WAT     H210992   1.363   1.606   1.992
 3584WAT      O10993   4.005   9.794   0.554
 3584WAT     H110994   4.084   9.831   0.505
 3584WAT     H210995   3.922   9.813   0.501
 3585WAT      O10996   6.825   9.555   3.769
 3585WAT     H110997   6.817   9.460   3.800
 3585WAT     H210998   6.915   9.590   3.795
 3586WAT      O10999   8.444   8.931   2.690
 3586WAT     H111000   8.364   8.990   2.697
 3586WAT     H211001   8.527   8.985   2.704
 3587WAT      O11002   7.431   8.962   1.572
 3587WAT     H111003   7.490   9.041   1.587
 3587WAT     H211004   7.349   8.991   1.523
 3588WAT      O11005   0.691   2.226   7.660
 3588WAT     H111006   0.762   2.293   7.682
 3588WAT     H211007   0.730   2.134   7.661
 3589WAT      O11008   7.362   4.243   8.350
 3589WAT     H111009   7.374   4.217   8.254
 3589WAT     H211010   7.451   4.249   8.394
 3590WAT      O11011   6.358   3.915   8.761
 3590WAT     H111012   6.299   3.843   8.724
 3590WAT     H211013   6.342   4.000   8.712
 3591WAT      O11014   3.939   1.383   2.754
 3591WAT     H111015   3.965   1.287   2.743
 3591WAT     H211016   4.011   1.441   2.716
 3592WAT      O11017   2.467   7.431   7.523
 3592WAT     H111018   2.555   7.476   7.534
 3592WAT     H211019   2.481   7.334   7.499
 3593WAT      O11020   5.542   1.513   8.468
 3593WAT     H111021   5.484   1.534   8.547
 3593WAT     H211022   5.568   1.599   8.423
 3594WAT      O11023   2.606   2.176   7.066
 3594WAT     H111024   2.623   2.105   7.135
 3594WAT     H211025   2.533   2.146   7.005
 3595WAT      O11026   9.435   6.799   0.250
 3595WAT     H111027   9.340   6.830   0.249
 3595WAT     H211028   9.447   6.729   0.180
 3596WAT      O11029   1.721   4.269   2.071
 3596WAT     H111030   1.779   4.188   2.082
 3596WAT     H211031   1.778   4.350   2.061
 3597WAT      O11032   7.698   0.265   4.962
 3597WAT     H111033   7.783   0.245   5.010
 3597WAT     H211034   7.620   0.233   5.016
 3598WAT      O11035   7.093   2.282   3.220
 3598WAT     H111036   7.193   2.277   3.210
 3598WAT     H211037   7.051   2.263   3.131
 3599WAT      O11038   9.235   2.082   7.299
 3599WAT     H111039   9.163   2.131   7.348
 3599WAT     H211040   9.313   2.143   7.286
 3600WAT      O11041   8.314   0.233   1.759
 3600WAT     H111042   8.316   0.333   1.764
 3600WAT     H211043   8.368   0.195   1.834
 3601WAT      O11044   8.498   1.350   8.095
 3601WAT     H111045   8.598   1.349   8.089
 3601WAT     H211046   8.459   1.344   8.003
 3602WAT      O11047   2.011   8.478   0.363
 3602WAT     H111048   1.956   8.505   0.284
 3602WAT     H211049   2.067   8.399   0.339
 3603WAT      O11050   7.270   8.645   5.335
 3603WAT     H111051   7.228   8.560   5.366
 3603WAT     H211052   7.207   8.692   5.273
 3604WAT      O11053   9.310   8.222   4.201
 3604WAT     H111054   9.217   8.194   4.179
 3604WAT     H211055   9.313   8.322   4.213
 3605WAT      O11056   3.516   5.789   2.583
 3605WAT     H111057   3.504   5.842   2.499
 3605WAT     H211058   3.600   5.734   2.576
 3606WAT      O11059   4.075   4.977   7.362
 3606WAT     H111060   4.153   4.914   7.372
 3606WAT     H211061   4.041   4.973   7.268
 3607WAT      O11062   0.814   7.474   6.178
 3607WAT     H111063   0.810   7.573   6.193
 3607WAT     H211064   0.855   7.430   6.257
 3608WAT      O11065   0.889   6.289   1.036
 3608WAT     H111066   0.944   6.299   1.119
 3608WAT     H211067   0.816   6.223   1.053
 3609WAT      O11068   8.410   0.556   7.975
 3609WAT     H111069   8.363   0.636   8.014
 3609WAT     H211070   8.355   0.474   7.992
 3610WAT      O11071   3.964   5.712   9.276
 3610WAT     H111072   3.999   5.739   9.366
 3610WAT     H211073   3.864   5.714   9.278
 3611WAT      O11074   5.063   4.516   0.374
 3611WAT     H111075   5.018   4.605   0.382
 3611WAT     H211076   5.060   4.469   0.462
 3612WAT      O11077   6.892   8.285   2.023
 3612WAT     H111078   6.944   8.363   1.988
 3612WAT     H211079   6.862   8.305   2.117
 3613WAT      O11080   5.906   5.811   9.005
 3613WAT     H111081   5.854   5.850   8.929
 3613WAT     H211082   5.898   5.871   9.085
 3614WAT      O11083   6.391   4.095   8.326
 3614WAT     H111084   6.419   4.160   8.255
 3614WAT     H211085   6.425   4.125   8.415
 3615WAT      O11086   8.218   6.914   1.150
 3615WAT     H111087   8.216   7.000   1.201
 3615WAT     H211088   8.314   6.890   1.131
 3616WAT      O11089   3.346   3.354   1.453
 3616WAT     H111090   3.263   3.410   1.449
 3616WAT     H211091   3.343   3.296   1.534
 3617WAT      O11092   8.391   8.857   2.396
 3617WAT     H111093   8.413   8.855   2.494
 3617WAT     H211094   8.416   8.769   2.355
 3618WAT      O11095   5.029   4.236   2.813
 3618WAT     H111096   5.016   4.235   2.912
 3618WAT     H211097   5.008   4.327   2.777
 3619WAT      O11098   6.608   0.159   1.335
 3619WAT     H111099   6.566   0.225   1.272
 3619WAT     H211100   6.699   0.134   1.302
 3620WAT      O11101   5.230   5.196   0.594
 3620WAT     H111102   5.282   5.272   0.555
 3620WAT     H211103   5.221   5.208   0.693
 3621WAT      O11104   2.265   5.021   7.299
 3621WAT     H111105   2.230   5.032   7.392
 3621WAT     H211106   2.188   5.011   7.236
 3622WAT      O11107   6.808   1.679   7.617
 3622WAT     H111108   6.768   1.594   7.653
 3622WAT     H211109   6.785   1.688   7.520
 3623WAT      O11110   6.872   7.582   6.674
 3623WAT     H111111   6.784   7.620   6.701
 3623WAT     H211112   6.860   7.526   6.591
 3624WAT      O11113   7.620   4.538   7.970
 3624WAT     H111114   7.638   4.633   7.994
 3624WAT     H211115   7.527   4.514   7.999
 3625WAT      O11116   8.468   7.337   7.326
 3625WAT     H111117   8.532   7.384   7.387
 3625WAT     H211118   8.514   7.260   7.281
 3626WAT      O11119   0.765   2.101   8.873
 3626WAT     H111120   0.776   2.020   8.814
 3626WAT     H211121   0.840   2.104   8.939
 3627WAT      O11122   2.369   1.782   7.348
 3627WAT     H111123   2.360   1.682   7.350
 3627WAT     H211124   2.368   1.817   7.442
 3628WAT      O11125   6.717   0.247   7.095
 3628WAT     H111126   6.736   0.286   7.005
 3628WAT     H211127   6.802   0.218   7.138
 3629WAT      O11128   5.429   0.755   7.673
 3629WAT     H111129   5.426   0.740   7.574
 3629WAT     H211130   5.349   0.712   7.715
 3630WAT      O11131   7.067   8.999   9.575
 3630WAT     H111132   7.049   9.094   9.598
 3630WAT     H211133   7.024   8.977   9.487
 3631WAT      O11134   5.285   1.967   8.037
 3631WAT     H111135   5.187   1.952   8.023
 3631WAT     H211136   5.330   1.879   8.049
 3632WAT      O11137   1.658   6.811   3.004
 3632WAT     H111138   1.618   6.796   2.914
 3632WAT     H211139   1.622   6.897   3.042
 3633WAT      O11140   7.586   4.210   7.344
 3633WAT     H111141   7.671   4.160   7.360
 3633WAT     H211142   7.582   4.289   7.406
 3634WAT      O11143   0.911   0.751   8.270
 3634WAT     H111144   0.858   0.836   8.261
 3634WAT     H211145   0.897   0.713   8.362
 3635WAT      O11146   4.781   6.554   8.875
 3635WAT     H111147   4.715   6.586   8.942
 3635WAT     H211148   4.744   6.567   8.783
 3636WAT      O11149   9.284   9.016   1.634
 3636WAT     H111150   9.255   8.922   1.613
 3636WAT     H211151   9.213   9.062   1.686
 3637WAT      O11152   6.341   7.258   1.510
 3637WAT     H111153   6.429   7.270   1.463
 3637WAT     H211154   6.272   7.315   1.466
 3638WAT      O11155   4.970   8.090   5.495
 3638WAT     H111156   4.967   8.189   5.477
 3638WAT     H211157   4.929   8.041   5.418
 3639WAT      O11158   8.687   6.013   9.185
 3639WAT     H111159   8.677   5.986   9.281
 3639WAT     H211160   8.784   6.019   9.162
 3640WAT      O11161   1.811   4.012   8.061
 3640WAT     H111162   1.827   3.935   7.999
 3640WAT     H211163   1.892   4.070   8.063
 3641WAT      O11164   1.773   2.478   4.618
 3641WAT     H111165   1.788   2.576   4.630
 3641WAT     H211166   1.702   2.463   4.549
 3642WAT      O11167   9.260   0.016   8.081
 3642WAT     H111168   9.360   0.013   8.081
 3642WAT     H211169   9.224  -0.077   8.088
 3643WAT      O11170   7.956   0.430   0.040
 3643WAT     H111171   7.869   0.479   0.029
 3643WAT     H211172   7.972   0.412   0.137
 3644WAT      O11173   2.595   3.178   1.597
 3644WAT     H111174   2.670   3.207   1.658
 3644WAT     H211175   2.508   3.206   1.637
 3645WAT      O11176   0.837   4.575   3.434
 3645WAT     H111177   0.885   4.577   3.346
 3645WAT     H211178   0.852   4.662   3.482
 3646WAT      O11179   0.616   5.802   8.939
 3646WAT     H111180   0.646   5.764   9.027
 3646WAT     H211181   0.563   5.885   8.955
 3647WAT      O11182   0.206   3.780   7.431
 3647WAT     H111183   0.203   3.880   7.432
 3647WAT     H211184   0.114   3.743   7.438
 3648WAT      O11185   7.369   1.230   3.187
 3648WAT     H111186   7.326   1.176   3.259
 3648WAT     H211187   7.341   1.195   3.098
 3649WAT      O11188   1.965   7.691   6.160
 3649WAT     H111189   1.997   7.782   6.131
 3649WAT     H211190   1.884   7.702   6.218
 3650WAT      O11191   8.399   6.620   8.968
 3650WAT     H111192   8.477   6.647   8.911
 3650WAT     H211193   8.380   6.523   8.956
 3651WAT      O11194   8.744   5.197   0.175
 3651WAT     H111195   8.696   5.255   0.108
 3651WAT     H211196   8.775   5.253   0.251
 3652WAT      O11197   7.030   7.009   2.143
 3652WAT     H111198   6.976   7.088   2.114
 3652WAT     H211199   7.026   7.002   2.243
 3653WAT      O11200   0.522   3.847   5.154
 3653WAT     H111201   0.449   3.798   5.202
 3653WAT     H211202   0.583   3.781   5.111
 3654WAT      O11203   2.064   5.230   1.552
 3654WAT     H111204   2.146   5.183   1.582
 3654WAT     H211205   2.033   5.293   1.624
 3655WAT      O11206   0.377   7.695   8.747
 3655WAT     H111207   0.411   7.666   8.837
 3655WAT     H211208   0.434   7.653   8.676
 3656WAT      O11209   8.690   0.428   6.624
 3656WAT     H111210   8.742   0.456   6.544
 3656WAT     H211211   8.660   0.509   6.674
 3657WAT      O11212   6.571   8.246   0.060
 3657WAT     H111213   6.478   8.220   0.085
 3657WAT     H211214   6.581   8.242  -0.039
 3658WAT      O11215   7.049   8.216   7.802
 3658WAT     H111216   7.077   8.123   7.825
 3658WAT     H211217   7.108   8.253   7.730
 3659WAT      O11218   1.779   6.927   1.874
 3659WAT     H111219   1.855   6.863   1.868
 3659WAT     H211220   1.697   6.886   1.833
 3660WAT      O11221   7.733   2.826   8.645
 3660WAT     H111222   7.791   2.793   8.570
 3660WAT     H211223   7.790   2.870   8.714
 3661WAT      O11224   8.390   4.864   0.386
 3661WAT     H111225   8.321   4.937   0.385
 3661WAT     H211226   8.477   4.902   0.355
 3662WAT      O11227   8.180   9.807   4.139
 3662WAT     H111228   8.215   9.752   4.216
 3662WAT     H211229   8.154   9.898   4.173
 3663WAT      O11230   8.032   7.688   2.081
 3663WAT     H111231   8.085   7.636   2.014
 3663WAT     H211232   7.951   7.727   2.038
 3664WAT      O11233   5.467   4.885   7.021
 3664WAT     H111234   5.468   4.982   7.043
 3664WAT     H211235   5.373   4.856   7.004
 3665WAT      O11236   1.282   1.373   6.711
 3665WAT     H111237   1.289   1.280   6.677
 3665WAT     H211238   1.188   1.406   6.700
 3666WAT      O11239   3.599   8.338   0.823
 3666WAT     H111240   3.671   8.305   0.885
 3666WAT     H211241   3.614   8.434   0.802
 3667WAT      O11242   2.985   8.744   8.984
 3667WAT     H111243   3.056   8.736   8.914
 3667WAT     H211244   2.938   8.656   8.994
 3668WAT      O11245   8.166   7.302   3.719
 3668WAT     H111246   8.120   7.353   3.646
 3668WAT     H211247   8.155   7.204   3.703
 3669WAT      O11248   9.584   5.675   2.882
 3669WAT     H111249   9.492   5.712   2.893
 3669WAT     H211250   9.579   5.582   2.847
 3670WAT      O11251   5.148   0.167   8.079
 3670WAT     H111252   5.052   0.144   8.097
 3670WAT     H211253   5.207   0.103   8.128
 3671WAT      O11254   2.998   8.768   1.641
 3671WAT     H111255   2.901   8.781   1.661
 3671WAT     H211256   3.041   8.857   1.628
 3672WAT      O11257   5.164   2.514   3.725
 3672WAT     H111258   5.219   2.534   3.806
 3672WAT     H211259   5.224   2.485   3.650
 3673WAT      O11260   7.878   3.136   5.703
 3673WAT     H111261   7.878   3.111   5.606
 3673WAT     H211262   7.972   3.144   5.735
 3674WAT      O11263   5.167   6.712   5.481
 3674WAT     H111264   5.265   6.708   5.500
 3674WAT     H211265   5.152   6.749   5.389
 3675WAT      O11266   7.703   1.645   6.254
 3675WAT     H111267   7.773   1.647   6.326
 3675WAT     H211268   7.736   1.591   6.177
 3676WAT      O11269   7.157   4.785   0.903
 3676WAT     H111270   7.181   4.882   0.911
 3676WAT     H211271   7.229   4.737   0.853
 3677WAT      O11272   7.919   2.933   6.165
 3677WAT     H111273   7.909   3.009   6.101
 3677WAT     H211274   7.910   2.966   6.259
 3678WAT      O11275   1.940   9.084   4.407
 3678WAT     H111276   1.948   9.145   4.329
 3678WAT     H211277   1.850   9.095   4.449
 3679WAT      O11278   4.098   2.500   1.507
 3679WAT     H111279   4.086   2.597   1.528
 3679WAT     H211280   4.179   2.465   1.555
 3680WAT      O11281   8.207   5.301   7.149
 3680WAT     H111282   8.300   5.312   7.116
 3680WAT     H211283   8.183   5.203   7.148
 3681WAT      O11284   3.253   7.506   5.936
 3681WAT     H111285   3.287   7.423   5.981
 3681WAT     H211286   3.173   7.540   5.985
 3682WAT      O11287   8.143   5.355   0.314
 3682WAT     H111288   8.084   5.335   0.236
 3682WAT     H211289   8.222   5.408   0.284
 3683WAT      O11290   7.724   0.507   3.295
 3683WAT     H111291   7.682   0.433   3.348
 3683WAT     H211292   7.664   0.587   3.297
 3684WAT      O11293   3.707   2.487   7.064
 3684WAT     H111294   3.609   2.501   7.081
 3684WAT     H211295   3.760   2.523   7.140
 3685WAT      O11296   5.000   5.974   0.677
 3685WAT     H111297   4.936   5.993   0.603
 3685WAT     H211298   5.084   5.936   0.640
 3686WAT      O11299   9.857   6.902   6.570
 3686WAT     H111300   9.765   6.863   6.582
 3686WAT     H211301   9.897   6.868   6.484
 3687WAT      O11302   1.505   4.591   6.129
 3687WAT     H111303   1.575   4.555   6.067
 3687WAT     H211304   1.465   4.674   6.090
 3688WAT      O11305   7.110   5.061   4.945
 3688WAT     H111306   7.129   4.991   4.876
 3688WAT     H211307   7.054   5.021   5.018
 3689WAT      O11308   9.418   4.600   5.514
 3689WAT     H111309   9.431   4.635   5.421
 3689WAT     H211310   9.329   4.630   5.548
 3690WAT      O11311   7.997   3.698   7.072
 3690WAT     H111312   8.000   3.737   7.164
 3690WAT     H211313   7.902   3.686   7.043
 3691WAT      O11314   3.496   6.059   6.474
 3691WAT     H111315   3.412   6.045   6.526
 3691WAT     H211316   3.474   6.074   6.378
 3692WAT      O11317   0.057   6.999   7.907
 3692WAT     H111318   0.123   6.954   7.848
 3692WAT     H211319  -0.007   6.931   7.944
 3693WAT      O11320   7.432   0.944   7.368
 3693WAT     H111321   7.518   0.985   7.399
 3693WAT     H211322   7.401   0.876   7.434
 3694WAT      O11323   0.351   6.207   4.594
 3694WAT     H111324   0.344   6.225   4.496
 3694WAT     H211325   0.422   6.138   4.610
 3695WAT      O11326   9.486   3.150   4.729
 3695WAT     H111327   9.397   3.120   4.693
 3695WAT     H211328   9.507   3.099   4.812
 3696WAT      O11329   6.601   1.194   6.405
 3696WAT     H111330   6.682   1.136   6.392
 3696WAT     H211331   6.568   1.225   6.317
 3697WAT      O11332   5.551   3.303   7.811
 3697WAT     H111333   5.620   3.375   7.814
 3697WAT     H211334   5.564   3.241   7.889
 3698WAT      O11335   7.851   9.070   5.490
 3698WAT     H111336   7.833   9.113   5.402
 3698WAT     H211337   7.767   9.029   5.526
 3699WAT      O11338   5.383   2.193   8.742
 3699WAT     H111339   5.318   2.126   8.705
 3699WAT     H211340   5.423   2.246   8.667
 3700WAT      O11341   8.000   2.301   7.121
 3700WAT     H111342   8.069   2.348   7.176
 3700WAT     H211343   8.031   2.208   7.101
 3701WAT      O11344   4.970   9.370   5.624
 3701WAT     H111345   4.917   9.377   5.540
 3701WAT     H211346   4.911   9.393   5.702
 3702WAT      O11347   7.100   2.554   9.594
 3702WAT     H111348   7.121   2.645   9.556
 3702WAT     H211349   7.027   2.512   9.539
 3703WAT      O11350   9.035   3.333   5.010
 3703WAT     H111351   9.036   3.314   5.108
 3703WAT     H211352   9.099   3.272   4.963
 3704WAT      O11353   1.438   8.224   7.737
 3704WAT     H111354   1.475   8.145   7.787
 3704WAT     H211355   1.508   8.295   7.733
 3705WAT      O11356   8.921   4.643   8.574
 3705WAT     H111357   9.013   4.682   8.563
 3705WAT     H211358   8.868   4.700   8.637
 3706WAT      O11359   4.246   2.499   7.731
 3706WAT     H111360   4.286   2.582   7.692
 3706WAT     H211361   4.235   2.510   7.830
 3707WAT      O11362   0.378   0.071   1.053
 3707WAT     H111363   0.440   0.148   1.069
 3707WAT     H211364   0.397   0.030   0.964
 3708WAT      O11365   3.992   9.271   1.463
 3708WAT     H111366   4.000   9.300   1.368
 3708WAT     H211367   3.964   9.349   1.519
 3709WAT      O11368   1.341   9.583   0.191
 3709WAT     H111369   1.438   9.577   0.166
 3709WAT     H211370   1.286   9.583   0.107
 3710WAT      O11371   0.948   3.670   4.010
 3710WAT     H111372   0.869   3.615   4.035
 3710WAT     H211373   0.968   3.659   3.913
 3711WAT      O11374   3.823   7.891   0.564
 3711WAT     H111375   3.788   7.825   0.497
 3711WAT     H211376   3.876   7.842   0.633
 3712WAT      O11377   3.486   2.922   2.780
 3712WAT     H111378   3.567   2.942   2.834
 3712WAT     H211379   3.412   2.984   2.808
 3713WAT      O11380   6.145   2.048   4.985
 3713WAT     H111381   6.158   1.989   5.065
 3713WAT     H211382   6.062   2.103   4.998
 3714WAT      O11383   6.516   0.817   3.406
 3714WAT     H111384   6.436   0.778   3.452
 3714WAT     H211385   6.586   0.746   3.394
 3715WAT      O11386   3.783   8.534   6.785
 3715WAT     H111387   3.718   8.461   6.804
 3715WAT     H211388   3.734   8.618   6.761
 3716WAT      O11389   8.565   4.569   8.920
 3716WAT     H111390   8.609   4.654   8.946
 3716WAT     H211391   8.466   4.579   8.927
 3717WAT      O11392   9.003   9.697   2.663
 3717WAT     H111393   9.032   9.695   2.567
 3717WAT     H211394   8.947   9.616   2.682
 3718WAT      O11395   5.694   0.145   0.396
 3718WAT     H111396   5.749   0.125   0.478
 3718WAT     H211397   5.756   0.162   0.319
 3719WAT      O11398   1.284   6.913   6.065
 3719WAT     H111399   1.293   6.884   5.970
 3719WAT     H211400   1.371   6.949   6.097
 3720WAT      O11401   5.350   8.789   1.811
 3720WAT     H111402   5.263   8.834   1.793
 3720WAT     H211403   5.424   8.856   1.808
 3721WAT      O11404   9.323   1.816   7.816
 3721WAT     H111405   9.421   1.807   7.834
 3721WAT     H211406   9.288   1.730   7.779
 3722WAT      O11407   9.260   8.516   5.018
 3722WAT     H111408   9.273   8.609   4.984
 3722WAT     H211409   9.273   8.451   4.943
 3723WAT      O11410   0.259   2.826   8.674
 3723WAT     H111411   0.284   2.762   8.747
 3723WAT     H211412   0.237   2.774   8.591
 3724WAT      O11413   2.292   5.605   3.055
 3724WAT     H111414   2.387   5.603   3.023
 3724WAT     H211415   2.278   5.685   3.113
 3725WAT      O11416   6.895   8.079   9.821
 3725WAT     H111417   6.899   7.983   9.846
 3725WAT     H211418   6.888   8.135   9.903
 3726WAT      O11419   4.298   0.902   4.299
 3726WAT     H111420   4.267   0.904   4.204
 3726WAT     H211421   4.253   0.976   4.350
 3727WAT      O11422   6.900   5.980   3.279
 3727WAT     H111423   6.981   6.030   3.311
 3727WAT     H211424   6.818   6.033   3.299
 3728WAT      O11425   0.957   6.268   1.618
 3728WAT     H111426   1.044   6.303   1.583
 3728WAT     H211427   0.909   6.220   1.546
 3729WAT      O11428   9.690   9.705   0.378
 3729WAT     H111429   9.655   9.637   0.313
 3729WAT     H211430   9.739   9.777   0.328
 3730WAT      O11431   3.152   9.144   2.319
 3730WAT     H111432   3.083   9.081   2.281
 3730WAT     H211433   3.214   9.172   2.246
 3731WAT      O11434   0.234   5.190   6.094
 3731WAT     H111435   0.282   5.227   6.174
 3731WAT     H211436   0.277   5.225   6.011
 3732WAT      O11437   5.075   3.165   0.701
 3732WAT     H111438   5.026   3.150   0.615
 3732WAT     H211439   5.022   3.127   0.777
 3733WAT      O11440   5.199   1.216   7.658
 3733WAT     H111441   5.232   1.126   7.686
 3733WAT     H211442   5.221   1.231   7.562
 3734WAT      O11443   4.556   8.290   9.264
 3734WAT     H111444   4.476   8.233   9.250
 3734WAT     H211445   4.600   8.310   9.177
 3735WAT      O11446   0.109   3.828   4.449
 3735WAT     H111447   0.056   3.752   4.488
 3735WAT     H211448   0.074   3.914   4.487
 3736WAT      O11449   6.986   9.042   3.877
 3736WAT     H111450   7.057   8.981   3.912
 3736WAT     H211451   6.899   8.993   3.871
 3737WAT      O11452   1.848   6.133   7.138
 3737WAT     H111453   1.899   6.197   7.196
 3737WAT     H211454   1.767   6.179   7.102
 3738WAT      O11455   9.263   2.793   1.302
 3738WAT     H111456   9.354   2.762   1.273
 3738WAT     H211457   9.207   2.714   1.327
 3739WAT      O11458   9.074   1.991   9.014
 3739WAT     H111459   9.085   2.063   8.946
 3739WAT     H211460   9.040   2.030   9.100
 3740WAT      O11461   4.238   8.224   4.419
 3740WAT     H111462   4.163   8.284   4.393
 3740WAT     H211463   4.324   8.275   4.417
 3741WAT      O11464   9.827   6.750   7.990
 3741WAT     H111465   9.805   6.731   8.085
 3741WAT     H211466   9.747   6.729   7.933
 3742WAT      O11467   7.003   9.045   7.294
 3742WAT     H111468   6.939   8.969   7.299
 3742WAT     H211469   6.996   9.088   7.204
 3743WAT      O11470   6.580   6.957   7.948
 3743WAT     H111471   6.574   6.875   8.005
 3743WAT     H211472   6.496   7.010   7.957
 3744WAT      O11473   4.137   0.150   8.293
 3744WAT     H111474   4.168   0.084   8.362
 3744WAT     H211475   4.202   0.226   8.289
 3745WAT      O11476   1.845   6.195   7.439
 3745WAT     H111477   1.843   6.095   7.432
 3745WAT     H211478   1.903   6.232   7.367
 3746WAT      O11479   1.011   5.462   1.667
 3746WAT     H111480   0.929   5.429   1.713
 3746WAT     H211481   1.011   5.429   1.572
 3747WAT      O11482   5.440   0.646   0.605
 3747WAT     H111483   5.375   0.604   0.668
 3747WAT     H211484   5.527   0.662   0.652
 3748WAT      O11485   3.455   3.275   3.130
 3748WAT     H111486   3.486   3.224   3.209
 3748WAT     H211487   3.387   3.220   3.080
 3749WAT      O11488   1.923   5.149   4.898
 3749WAT     H111489   1.926   5.052   4.873
 3749WAT     H211490   1.939   5.158   4.997
 3750WAT      O11491   3.510   4.230   9.210
 3750WAT     H111492   3.531   4.133   9.218
 3750WAT     H211493   3.585   4.276   9.161
 3751WAT      O11494   4.304   3.750   7.979
 3751WAT     H111495   4.311   3.807   7.896
 3751WAT     H211496   4.265   3.804   8.053
 3752WAT      O11497   5.676   5.988   1.987
 3752WAT     H111498   5.587   5.959   1.951
 3752WAT     H211499   5.681   5.969   2.085
 3753WAT      O11500   8.996   7.681   1.718
 3753WAT     H111501   8.911   7.720   1.682
 3753WAT     H211502   9.061   7.754   1.739
 3754WAT      O11503   6.723   6.810   2.650
 3754WAT     H111504   6.642   6.751   2.649
 3754WAT     H211505   6.767   6.807   2.561
 3755WAT      O11506   1.198   6.456   0.922
 3755WAT     H111507   1.216   6.464   1.019
 3755WAT     H211508   1.120   6.394   0.908
 3756WAT      O11509   6.343   8.172   4.453
 3756WAT     H111510   6.348   8.267   4.425
 3756WAT     H211511   6.250   8.150   4.482
 3757WAT      O11512   7.553   8.909   7.630
 3757WAT     H111513   7.557   8.899   7.531
 3757WAT     H211514   7.500   8.834   7.669
 3758WAT      O11515   2.008   1.409   7.381
 3758WAT     H111516   2.008   1.341   7.307
 3758WAT     H211517   1.952   1.487   7.353
 3759WAT      O11518   8.403   2.292   5.686
 3759WAT     H111519   8.378   2.371   5.742
 3759WAT     H211520   8.437   2.323   5.597
 3760WAT      O11521   3.607   0.033   5.124
 3760WAT     H111522   3.588   0.017   5.027
 3760WAT     H211523   3.664   0.114   5.135
 3761WAT      O11524   5.459   7.145   4.135
 3761WAT     H111525   5.444   7.208   4.058
 3761WAT     H211526   5.425   7.054   4.110
 3762WAT      O11527   8.782   3.323   5.921
 3762WAT     H111528   8.714   3.277   5.864
 3762WAT     H211529   8.755   3.314   6.017
 3763WAT      O11530   9.601   2.807   2.646
 3763WAT     H111531   9.652   2.789   2.562
 3763WAT     H211532   9.528   2.738   2.655
 3764WAT      O11533   3.676   2.800   8.448
 3764WAT     H111534   3.614   2.797   8.369
 3764WAT     H211535   3.650   2.729   8.513
 3765WAT      O11536   4.303   6.875   2.383
 3765WAT     H111537   4.296   6.857   2.285
 3765WAT     H211538   4.251   6.958   2.405
 3766WAT      O11539   5.910   3.064   3.317
 3766WAT     H111540   5.829   3.040   3.370
 3766WAT     H211541   5.908   3.161   3.294
 3767WAT      O11542   0.824   2.552   3.521
 3767WAT     H111543   0.821   2.652   3.522
 3767WAT     H211544   0.909   2.521   3.563
 3768WAT      O11545   3.197   6.056   5.365
 3768WAT     H111546   3.217   6.062   5.267
 3768WAT     H211547   3.217   5.963   5.397
 3769WAT      O11548   9.800   9.118   3.210
 3769WAT     H111549   9.813   9.152   3.117
 3769WAT     H211550   9.762   9.191   3.267
 3770WAT      O11551   6.586   2.097   8.451
 3770WAT     H111552   6.624   2.189   8.440
 3770WAT     H211553   6.551   2.086   8.544
 3771WAT      O11554   6.087   1.527   0.762
 3771WAT     H111555   6.186   1.528   0.776
 3771WAT     H211556   6.043   1.584   0.831
 3772WAT      O11557   7.790   9.764   9.601
 3772WAT     H111558   7.817   9.722   9.514
 3772WAT     H211559   7.869   9.768   9.661
 3773WAT      O11560   8.814   1.110   5.584
 3773WAT     H111561   8.819   1.010   5.577
 3773WAT     H211562   8.722   1.141   5.560
 3774WAT      O11563   4.555   4.225   6.991
 3774WAT     H111564   4.571   4.187   7.083
 3774WAT     H211565   4.603   4.313   6.983
 3775WAT      O11566   1.856   8.023   1.103
 3775WAT     H111567   1.868   8.113   1.060
 3775WAT     H211568   1.921   7.958   1.063
 3776WAT      O11569   7.098   8.921   2.524
 3776WAT     H111570   7.052   9.008   2.539
 3776WAT     H211571   7.032   8.846   2.534
 3777WAT      O11572   7.134   9.540   2.621
 3777WAT     H111573   7.146   9.446   2.652
 3777WAT     H211574   7.224   9.586   2.618
 3778WAT      O11575   2.871   1.642   5.998
 3778WAT     H111576   2.815   1.592   6.064
 3778WAT     H211577   2.956   1.671   6.042
 3779WAT      O11578   5.780   1.515   0.107
 3779WAT     H111579   5.766   1.445   0.036
 3779WAT     H211580   5.726   1.492   0.187
 3780WAT      O11581   0.490   0.320   1.061
 3780WAT     H111582   0.538   0.311   0.974
 3780WAT     H211583   0.468   0.416   1.079
 3781WAT      O11584   6.941   4.760   3.175
 3781WAT     H111585   6.862   4.711   3.138
 3781WAT     H211586   6.997   4.696   3.227
 3782WAT      O11587   0.413   2.215   6.457
 3782WAT     H111588   0.431   2.161   6.539
 3782WAT     H211589   0.315   2.213   6.437
 3783WAT      O11590   5.059   1.496   3.670
 3783WAT     H111591   4.965   1.480   3.641
 3783WAT     H211592   5.110   1.410   3.666
 3784WAT      O11593   4.079   3.019   2.935
 3784WAT     H111594   4.078   3.094   2.870
 3784WAT     H211595   4.150   3.035   3.003
 3785WAT      O11596   1.945   8.438   3.307
 3785WAT     H111597   2.020   8.453   3.242
 3785WAT     H211598   1.937   8.518   3.367
 3786WAT      O11599   4.209   8.525   1.374
 3786WAT     H111600   4.239   8.573   1.292
 3786WAT     H211601   4.147   8.451   1.350
 3787WAT      O11602   2.230   7.225   5.654
 3787WAT     H111603   2.170   7.291   5.609
 3787WAT     H211604   2.254   7.260   5.745
 3788WAT      O11605   6.949   5.701   1.945
 3788WAT     H111606   6.947   5.769   2.018
 3788WAT     H211607   6.928   5.611   1.983
 3789WAT      O11608   0.446   7.078   0.807
 3789WAT     H111609   0.374   7.135   0.846
 3789WAT     H211610   0.495   7.031   0.880
 3790WAT      O11611   7.301   6.487   1.235
 3790WAT     H111612   7.224   6.519   1.181
 3790WAT     H211613   7.387   6.511   1.189
 3791WAT      O11614   2.040   8.070   9.742
 3791WAT     H111615   2.002   8.110   9.658
 3791WAT     H211616   2.020   7.972   9.744
 3792WAT      O11617   8.002   3.337   0.747
 3792WAT     H111618   7.971   3.243   0.732
 3792WAT     H211619   8.098   3.337   0.772
 3793WAT      O11620   4.558   0.121   0.953
 3793WAT     H111621   4.552   0.022   0.960
 3793WAT     H211622   4.567   0.160   1.045
 3794WAT      O11623   4.064   3.142   0.289
 3794WAT     H111624   4.163   3.128   0.279
 3794WAT     H211625   4.032   3.101   0.374
 3795WAT      O11626   7.377   1.463   7.150
 3795WAT     H111627   7.396   1.491   7.055
 3795WAT     H211628   7.294   1.509   7.182
 3796WAT      O11629   3.388   5.326   8.899
 3796WAT     H111630   3.319   5.397   8.886
 3796WAT     H211631   3.477   5.368   8.915
 3797WAT      O11632   8.340   8.064   7.219
 3797WAT     H111633   8.379   8.124   7.290
 3797WAT     H211634   8.401   8.062   7.140
 3798WAT      O11635   5.464   4.592   6.687
 3798WAT     H111636   5.371   4.608   6.720
 3798WAT     H211637   5.525   4.663   6.723
 3799WAT      O11638   4.072   9.515   4.240
 3799WAT     H111639   3.986   9.473   4.267
 3799WAT     H211640   4.104   9.476   4.154
 3800WAT      O11641   4.523   2.877   6.120
 3800WAT     H111642   4.584   2.937   6.068
 3800WAT     H211643   4.439   2.927   6.142
 3801WAT      O11644   4.072   5.643   0.419
 3801WAT     H111645   4.069   5.743   0.412
 3801WAT     H211646   4.087   5.616   0.514
 3802WAT      O11647   4.081   4.926   0.092
 3802WAT     H111648   3.999   4.966   0.052
 3802WAT     H211649   4.065   4.828   0.108
 3803WAT      O11650   8.740   2.993   6.859
 3803WAT     H111651   8.786   3.062   6.803
 3803WAT     H211652   8.788   2.984   6.946
 3804WAT      O11653   0.011   9.235   5.676
 3804WAT     H111654  -0.063   9.300   5.692
 3804WAT     H211655  -0.005   9.185   5.591
 3805WAT      O11656   5.452   3.597   5.387
 3805WAT     H111657   5.464   3.697   5.382
 3805WAT     H211658   5.383   3.569   5.320
 3806WAT      O11659   8.910   9.758   3.567
 3806WAT     H111660   8.890   9.843   3.517
 3806WAT     H211661   8.872   9.680   3.517
 3807WAT      O11662   1.137   1.215   3.474
 3807WAT     H111663   1.087   1.138   3.514
 3807WAT     H211664   1.141   1.205   3.375
 3808WAT      O11665   6.361   5.859   1.985
 3808WAT     H111666   6.333   5.842   1.890
 3808WAT     H211667   6.448   5.908   1.986
 3809WAT      O11668   0.656   1.365   8.239
 3809WAT     H111669   0.756   1.366   8.242
 3809WAT     H211670   0.623   1.446   8.191
 3810WAT      O11671   3.832   7.275   4.731
 3810WAT     H111672   3.858   7.181   4.711
 3810WAT     H211673   3.779   7.312   4.654
 3811WAT      O11674   8.375   8.047   5.053
 3811WAT     H111675   8.298   8.014   5.108
 3811WAT     H211676   8.433   8.106   5.110
 3812WAT      O11677   2.003   3.914   8.848
 3812WAT     H111678   1.967   3.977   8.780
 3812WAT     H211679   2.038   3.832   8.802
 3813WAT      O11680   5.811   4.523   6.852
 3813WAT     H111681   5.756   4.474   6.785
 3813WAT     H211682   5.812   4.620   6.830
 3814WAT      O11683   3.267   6.957   9.047
 3814WAT     H111684   3.339   6.980   9.112
 3814WAT     H211685   3.206   6.888   9.086
 3815WAT      O11686   9.145   7.577   7.327
 3815WAT     H111687   9.173   7.515   7.253
 3815WAT     H211688   9.060   7.623   7.301
 3816WAT      O11689   3.018   5.808   5.551
 3816WAT     H111690   3.108   5.789   5.512
 3816WAT     H211691   3.028   5.842   5.644
 3817WAT      O11692   7.863   1.742   4.367
 3817WAT     H111693   7.852   1.746   4.466
 3817WAT     H211694   7.775   1.758   4.323
 3818WAT      O11695   4.892   2.648   6.331
 3818WAT     H111696   4.875   2.733   6.382
 3818WAT     H211697   4.805   2.614   6.294
 3819WAT      O11698   9.505   4.764   8.879
 3819WAT     H111699   9.516   4.846   8.823
 3819WAT     H211700   9.535   4.783   8.972
 3820WAT      O11701   2.744   3.779   6.027
 3820WAT     H111702   2.788   3.812   6.111
 3820WAT     H211703   2.731   3.680   6.034
 3821WAT      O11704   3.272   6.434   4.493
 3821WAT     H111705   3.241   6.526   4.519
 3821WAT     H211706   3.197   6.386   4.447
 3822WAT      O11707   8.144   2.580   0.407
 3822WAT     H111708   8.233   2.622   0.392
 3822WAT     H211709   8.099   2.564   0.319
 3823WAT      O11710   5.807   2.545   0.786
 3823WAT     H111711   5.785   2.582   0.695
 3823WAT     H211712   5.769   2.452   0.793
 3824WAT      O11713   9.599   4.171   4.446
 3824WAT     H111714   9.517   4.180   4.502
 3824WAT     H211715   9.644   4.084   4.468
 3825WAT      O11716   4.940   3.323   1.993
 3825WAT     H111717   5.039   3.331   2.000
 3825WAT     H211718   4.916   3.301   1.898
 3826WAT      O11719   6.572   6.816   3.834
 3826WAT     H111720   6.619   6.730   3.852
 3826WAT     H211721   6.618   6.865   3.759
 3827WAT      O11722   6.361   4.013   4.166
 3827WAT     H111723   6.434   3.944   4.164
 3827WAT     H211724   6.388   4.091   4.110
 3828WAT      O11725   6.350   4.374   2.000
 3828WAT     H111726   6.324   4.280   2.022
 3828WAT     H211727   6.450   4.380   1.994
 3829WAT      O11728   9.168   1.700   1.832
 3829WAT     H111729   9.252   1.672   1.786
 3829WAT     H211730   9.101   1.730   1.764
 3830WAT      O11731   6.873   4.274   3.708
 3830WAT     H111732   6.945   4.211   3.735
 3830WAT     H211733   6.876   4.287   3.609
 3831WAT      O11734   0.150   3.677   1.723
 3831WAT     H111735   0.164   3.678   1.822
 3831WAT     H211736   0.140   3.771   1.690
 3832WAT      O11737   0.947   2.111   8.069
 3832WAT     H111738   0.876   2.061   8.020
 3832WAT     H211739   0.992   2.175   8.007
 3833WAT      O11740   2.157   2.342   2.840
 3833WAT     H111741   2.175   2.287   2.758
 3833WAT     H211742   2.238   2.397   2.861
 3834WAT      O11743   0.261   0.132   1.506
 3834WAT     H111744   0.180   0.169   1.551
 3834WAT     H211745   0.316   0.081   1.572
 3835WAT      O11746   7.864   7.088   4.805
 3835WAT     H111747   7.799   7.077   4.880
 3835WAT     H211748   7.956   7.099   4.841
 3836WAT      O11749   8.350   1.424   9.483
 3836WAT     H111750   8.265   1.472   9.463
 3836WAT     H211751   8.420   1.450   9.417
 3837WAT      O11752   8.798   2.249   8.500
 3837WAT     H111753   8.757   2.166   8.538
 3837WAT     H211754   8.885   2.225   8.456
 3838WAT      O11755   5.086   9.099   2.450
 3838WAT     H111756   5.035   9.029   2.400
 3838WAT     H211757   5.055   9.190   2.421
 3839WAT      O11758   2.665   2.818   8.736
 3839WAT     H111759   2.685   2.847   8.643
 3839WAT     H211760   2.747   2.831   8.793
 3840WAT      O11761   5.512   8.478   2.072
 3840WAT     H111762   5.546   8.562   2.116
 3840WAT     H211763   5.536   8.479   1.975
 3841WAT      O11764   2.044   1.579   1.154
 3841WAT     H111765   2.101   1.513   1.104
 3841WAT     H211766   1.949   1.549   1.151
 3842WAT      O11767   8.138   6.945   2.911
 3842WAT     H111768   8.209   6.874   2.912
 3842WAT     H211769   8.048   6.902   2.916
 3843WAT      O11770   0.052   8.025   4.865
 3843WAT     H111771  -0.019   7.958   4.844
 3843WAT     H211772   0.016   8.093   4.929
 3844WAT      O11773   7.520   2.696   2.559
 3844WAT     H111774   7.421   2.693   2.545
 3844WAT     H211775   7.566   2.643   2.487
 3845WAT      O11776   4.971   7.785   6.008
 3845WAT     H111777   4.913   7.741   5.940
 3845WAT     H211778   4.993   7.720   6.081
 3846WAT      O11779   1.757   4.774   2.379
 3846WAT     H111780   1.682   4.710   2.369
 3846WAT     H211781   1.844   4.725   2.376
 3847WAT      O11782   8.402   1.881   6.777
 3847WAT     H111783   8.372   1.974   6.752
 3847WAT     H211784   8.501   1.881   6.794
 3848WAT      O11785   7.401   8.280   7.375
 3848WAT     H111786   7.331   8.267   7.445
 3848WAT     H211787   7.483   8.320   7.417
 3849WAT      O11788   1.822   5.118   9.420
 3849WAT     H111789   1.860   5.180   9.351
 3849WAT     H211790   1.743   5.161   9.464
 3850WAT      O11791   0.036   3.286   1.323
 3850WAT     H111792  -0.030   3.217   1.293
 3850WAT     H211793  -0.013   3.368   1.353
 3851WAT      O11794   3.005   5.311   3.785
 3851WAT     H111795   2.919   5.277   3.748
 3851WAT     H211796   3.073   5.237   3.783
 3852WAT      O11797   9.786   7.151   3.987
 3852WAT     H111798   9.748   7.231   4.033
 3852WAT     H211799   9.731   7.129   3.907
 3853WAT      O11800   8.558   1.030   0.808
 3853WAT     H111801   8.617   1.110   0.802
 3853WAT     H211802   8.508   1.018   0.722
 3854WAT      O11803   1.371   9.145   9.687
 3854WAT     H111804   1.408   9.150   9.779
 3854WAT     H211805   1.336   9.053   9.670
 3855WAT      O11806   3.544   0.809   7.227
 3855WAT     H111807   3.579   0.722   7.262
 3855WAT     H211808   3.615   0.879   7.234
 3856WAT      O11809   1.061   5.029   3.912
 3856WAT     H111810   1.013   4.949   3.875
 3856WAT     H211811   1.113   5.074   3.839
 3857WAT      O11812   2.051   1.239   1.209
 3857WAT     H111813   2.114   1.171   1.172
 3857WAT     H211814   1.987   1.267   1.138
 3858WAT      O11815   6.473   8.560   0.443
 3858WAT     H111816   6.508   8.568   0.350
 3858WAT     H211817   6.522   8.488   0.491
 3859WAT      O11818   2.267   1.530   7.372
 3859WAT     H111819   2.338   1.506   7.438
 3859WAT     H211820   2.177   1.513   7.411
 3860WAT      O11821   7.954   4.475   5.539
 3860WAT     H111822   7.988   4.499   5.630
 3860WAT     H211823   7.861   4.439   5.546
 3861WAT      O11824   7.533   8.269   1.347
 3861WAT     H111825   7.450   8.296   1.299
 3861WAT     H211826   7.513   8.192   1.408
 3862WAT      O11827   0.668   2.145   9.688
 3862WAT     H111828   0.738   2.088   9.646
 3862WAT     H211829   0.596   2.163   9.621
 3863WAT      O11830   7.995   6.789   1.197
 3863WAT     H111831   7.975   6.730   1.119
 3863WAT     H211832   8.089   6.822   1.191
 3864WAT      O11833   2.554   5.232   2.695
 3864WAT     H111834   2.466   5.278   2.704
 3864WAT     H211835   2.623   5.283   2.747
 3865WAT      O11836   9.703   1.883   3.443
 3865WAT     H111837   9.740   1.923   3.359
 3865WAT     H211838   9.723   1.785   3.444
 3866WAT      O11839   9.119   9.067   6.862
 3866WAT     H111840   9.140   9.162   6.887
 3866WAT     H211841   9.090   9.016   6.943
 3867WAT      O11842   2.302   2.372   6.272
 3867WAT     H111843   2.222   2.315   6.253
 3867WAT     H211844   2.272   2.461   6.306
 3868WAT      O11845   4.934   8.915   9.679
 3868WAT     H111846   4.988   8.840   9.641
 3868WAT     H211847   4.963   8.934   9.772
 3869WAT      O11848   7.707   9.009   1.145
 3869WAT     H111849   7.630   8.961   1.103
 3869WAT     H211850   7.783   8.945   1.157
 3870WAT      O11851   0.008   1.581   0.120
 3870WAT     H111852   0.004   1.524   0.203
 3870WAT     H211853  -0.027   1.672   0.141
 3871WAT      O11854   1.881   4.077   1.906
 3871WAT     H111855   1.813   4.010   1.937
 3871WAT     H211856   1.876   4.086   1.807
 3872WAT      O11857   5.235   0.848   5.230
 3872WAT     H111858   5.141   0.882   5.235
 3872WAT     H211859   5.298   0.926   5.222
 3873WAT      O11860   4.559   5.593   9.785
 3873WAT     H111861   4.512   5.676   9.814
 3873WAT     H211862   4.610   5.610   9.701
 3874WAT      O11863   0.462   4.289   7.279
 3874WAT     H111864   0.539   4.241   7.321
 3874WAT     H211865   0.403   4.326   7.351
 3875WAT      O11866   0.323   0.439   9.862
 3875WAT     H111867   0.361   0.399   9.779
 3875WAT     H211868   0.230   0.404   9.877
 3876WAT      O11869   3.682   1.424   6.667
 3876WAT     H111870   3.653   1.502   6.723
 3876WAT     H211871   3.681   1.341   6.723
 3877WAT      O11872   1.260   4.184   6.426
 3877WAT     H111873   1.198   4.116   6.386
 3877WAT     H211874   1.298   4.241   6.354
 3878WAT      O11875   6.459   2.149   0.012
 3878WAT     H111876   6.374   2.200   0.021
 3878WAT     H211877   6.452   2.064   0.064
 3879WAT      O11878   3.959   7.062   5.800
 3879WAT     H111879   3.894   7.137   5.812
 3879WAT     H211880   4.044   7.098   5.760
 3880WAT      O11881   2.886   4.892   8.668
 3880WAT     H111882   2.896   4.874   8.570
 3880WAT     H211883   2.824   4.969   8.681
 3881WAT      O11884   7.866   4.232   4.885
 3881WAT     H111885   7.926   4.243   4.963
 3881WAT     H211886   7.868   4.315   4.829
 3882WAT      O11887   8.410   3.422   6.170
 3882WAT     H111888   8.398   3.375   6.083
 3882WAT     H211889   8.424   3.520   6.154
 3883WAT      O11890   6.616   2.489   1.328
 3883WAT     H111891   6.620   2.411   1.265
 3883WAT     H211892   6.657   2.464   1.415
 3884WAT      O11893   7.152   5.202   8.048
 3884WAT     H111894   7.141   5.111   8.089
 3884WAT     H211895   7.062   5.238   8.025
 3885WAT      O11896   8.377   0.721   6.089
 3885WAT     H111897   8.466   0.729   6.134
 3885WAT     H211898   8.320   0.799   6.115
 3886WAT      O11899   6.272   4.940   6.367
 3886WAT     H111900   6.233   4.927   6.459
 3886WAT     H211901   6.276   4.852   6.321
 3887WAT      O11902   6.953   5.093   1.635
 3887WAT     H111903   6.865   5.128   1.666
 3887WAT     H211904   7.019   5.098   1.710
 3888WAT      O11905   2.543   8.349   3.874
 3888WAT     H111906   2.461   8.348   3.817
 3888WAT     H211907   2.539   8.427   3.937
 3889WAT      O11908   7.747   0.251   6.997
 3889WAT     H111909   7.846   0.250   7.006
 3889WAT     H211910   7.709   0.163   7.025
 3890WAT      O11911   2.885   5.993   0.972
 3890WAT     H111912   2.934   5.972   0.888
 3890WAT     H211913   2.830   5.914   0.999
 3891WAT      O11914   3.458   0.162   6.906
 3891WAT     H111915   3.431   0.243   6.854
 3891WAT     H211916   3.392   0.089   6.891
 3892WAT      O11917   1.561   5.619   0.923
 3892WAT     H111918   1.635   5.566   0.963
 3892WAT     H211919   1.475   5.595   0.968
 3893WAT      O11920   0.882   5.460   9.527
 3893WAT     H111921   0.969   5.509   9.532
 3893WAT     H211922   0.808   5.525   9.514
 3894WAT      O11923   0.902   9.379   7.993
 3894WAT     H111924   0.954   9.294   7.990
 3894WAT     H211925   0.888   9.413   7.900
 3895WAT      O11926   4.619   5.987   7.101
 3895WAT     H111927   4.543   6.014   7.042
 3895WAT     H211928   4.705   6.020   7.062
 3896WAT      O11929   8.824   9.731   8.568
 3896WAT     H111930   8.920   9.707   8.560
 3896WAT     H211931   8.783   9.679   8.644
 3897WAT      O11932   0.395   6.200   9.284
 3897WAT     H111933   0.446   6.126   9.326
 3897WAT     H211934   0.366   6.265   9.355
 3898WAT      O11935   9.500   0.488   6.190
 3898WAT     H111936   9.439   0.461   6.265
 3898WAT     H211937   9.446   0.529   6.117
 3899WAT      O11938   0.904   9.607   4.033
 3899WAT     H111939   0.870   9.669   3.963
 3899WAT     H211940   0.848   9.524   4.034
 3900WAT      O11941   2.614   0.022   8.624
 3900WAT     H111942   2.596   0.042   8.720
 3900WAT     H211943   2.528   0.003   8.576
 3901WAT      O11944   4.248   0.176   9.233
 3901WAT     H111945   4.195   0.260   9.241
 3901WAT     H211946   4.208   0.106   9.291
 3902WAT      O11947   7.402   6.504   0.207
 3902WAT     H111948   7.412   6.412   0.169
 3902WAT     H211949   7.474   6.563   0.170
 3903WAT      O11950   4.887   3.464   4.668
 3903WAT     H111951   4.845   3.526   4.601
 3903WAT     H211952   4.894   3.372   4.628
 3904WAT      O11953   4.439   9.104   3.799
 3904WAT     H111954   4.453   9.050   3.716
 3904WAT     H211955   4.476   9.196   3.785
 3905WAT      O11956   5.927   8.047   9.767
 3905WAT     H111957   5.952   8.126   9.824
 3905WAT     H211958   5.892   7.974   9.825
 3906WAT      O11959   9.761   0.448   6.143
 3906WAT     H111960   9.664   0.470   6.152
 3906WAT     H211961   9.806   0.520   6.090
 3907WAT      O11962   2.348   5.462   4.520
 3907WAT     H111963   2.426   5.405   4.546
 3907WAT     H211964   2.263   5.419   4.552
 3908WAT      O11965   6.643   8.573   9.804
 3908WAT     H111966   6.670   8.640   9.735
 3908WAT     H211967   6.582   8.505   9.763
 3909WAT      O11968   9.850   3.501   3.789
 3909WAT     H111969   9.807   3.412   3.799
 3909WAT     H211970   9.796   3.570   3.839
 3910WAT      O11971   6.801   5.450   9.604
 3910WAT     H111972   6.776   5.410   9.692
 3910WAT     H211973   6.867   5.390   9.558
 3911WAT      O11974   9.850   0.409   7.360
 3911WAT     H111975   9.752   0.400   7.342
 3911WAT     H211976   9.898   0.330   7.321
 3912WAT      O11977   2.208   1.199   1.622
 3912WAT     H111978   2.305   1.185   1.642
 3912WAT     H211979   2.165   1.112   1.600
 3913WAT      O11980   8.298   3.256   5.841
 3913WAT     H111981   8.344   3.193   5.903
 3913WAT     H211982   8.355   3.338   5.829
 3914WAT      O11983   7.906   2.632   9.219
 3914WAT     H111984   7.892   2.557   9.284
 3914WAT     H211985   7.890   2.598   9.126
 3915WAT      O11986   2.216   1.736   5.600
 3915WAT     H111987   2.241   1.817   5.654
 3915WAT     H211988   2.283   1.664   5.615
 3916WAT      O11989   1.354   5.782   4.301
 3916WAT     H111990   1.256   5.761   4.305
 3916WAT     H211991   1.367   5.881   4.304
 3917WAT      O11992   7.790   3.815   1.372
 3917WAT     H111993   7.719   3.826   1.303
 3917WAT     H211994   7.800   3.718   1.395
 3918WAT      O11995   8.543   1.704   7.950
 3918WAT     H111996   8.468   1.667   7.896
 3918WAT     H211997   8.507   1.743   8.035
 3919WAT      O11998   5.243   8.368   7.766
 3919WAT     H111999   5.165   8.408   7.718
 3919WAT     H212000   5.235   8.269   7.766
 3920WAT      O12001   3.847   7.546   6.151
 3920WAT     H112002   3.767   7.590   6.191
 3920WAT     H212003   3.929   7.571   6.203
 3921WAT      O12004   4.887   4.479   2.870
 3921WAT     H112005   4.811   4.428   2.910
 3921WAT     H212006   4.885   4.467   2.770
 3922WAT      O12007   1.009   7.874   4.582
 3922WAT     H112008   0.929   7.828   4.544
 3922WAT     H212009   0.988   7.907   4.674
 3923WAT      O12010   2.057   1.386   0.035
 3923WAT     H112011   2.107   1.462   0.078
 3923WAT     H212012   2.077   1.301   0.084
 3924WAT      O12013   0.954   4.027   4.228
 3924WAT     H112014   0.866   4.073   4.239
 3924WAT     H212015   0.988   4.042   4.136
 3925WAT      O12016   1.500   8.049   9.334
 3925WAT     H112017   1.409   8.009   9.326
 3925WAT     H212018   1.496   8.145   9.306
 3926WAT      O12019   2.075   3.992   3.734
 3926WAT     H112020   2.059   3.984   3.832
 3926WAT     H212021   2.085   3.901   3.694
 3927WAT      O12022   6.030   0.885   7.865
 3927WAT     H112023   5.973   0.839   7.796
 3927WAT     H212024   6.020   0.838   7.953
 3928WAT      O12025   8.720   3.176   3.857
 3928WAT     H112026   8.768   3.250   3.904
 3928WAT     H212027   8.624   3.201   3.846
 3929WAT      O12028   2.932   4.054   7.788
 3929WAT     H112029   2.872   4.019   7.716
 3929WAT     H212030   2.879   4.109   7.852
 3930WAT      O12031   2.028   1.959   3.016
 3930WAT     H112032   2.091   2.027   3.054
 3930WAT     H212033   2.045   1.871   3.060
 3931WAT      O12034   1.694   7.586   6.341
 3931WAT     H112035   1.737   7.578   6.431
 3931WAT     H212036   1.613   7.527   6.336
 3932WAT      O12037   6.018   0.280   0.449
 3932WAT     H112038   5.959   0.347   0.404
 3932WAT     H212039   6.052   0.215   0.382
 3933WAT      O12040   6.815   2.889   9.793
 3933WAT     H112041   6.868   2.804   9.788
 3933WAT     H212042   6.773   2.898   9.883
 3934WAT      O12043   5.613   4.651   0.183
 3934WAT     H112044   5.672   4.630   0.261
 3934WAT     H212045   5.537   4.708   0.214
 3935WAT      O12046   4.309   7.630   1.930
 3935WAT     H112047   4.240   7.647   2.001
 3935WAT     H212048   4.330   7.716   1.884
 3936WAT      O12049   0.406   8.627   4.456
 3936WAT     H112050   0.472   8.671   4.517
 3936WAT     H212051   0.419   8.528   4.457
 3937WAT      O12052   6.439   5.138   6.317
 3937WAT     H112053   6.375   5.066   6.341
 3937WAT     H212054   6.441   5.206   6.390
 3938WAT      O12055   5.857   0.907   5.714
 3938WAT     H112056   5.916   0.827   5.719
 3938WAT     H212057   5.885   0.974   5.783
 3939WAT      O12058   0.235   4.953   7.540
 3939WAT     H112059   0.228   5.021   7.613
 3939WAT     H212060   0.214   4.863   7.577
 3940WAT      O12061   6.130   6.265   1.098
 3940WAT     H112062   6.172   6.177   1.076
 3940WAT     H212063   6.031   6.257   1.099
 3941WAT      O12064   6.183   7.921   0.247
 3941WAT     H112065   6.236   7.936   0.164
 3941WAT     H212066   6.162   7.823   0.256
 3942WAT      O12067   2.082   2.287   6.155
 3942WAT     H112068   2.081   2.382   6.123
 3942WAT     H212069   2.083   2.225   6.077
 3943WAT      O12070   9.588   6.244   4.744
 3943WAT     H112071   9.546   6.335   4.750
 3943WAT     H212072   9.529   6.184   4.690
 3944WAT      O12073   1.578   4.329   7.484
 3944WAT     H112074   1.592   4.390   7.406
 3944WAT     H212075   1.583   4.382   7.569
 3945WAT      O12076   5.647   1.203   7.684
 3945WAT     H112077   5.645   1.109   7.718
 3945WAT     H212078   5.642   1.267   7.761
 3946WAT      O12079   5.972   1.880   0.523
 3946WAT     H112080   5.881   1.918   0.538
 3946WAT     H212081   5.964   1.786   0.489
 3947WAT      O12082   3.954   8.533   5.715
 3947WAT     H112083   3.955   8.452   5.773
 3947WAT     H212084   3.917   8.509   5.625
 3948WAT      O12085   3.053   2.846   8.642
 3948WAT     H112086   2.999   2.871   8.722
 3948WAT     H212087   3.148   2.874   8.654
 3949WAT      O12088   6.762   1.983   1.065
 3949WAT     H112089   6.694   1.925   1.019
 3949WAT     H212090   6.804   2.045   0.998
 3950WAT      O12091   1.393   4.824   5.636
 3950WAT     H112092   1.391   4.902   5.699
 3950WAT     H212093   1.472   4.831   5.575
 3951WAT      O12094   7.625   0.154   0.917
 3951WAT     H112095   7.656   0.105   0.836
 3951WAT     H212096   7.659   0.248   0.914
 3952WAT      O12097   9.550   7.208   1.539
 3952WAT     H112098   9.471   7.257   1.576
 3952WAT     H212099   9.607   7.175   1.614
 3953WAT      O12100   6.146   0.546   3.774
 3953WAT     H112101   6.239   0.508   3.780
 3953WAT     H212102   6.088   0.500   3.841
 3954WAT      O12103   4.225   1.487   7.135
 3954WAT     H112104   4.311   1.466   7.089
 3954WAT     H212105   4.217   1.586   7.149
 3955WAT      O12106   3.984   3.813   7.175
 3955WAT     H112107   3.994   3.736   7.238
 3955WAT     H212108   4.073   3.855   7.158
 3956WAT      O12109   9.591   6.061   7.383
 3956WAT     H112110   9.584   5.966   7.353
 3956WAT     H212111   9.539   6.073   7.468
 3957WAT      O12112   6.195   8.790   6.367
 3957WAT     H112113   6.216   8.795   6.269
 3957WAT     H212114   6.258   8.726   6.411
 3958WAT      O12115   2.158   0.957   3.274
 3958WAT     H112116   2.122   0.905   3.351
 3958WAT     H212117   2.088   1.022   3.242
 3959WAT      O12118   5.830   9.296   3.890
 3959WAT     H112119   5.784   9.371   3.937
 3959WAT     H212120   5.792   9.286   3.798
 3960WAT      O12121   1.267   1.892   1.746
 3960WAT     H112122   1.336   1.929   1.683
 3960WAT     H212123   1.210   1.826   1.698
 3961WAT      O12124   9.079   6.599   1.468
 3961WAT     H112125   9.157   6.629   1.414
 3961WAT     H212126   9.051   6.508   1.439
 3962WAT      O12127   4.132   5.124   5.164
 3962WAT     H112128   4.081   5.037   5.162
 3962WAT     H212129   4.203   5.119   5.233
 3963WAT      O12130   4.228   7.878   0.788
 3963WAT     H112131   4.203   7.928   0.705
 3963WAT     H212132   4.243   7.943   0.862
 3964WAT      O12133   5.744   7.237   8.740
 3964WAT     H112134   5.762   7.139   8.749
 3964WAT     H212135   5.801   7.275   8.668
 3965WAT      O12136   7.832   7.314   8.806
 3965WAT     H112137   7.788   7.383   8.748
 3965WAT     H212138   7.763   7.249   8.839
 3966WAT      O12139   2.681   0.725   0.554
 3966WAT     H112140   2.759   0.725   0.491
 3966WAT     H212141   2.611   0.663   0.519
 3967WAT      O12142   0.694   8.461   5.009
 3967WAT     H112143   0.619   8.526   5.001
 3967WAT     H212144   0.770   8.489   4.951
 3968WAT      O12145   2.537   5.661   6.168
 3968WAT     H112146   2.609   5.637   6.102
 3968WAT     H212147   2.579   5.701   6.249
 3969WAT      O12148   3.990   8.595   2.761
 3969WAT     H112149   3.977   8.625   2.667
 3969WAT     H212150   3.901   8.587   2.806
 3970WAT      O12151   5.938   7.845   2.356
 3970WAT     H112152   5.859   7.815   2.304
 3970WAT     H212153   6.009   7.877   2.294
 3971WAT      O12154   9.596   4.445   9.246
 3971WAT     H112155   9.553   4.392   9.173
 3971WAT     H212156   9.554   4.422   9.333
 3972WAT      O12157   5.636   3.783   7.837
 3972WAT     H112158   5.672   3.757   7.927
 3972WAT     H212159   5.709   3.820   7.781
 3973WAT      O12160   8.019   2.098   8.929
 3973WAT     H112161   7.942   2.050   8.971
 3973WAT     H212162   8.097   2.095   8.991
 3974WAT      O12163   9.149   6.454   7.127
 3974WAT     H112164   9.097   6.500   7.055
 3974WAT     H212165   9.139   6.355   7.117
 3975WAT      O12166   1.482   4.738   7.404
 3975WAT     H112167   1.404   4.680   7.427
 3975WAT     H212168   1.536   4.756   7.486
 3976WAT      O12169   5.737   3.419   0.481
 3976WAT     H112170   5.673   3.439   0.555
 3976WAT     H212171   5.786   3.502   0.455
 3977WAT      O12172   3.751   5.142   5.165
 3977WAT     H112173   3.781   5.066   5.222
 3977WAT     H212174   3.802   5.225   5.190
 3978WAT      O12175   5.349   2.859   2.666
 3978WAT     H112176   5.442   2.870   2.699
 3978WAT     H212177   5.350   2.839   2.568
 3979WAT      O12178   8.791   7.215   6.592
 3979WAT     H112179   8.795   7.315   6.592
 3979WAT     H212180   8.737   7.185   6.671
 3980WAT      O12181   2.039   4.027   4.627
 3980WAT     H112182   2.057   3.999   4.721
 3980WAT     H212183   2.104   3.983   4.565
 3981WAT      O12184   2.106   6.440   2.127
 3981WAT     H112185   2.038   6.454   2.199
 3981WAT     H212186   2.112   6.343   2.105
 3982WAT      O12187   0.877   3.331   3.690
 3982WAT     H112188   0.913   3.313   3.599
 3982WAT     H212189   0.913   3.417   3.724
 3983WAT      O12190   3.719   5.866   0.590
 3983WAT     H112191   3.683   5.923   0.664
 3983WAT     H212192   3.666   5.781   0.585
 3984WAT      O12193   3.260   3.322   3.677
 3984WAT     H112194   3.314   3.386   3.731
 3984WAT     H212195   3.251   3.356   3.584
 3985WAT      O12196   4.233   2.493   2.168
 3985WAT     H112197   4.286   2.553   2.229
 3985WAT     H212198   4.222   2.403   2.210
 3986WAT      O12199   5.455   4.887   5.329
 3986WAT     H112200   5.505   4.935   5.401
 3986WAT     H212201   5.469   4.934   5.242
 3987WAT      O12202   0.213   6.899   0.219
 3987WAT     H112203   0.127   6.943   0.194
 3987WAT     H212204   0.234   6.826   0.154
 3988WAT      O12205   8.184   8.250   8.462
 3988WAT     H112206   8.145   8.273   8.551
 3988WAT     H212207   8.247   8.322   8.434
 3989WAT      O12208   3.107   5.625   1.357
 3989WAT     H112209   3.085   5.704   1.415
 3989WAT     H212210   3.081   5.646   1.263
 3990WAT      O12211   5.709   8.286   2.037
 3990WAT     H112212   5.621   8.311   2.077
 3990WAT     H212213   5.748   8.209   2.088
 3991WAT      O12214   0.643   5.186   1.402
 3991WAT     H112215   0.596   5.162   1.487
 3991WAT     H212216   0.741   5.199   1.420
 3992WAT      O12217   9.736   6.990   5.768
 3992WAT     H112218   9.834   7.014   5.767
 3992WAT     H212219   9.683   7.072   5.789
 3993WAT      O12220   6.043   0.010   3.480
 3993WAT     H112221   6.041   0.095   3.532
 3993WAT     H212222   5.980  -0.056   3.523
 3994WAT      O12223   0.762   1.618   8.848
 3994WAT     H112224   0.830   1.580   8.784
 3994WAT     H212225   0.784   1.590   8.941
 3995WAT      O12226   3.809   1.479   3.225
 3995WAT     H112227   3.884   1.538   3.194
 3995WAT     H212228   3.754   1.527   3.292
 3996WAT      O12229   9.811   6.290   4.569
 3996WAT     H112230   9.722   6.292   4.613
 3996WAT     H212231   9.800   6.308   4.471
 3997WAT      O12232   0.573   8.925   5.854
 3997WAT     H112233   0.567   8.894   5.760
 3997WAT     H212234   0.564   8.847   5.916
 3998WAT      O12235   1.670   0.450   4.577
 3998WAT     H112236   1.669   0.361   4.532
 3998WAT     H212237   1.737   0.450   4.651
 3999WAT      O12238   9.339   3.067   5.664
 3999WAT     H112239   9.321   3.166   5.663
 3999WAT     H212240   9.335   3.033   5.758
 4000WAT      O12241   9.559   7.018   8.440
 4000WAT     H112242   9.550   7.032   8.342
 4000WAT     H212243   9.532   7.102   8.488
 4001WAT      O12244   8.849   5.170   6.143
 4001WAT     H112245   8.923   5.185   6.078
 4001WAT     H212246   8.766   5.143   6.093
 4002WAT      O12247   4.563   9.029   0.965
 4002WAT     H112248   4.632   9.101   0.958
 4002WAT     H212249   4.478   9.068   1.001
 4003WAT      O12250   9.633   0.166   1.186
 4003WAT     H112251   9.692   0.086   1.177
 4003WAT     H212252   9.663   0.222   1.263
 4004WAT      O12253   4.911   9.267   6.940
 4004WAT     H112254   4.878   9.321   6.862
 4004WAT     H212255   4.874   9.174   6.933
 4005WAT      O12256   9.164   2.729   9.153
 4005WAT     H112257   9.125   2.821   9.149
 4005WAT     H212258   9.240   2.727   9.217
 4006WAT      O12259   1.215   9.583   6.450
 4006WAT     H112260   1.189   9.667   6.497
 4006WAT     H212261   1.286   9.536   6.503
 4007WAT      O12262   2.553   5.226   4.111
 4007WAT     H112263   2.532   5.309   4.060
 4007WAT     H212264   2.637   5.240   4.164
 4008WAT      O12265   5.900   4.103   7.028
 4008WAT     H112266   5.913   4.050   6.944
 4008WAT     H212267   5.938   4.195   7.015
 4009WAT      O12268   1.041   2.253   2.734
 4009WAT     H112269   1.017   2.337   2.687
 4009WAT     H212270   1.113   2.205   2.684
 4010WAT      O12271   4.799   5.846   0.840
 4010WAT     H112272   4.885   5.855   0.790
 4010WAT     H212273   4.722   5.866   0.779
 4011WAT      O12274   8.199   1.835   9.608
 4011WAT     H112275   8.185   1.769   9.682
 4011WAT     H212276   8.133   1.818   9.535
 4012WAT      O12277   6.724   8.469   6.190
 4012WAT     H112278   6.676   8.447   6.104
 4012WAT     H212279   6.820   8.441   6.182
 4013WAT      O12280   2.372   8.481   6.175
 4013WAT     H112281   2.470   8.501   6.170
 4013WAT     H212282   2.359   8.382   6.182
 4014WAT      O12283   8.015   5.468   3.353
 4014WAT     H112284   8.035   5.562   3.325
 4014WAT     H212285   8.078   5.441   3.425
 4015WAT      O12286   4.557   1.731   5.936
 4015WAT     H112287   4.510   1.807   5.891
 4015WAT     H212288   4.490   1.668   5.974
 4016WAT      O12289   7.294   4.809   6.219
 4016WAT     H112290   7.241   4.893   6.204
 4016WAT     H212291   7.251   4.733   6.170
 4017WAT      O12292   7.050   3.880   0.010
 4017WAT     H112293   7.036   3.884   0.109
 4017WAT     H212294   6.964   3.855  -0.035
 4018WAT      O12295   7.863   2.785   1.480
 4018WAT     H112296   7.958   2.805   1.503
 4018WAT     H212297   7.804   2.858   1.514
 4019WAT      O12298   0.189   8.206   9.879
 4019WAT     H112299   0.150   8.149   9.806
 4019WAT     H212300   0.271   8.252   9.845
 4020WAT      O12301   2.617   0.197   2.315
 4020WAT     H112302   2.646   0.103   2.294
 4020WAT     H212303   2.597   0.204   2.413
 4021WAT      O12304   1.395   1.276   6.066
 4021WAT     H112305   1.309   1.225   6.062
 4021WAT     H212306   1.471   1.215   6.042
 4022WAT      O12307   9.613   9.474   4.703
 4022WAT     H112308   9.669   9.460   4.785
 4022WAT     H212309   9.672   9.472   4.622
 4023WAT      O12310   8.375   5.352   3.583
 4023WAT     H112311   8.291   5.301   3.600
 4023WAT     H212312   8.425   5.363   3.668
 4024WAT      O12313   3.345   1.484   5.184
 4024WAT     H112314   3.277   1.447   5.121
 4024WAT     H212315   3.413   1.413   5.205
 4025WAT      O12316   5.147   2.842   4.197
 4025WAT     H112317   5.182   2.912   4.135
 4025WAT     H212318   5.210   2.765   4.199
 4026WAT      O12319   6.222   7.061   7.046
 4026WAT     H112320   6.205   6.973   7.002
 4026WAT     H212321   6.159   7.073   7.123
 4027WAT      O12322   5.043   3.351   4.033
 4027WAT     H112323   5.135   3.353   3.992
 4027WAT     H212324   4.977   3.320   3.965
 4028WAT      O12325   5.308   3.741   5.040
 4028WAT     H112326   5.298   3.652   5.083
 4028WAT     H212327   5.399   3.779   5.062
 4029WAT      O12328   2.659   1.659   2.830
 4029WAT     H112329   2.579   1.638   2.773
 4029WAT     H212330   2.707   1.738   2.792
 4030WAT      O12331   9.686   6.140   9.306
 4030WAT     H112332   9.736   6.138   9.219
 4030WAT     H212333   9.629   6.222   9.310
 4031WAT      O12334   3.139   7.244   4.304
 4031WAT     H112335   3.087   7.207   4.380
 4031WAT     H212336   3.237   7.237   4.324
 4032WAT      O12337   7.684   6.931   2.505
 4032WAT     H112338   7.686   6.996   2.581
 4032WAT     H212339   7.760   6.949   2.443
 4033WAT      O12340   4.510   1.547   3.963
 4033WAT     H112341   4.561   1.473   3.919
 4033WAT     H212342   4.413   1.525   3.963
 4034WAT      O12343   3.942   3.352   1.204
 4034WAT     H112344   3.847   3.354   1.172
 4034WAT     H212345   3.987   3.438   1.179
 4035WAT      O12346   1.968   3.905   4.058
 4035WAT     H112347   2.047   3.846   4.043
 4035WAT     H212348   1.969   3.940   4.152
 4036WAT      O12349   4.547   3.911   0.967
 4036WAT     H112350   4.513   3.835   0.912
 4036WAT     H212351   4.480   3.933   1.038
 4037WAT      O12352   1.845   0.824   3.037
 4037WAT     H112353   1.833   0.752   3.105
 4037WAT     H212354   1.825   0.786   2.946
 4038WAT      O12355   0.327   3.201   4.540
 4038WAT     H112356   0.318   3.296   4.569
 4038WAT     H212357   0.422   3.183   4.514
 4039WAT      O12358   7.802   8.235   1.524
 4039WAT     H112359   7.779   8.310   1.461
 4039WAT     H212360   7.728   8.223   1.590
 4040WAT      O12361   7.617   5.864   2.124
 4040WAT     H112362   7.545   5.864   2.054
 4040WAT     H212363   7.575   5.850   2.214
 4041WAT      O12364   1.113   1.605   9.445
 4041WAT     H112365   1.042   1.535   9.434
 4041WAT     H212366   1.186   1.590   9.378
 4042WAT      O12367   4.055   4.077   3.933
 4042WAT     H112368   4.087   4.127   4.014
 4042WAT     H212369   3.957   4.063   3.940
 4043WAT      O12370   6.614   7.615   4.975
 4043WAT     H112371   6.681   7.566   4.918
 4043WAT     H212372   6.596   7.705   4.936
 4044WAT      O12373   8.840   7.477   7.743
 4044WAT     H112374   8.773   7.475   7.669
 4044WAT     H212375   8.917   7.534   7.716
 4045WAT      O12376   5.221   2.010   4.556
 4045WAT     H112377   5.205   1.921   4.513
 4045WAT     H212378   5.167   2.079   4.509
 4046WAT      O12379   2.253   4.383   0.967
 4046WAT     H112380   2.230   4.287   0.947
 4046WAT     H212381   2.173   4.440   0.950
 4047WAT      O12382   2.238   0.969   3.792
 4047WAT     H112383   2.242   1.069   3.788
 4047WAT     H212384   2.267   0.931   3.705
 4048WAT      O12385   3.364   1.537   7.326
 4048WAT     H112386   3.310   1.488   7.394
 4048WAT     H212387   3.449   1.487   7.309
 4049WAT      O12388   9.779   2.851   4.612
 4049WAT     H112389   9.788   2.839   4.710
 4049WAT     H212390   9.866   2.886   4.575
 4050WAT      O12391   2.327   5.401   9.371
 4050WAT     H112392   2.258   5.391   9.443
 4050WAT     H212393   2.352   5.498   9.363
 4051WAT      O12394   4.980   2.147   6.036
 4051WAT     H112395   5.051   2.218   6.039
 4051WAT     H212396   4.972   2.104   6.126
 4052WAT      O12397   4.773   6.487   0.271
 4052WAT     H112398   4.742   6.577   0.238
 4052WAT     H212399   4.837   6.449   0.204
 4053WAT      O12400   2.847   0.240   8.230
 4053WAT     H112401   2.780   0.275   8.297
 4053WAT     H212402   2.886   0.317   8.180
 4054WAT      O12403   0.907   1.689   3.985
 4054WAT     H112404   0.901   1.590   3.985
 4054WAT     H212405   0.819   1.728   4.016
 4055WAT      O12406   6.346   1.476   6.022
 4055WAT     H112407   6.351   1.541   5.947
 4055WAT     H212408   6.313   1.388   5.988
 4056WAT      O12409   1.390   0.105   7.527
 4056WAT     H112410   1.439   0.192   7.530
 4056WAT     H212411   1.403   0.062   7.438
 4057WAT      O12412   8.464   3.294   1.737
 4057WAT     H112413   8.374   3.338   1.731
 4057WAT     H212414   8.496   3.297   1.832
 4058WAT      O12415   8.941   2.865   1.137
 4058WAT     H112416   8.854   2.849   1.090
 4058WAT     H212417   8.931   2.942   1.200
 4059WAT      O12418   4.096   8.170   8.494
 4059WAT     H112419   4.074   8.173   8.592
 4059WAT     H212420   4.109   8.075   8.465
 4060WAT      O12421   9.455   8.841   9.239
 4060WAT     H112422   9.421   8.935   9.246
 4060WAT     H212423   9.543   8.834   9.287
 4061WAT      O12424   9.613   3.565   0.257
 4061WAT     H112425   9.585   3.570   0.353
 4061WAT     H212426   9.662   3.649   0.233
 4062WAT      O12427   4.983   3.980   6.130
 4062WAT     H112428   4.884   3.987   6.116
 4062WAT     H212429   5.027   3.955   6.044
 4063WAT      O12430   6.692   3.560   1.355
 4063WAT     H112431   6.733   3.525   1.271
 4063WAT     H212432   6.640   3.487   1.400
 4064WAT      O12433   0.173   4.353   7.380
 4064WAT     H112434   0.144   4.337   7.285
 4064WAT     H212435   0.146   4.445   7.408
 4065WAT      O12436   1.737   0.621   4.387
 4065WAT     H112437   1.723   0.553   4.459
 4065WAT     H212438   1.776   0.704   4.426
 4066WAT      O12439   9.446   0.695   0.169
 4066WAT     H112440   9.497   0.643   0.238
 4066WAT     H212441   9.484   0.787   0.163
 4067WAT      O12442   7.928   8.373   1.841
 4067WAT     H112443   8.016   8.418   1.823
 4067WAT     H212444   7.944   8.286   1.887
 4068WAT      O12445   7.287   1.843   6.401
 4068WAT     H112446   7.373   1.794   6.388
 4068WAT     H212447   7.213   1.794   6.357
 4069WAT      O12448   9.419   3.593   6.260
 4069WAT     H112449   9.476   3.673   6.244
 4069WAT     H212450   9.385   3.595   6.354
 4070WAT      O12451   1.148   0.732   6.309
 4070WAT     H112452   1.225   0.794   6.295
 4070WAT     H212453   1.114   0.741   6.402
 4071WAT      O12454   5.191   3.455   1.003
 4071WAT     H112455   5.211   3.439   0.906
 4071WAT     H212456   5.274   3.443   1.057
 4072WAT      O12457   8.898   8.514   5.154
 4072WAT     H112458   8.944   8.427   5.136
 4072WAT     H212459   8.963   8.579   5.193
 4073WAT      O12460   9.827   3.539   9.841
 4073WAT     H112461   9.882   3.564   9.761
 4073WAT     H212462   9.737   3.582   9.833
 4074WAT      O12463   2.111   5.587   1.195
 4074WAT     H112464   2.182   5.579   1.125
 4074WAT     H212465   2.108   5.503   1.249
 4075WAT      O12466   9.005   2.649   8.721
 4075WAT     H112467   9.026   2.602   8.806
 4075WAT     H212468   8.943   2.592   8.666
 4076WAT      O12469   7.615   2.786   6.089
 4076WAT     H112470   7.642   2.700   6.132
 4076WAT     H212471   7.517   2.784   6.070
 4077WAT      O12472   1.920   1.054   3.134
 4077WAT     H112473   1.897   0.966   3.093
 4077WAT     H212474   1.839   1.094   3.176
 4078WAT      O12475   8.234   1.141   5.736
 4078WAT     H112476   8.165   1.071   5.756
 4078WAT     H212477   8.248   1.199   5.816
 4079WAT      O12478   6.095   6.232   7.482
 4079WAT     H112479   6.065   6.296   7.553
 4079WAT     H212480   6.193   6.217   7.490
 4080WAT      O12481   9.070   1.656   0.296
 4080WAT     H112482   9.017   1.571   0.298
 4080WAT     H212483   9.010   1.732   0.270
 4081WAT      O12484   4.672   6.006   3.905
 4081WAT     H112485   4.621   5.936   3.856
 4081WAT     H212486   4.608   6.073   3.944
 4082WAT      O12487   6.781   0.392   4.442
 4082WAT     H112488   6.783   0.492   4.440
 4082WAT     H212489   6.863   0.356   4.397
 4083WAT      O12490   2.331   2.482   0.710
 4083WAT     H112491   2.363   2.576   0.695
 4083WAT     H212492   2.403   2.429   0.755
 4084WAT      O12493   0.263   2.805   3.218
 4084WAT     H112494   0.339   2.816   3.154
 4084WAT     H212495   0.295   2.756   3.299
 4085WAT      O12496   8.297   7.633   3.117
 4085WAT     H112497   8.350   7.696   3.060
 4085WAT     H212498   8.358   7.587   3.181
 4086WAT      O12499   0.648   7.888   0.468
 4086WAT     H112500   0.569   7.935   0.428
 4086WAT     H212501   0.674   7.811   0.410
 4087WAT      O12502   3.515   8.825   4.595
 4087WAT     H112503   3.487   8.860   4.684
 4087WAT     H212504   3.613   8.839   4.582
 4088WAT      O12505   9.171   1.062   5.743
 4088WAT     H112506   9.198   1.064   5.647
 4088WAT     H212507   9.099   1.130   5.759
 4089WAT      O12508   0.554   8.809   4.831
 4089WAT     H112509   0.514   8.757   4.905
 4089WAT     H212510   0.482   8.852   4.777
 4090WAT      O12511   9.669   1.744   8.849
 4090WAT     H112512   9.696   1.759   8.944
 4090WAT     H212513   9.714   1.662   8.813
 4091WAT      O12514   9.677   3.081   2.624
 4091WAT     H112515   9.656   2.983   2.629
 4091WAT     H212516   9.766   3.094   2.581
 4092WAT      O12517   1.784   1.197   2.426
 4092WAT     H112518   1.717   1.131   2.459
 4092WAT     H212519   1.867   1.190   2.481
 4093WAT      O12520   8.218   7.680   8.250
 4093WAT     H112521   8.283   7.681   8.327
 4093WAT     H212522   8.268   7.694   8.165
 4094WAT      O12523   5.590   0.833   2.287
 4094WAT     H112524   5.605   0.906   2.221
 4094WAT     H212525   5.528   0.765   2.248
 4095WAT      O12526   7.506   4.158   3.012
 4095WAT     H112527   7.568   4.210   2.954
 4095WAT     H212528   7.521   4.060   2.999
 4096WAT      O12529   6.308   8.871   2.827
 4096WAT     H112530   6.246   8.871   2.906
 4096WAT     H212531   6.388   8.814   2.847
 4097WAT      O12532   3.464   6.007   3.144
 4097WAT     H112533   3.486   5.915   3.112
 4097WAT     H212534   3.393   6.047   3.085
 4098WAT      O12535   4.509   3.553   8.091
 4098WAT     H112536   4.440   3.622   8.070
 4098WAT     H212537   4.492   3.516   8.182
 4099WAT      O12538   8.021   4.738   1.518
 4099WAT     H112539   7.966   4.662   1.482
 4099WAT     H212540   8.009   4.818   1.459
 4100WAT      O12541   0.157   2.290   1.327
 4100WAT     H112542   0.206   2.204   1.337
 4100WAT     H212543   0.223   2.363   1.308
 4101WAT      O12544   6.880   5.423   8.270
 4101WAT     H112545   6.811   5.485   8.308
 4101WAT     H212546   6.955   5.412   8.336
 4102WAT      O12547   1.812   5.622   1.187
 4102WAT     H112548   1.778   5.537   1.227
 4102WAT     H212549   1.912   5.617   1.179
 4103WAT      O12550   4.808   3.187   9.351
 4103WAT     H112551   4.732   3.124   9.335
 4103WAT     H212552   4.872   3.146   9.416
 4104WAT      O12553   4.776   0.586   2.832
 4104WAT     H112554   4.812   0.492   2.841
 4104WAT     H212555   4.753   0.621   2.923
 4105WAT      O12556   8.618   4.935   7.182
 4105WAT     H112557   8.711   4.945   7.146
 4105WAT     H212558   8.621   4.877   7.263
 4106WAT      O12559   6.206   4.872   6.636
 4106WAT     H112560   6.285   4.811   6.642
 4106WAT     H212561   6.155   4.870   6.722
 4107WAT      O12562   2.214   1.700   8.453
 4107WAT     H112563   2.189   1.772   8.388
 4107WAT     H212564   2.310   1.675   8.439
 4108WAT      O12565   0.153   1.045   4.101
 4108WAT     H112566   0.093   1.003   4.169
 4108WAT     H212567   0.248   1.030   4.127
 4109WAT      O12568   1.909   1.681   2.842
 4109WAT     H112569   1.845   1.747   2.803
 4109WAT     H212570   1.993   1.680   2.788
 4110WAT      O12571   0.644   8.269   2.983
 4110WAT     H112572   0.689   8.313   2.905
 4110WAT     H212573   0.682   8.304   3.068
 4111WAT      O12574   3.518   2.240   1.845
 4111WAT     H112575   3.493   2.144   1.854
 4111WAT     H212576   3.604   2.257   1.894
 4112WAT      O12577   8.578   7.954   2.866
 4112WAT     H112578   8.613   8.039   2.903
 4112WAT     H212579   8.553   7.892   2.941
 4113WAT      O12580   2.893   2.450   2.281
 4113WAT     H112581   2.833   2.523   2.250
 4113WAT     H212582   2.916   2.464   2.378
 4114WAT      O12583   6.217   6.709   5.404
 4114WAT     H112584   6.219   6.675   5.498
 4114WAT     H212585   6.309   6.742   5.379
 4115WAT      O12586   8.926   3.294   0.998
 4115WAT     H112587   8.950   3.386   1.027
 4115WAT     H212588   8.869   3.250   1.067
 4116WAT      O12589   3.475   9.737   2.095
 4116WAT     H112590   3.405   9.808   2.102
 4116WAT     H212591   3.539   9.745   2.171
 4117WAT      O12592   2.655   2.925   1.436
 4117WAT     H112593   2.612   2.991   1.497
 4117WAT     H212594   2.589   2.855   1.409
 4118WAT      O12595   3.558   6.850   7.766
 4118WAT     H112596   3.478   6.908   7.782
 4118WAT     H212597   3.628   6.903   7.718
 4119WAT      O12598   0.785   5.259   7.990
 4119WAT     H112599   0.825   5.344   8.022
 4119WAT     H212600   0.685   5.265   7.997
 4120WAT      O12601   5.174   0.765   3.176
 4120WAT     H112602   5.077   0.746   3.196
 4120WAT     H212603   5.208   0.698   3.110
 4121WAT      O12604   1.073   5.011   6.221
 4121WAT     H112605   1.014   4.947   6.269
 4121WAT     H212606   1.076   5.097   6.271
 4122WAT      O12607   0.742   5.344   9.756
 4122WAT     H112608   0.761   5.395   9.672
 4122WAT     H212609   0.813   5.364   9.824
 4123WAT      O12610   4.031   4.728   8.189
 4123WAT     H112611   4.049   4.635   8.218
 4123WAT     H212612   3.978   4.776   8.259
 4124WAT      O12613   6.901   7.148   7.170
 4124WAT     H112614   6.921   7.226   7.112
 4124WAT     H212615   6.815   7.163   7.219
 4125WAT      O12616   1.067   1.986   9.401
 4125WAT     H112617   1.076   1.964   9.303
 4125WAT     H212618   1.109   1.913   9.455
 4126WAT      O12619   2.219   0.194   7.563
 4126WAT     H112620   2.134   0.202   7.614
 4126WAT     H212621   2.292   0.241   7.612
 4127WAT      O12622   2.378   0.842   8.807
 4127WAT     H112623   2.313   0.781   8.852
 4127WAT     H212624   2.335   0.931   8.792
 4128WAT      O12625   9.664   7.935   7.692
 4128WAT     H112626   9.633   7.840   7.684
 4128WAT     H212627   9.761   7.940   7.668
 4129WAT      O12628   3.882   2.290   5.096
 4129WAT     H112629   3.979   2.298   5.071
 4129WAT     H212630   3.871   2.219   5.165
 4130WAT      O12631   9.413   9.546   1.351
 4130WAT     H112632   9.417   9.638   1.311
 4130WAT     H212633   9.466   9.544   1.435
 4131WAT      O12634   4.498   9.263   0.716
 4131WAT     H112635   4.569   9.259   0.786
 4131WAT     H212636   4.541   9.263   0.625
 4132WAT      O12637   5.272   5.259   6.742
 4132WAT     H112638   5.300   5.201   6.666
 4132WAT     H212639   5.347   5.264   6.809
 4133WAT      O12640   9.166   7.884   6.640
 4133WAT     H112641   9.069   7.905   6.641
 4133WAT     H212642   9.186   7.815   6.710
 4134WAT      O12643   3.697   1.903   7.670
 4134WAT     H112644   3.685   1.817   7.719
 4134WAT     H212645   3.743   1.886   7.583
 4135WAT      O12646   0.569   4.700   0.883
 4135WAT     H112647   0.614   4.776   0.931
 4135WAT     H212648   0.608   4.691   0.792
 4136WAT      O12649   8.793   8.995   4.689
 4136WAT     H112650   8.709   9.020   4.737
 4136WAT     H212651   8.784   9.018   4.592
 4137WAT      O12652   1.373   6.836   6.400
 4137WAT     H112653   1.448   6.811   6.460
 4137WAT     H212654   1.405   6.904   6.334
 4138WAT      O12655   6.070   5.720   4.329
 4138WAT     H112656   6.094   5.692   4.422
 4138WAT     H212657   6.033   5.641   4.279
 4139WAT      O12658   5.633   1.493   7.602
 4139WAT     H112659   5.630   1.396   7.625
 4139WAT     H212660   5.712   1.511   7.543
 4140WAT      O12661   7.683   9.744   5.838
 4140WAT     H112662   7.673   9.814   5.767
 4140WAT     H212663   7.640   9.659   5.808
 4141WAT      O12664   0.726   7.981   2.178
 4141WAT     H112665   0.713   8.080   2.170
 4141WAT     H212666   0.652   7.933   2.133
 4142WAT      O12667   8.221   2.035   7.996
 4142WAT     H112668   8.233   1.958   8.058
 4142WAT     H212669   8.163   2.104   8.039
 4143WAT      O12670   0.637   1.014   7.156
 4143WAT     H112671   0.603   0.923   7.133
 4143WAT     H212672   0.722   1.032   7.107
 4144WAT      O12673   1.566   2.331   5.684
 4144WAT     H112674   1.501   2.337   5.760
 4144WAT     H212675   1.576   2.421   5.641
 4145WAT      O12676   4.935   5.167   9.294
 4145WAT     H112677   4.918   5.135   9.387
 4145WAT     H212678   5.021   5.128   9.261
 4146WAT      O12679   1.133   5.873   9.399
 4146WAT     H112680   1.066   5.840   9.465
 4146WAT     H212681   1.224   5.873   9.440
 4147WAT      O12682   0.908   0.594   2.277
 4147WAT     H112683   0.835   0.662   2.281
 4147WAT     H212684   0.901   0.532   2.355
 4148WAT      O12685   2.846   9.848   4.665
 4148WAT     H112686   2.762   9.794   4.673
 4148WAT     H212687   2.922   9.787   4.643
 4149WAT      O12688   5.104   3.299   5.042
 4149WAT     H112689   5.108   3.217   4.986
 4149WAT     H212690   5.052   3.280   5.125
 4150WAT      O12691   3.635   1.677   7.826
 4150WAT     H112692   3.603   1.635   7.911
 4150WAT     H212693   3.735   1.684   7.828
 4151WAT      O12694   5.478   8.059   8.669
 4151WAT     H112695   5.401   8.028   8.724
 4151WAT     H212696   5.445   8.112   8.591
 4152WAT      O12697   8.938   3.313   5.606
 4152WAT     H112698   8.857   3.318   5.664
 4152WAT     H212699   8.972   3.406   5.589
 4153WAT      O12700   8.832   8.650   8.210
 4153WAT     H112701   8.834   8.643   8.110
 4153WAT     H212702   8.815   8.745   8.236
 4154WAT      O12703   1.781   7.857   1.436
 4154WAT     H112704   1.728   7.789   1.385
 4154WAT     H212705   1.878   7.843   1.419
 4155WAT      O12706   9.053   5.503   4.482
 4155WAT     H112707   9.110   5.461   4.552
 4155WAT     H212708   9.028   5.596   4.510
 4156WAT      O12709   2.497   5.038   5.356
 4156WAT     H112710   2.504   5.123   5.408
 4156WAT     H212711   2.587   4.994   5.353
 4157WAT      O12712   9.377   0.617   5.985
 4157WAT     H112713   9.323   0.698   5.964
 4157WAT     H212714   9.442   0.601   5.910
 4158WAT      O12715   5.904   1.947   7.774
 4158WAT     H112716   5.944   1.945   7.866
 4158WAT     H212717   5.804   1.956   7.781
 4159WAT      O12718   7.225   8.663   1.935
 4159WAT     H112719   7.292   8.708   1.876
 4159WAT     H212720   7.269   8.631   2.018
 4160WAT      O12721   6.643   8.234   6.485
 4160WAT     H112722   6.686   8.217   6.574
 4160WAT     H212723   6.609   8.328   6.481
 4161WAT      O12724   4.412   6.808   2.630
 4161WAT     H112725   4.414   6.901   2.666
 4161WAT     H212726   4.382   6.809   2.534
 4162WAT      O12727   7.874   4.745   7.911
 4162WAT     H112728   7.825   4.713   7.831
 4162WAT     H212729   7.972   4.730   7.899
 4163WAT      O12730   9.572   5.953   5.015
 4163WAT     H112731   9.497   5.963   4.949
 4163WAT     H212732   9.636   5.884   4.982
 4164WAT      O12733   6.387   2.233   6.657
 4164WAT     H112734   6.433   2.146   6.638
 4164WAT     H212735   6.449   2.293   6.706
 4165WAT      O12736   4.553   1.066   5.687
 4165WAT     H112737   4.645   1.047   5.720
 4165WAT     H212738   4.541   1.028   5.596
 4166WAT      O12739   6.946   3.815   2.043
 4166WAT     H112740   6.893   3.732   2.060
 4166WAT     H212741   7.026   3.792   1.987
 4167WAT      O12742   4.280   8.694   0.776
 4167WAT     H112743   4.245   8.776   0.822
 4167WAT     H212744   4.348   8.721   0.708
 4168WAT      O12745   8.184   8.689   1.944
 4168WAT     H112746   8.139   8.779   1.941
 4168WAT     H212747   8.276   8.699   1.980
 4169WAT      O12748   4.601   3.574   0.795
 4169WAT     H112749   4.658   3.627   0.858
 4169WAT     H212750   4.507   3.608   0.797
 4170WAT      O12751   6.251   8.376   9.380
 4170WAT     H112752   6.165   8.378   9.431
 4170WAT     H212753   6.234   8.341   9.288
 4171WAT      O12754   9.495   6.180   3.699
 4171WAT     H112755   9.414   6.238   3.701
 4171WAT     H212756   9.498   6.124   3.782
 4172WAT      O12757   8.867   8.488   0.852
 4172WAT     H112758   8.863   8.431   0.934
 4172WAT     H212759   8.871   8.430   0.771
 4173WAT      O12760   8.785   0.605   0.125
 4173WAT     H112761   8.798   0.703   0.114
 4173WAT     H212762   8.724   0.588   0.202
 4174WAT      O12763   3.976   2.591   4.368
 4174WAT     H112764   3.966   2.492   4.383
 4174WAT     H212765   4.044   2.627   4.432
 4175WAT      O12766   4.475   5.204   6.499
 4175WAT     H112767   4.406   5.277   6.496
 4175WAT     H212768   4.465   5.152   6.584
 4176WAT      O12769   8.076   6.983   9.835
 4176WAT     H112770   8.013   6.906   9.825
 4176WAT     H212771   8.147   6.959   9.902
 4177WAT      O12772   5.033   5.498   0.591
 4177WAT     H112773   5.009   5.590   0.562
 4177WAT     H212774   4.954   5.438   0.581
 4178WAT      O12775   0.306   1.511   7.092
 4178WAT     H112776   0.314   1.571   7.013
 4178WAT     H212777   0.264   1.560   7.168
 4179WAT      O12778   4.153   1.797   8.505
 4179WAT     H112779   4.174   1.703   8.533
 4179WAT     H212780   4.159   1.858   8.584
 4180WAT      O12781   9.776   1.074   8.301
 4180WAT     H112782   9.697   1.028   8.342
 4180WAT     H212783   9.806   1.148   8.361
 4181WAT      O12784   3.615   8.475   5.526
 4181WAT     H112785   3.557   8.420   5.465
 4181WAT     H212786   3.644   8.419   5.603
 4182WAT      O12787   2.736   8.420   8.762
 4182WAT     H112788   2.683   8.502   8.779
 4182WAT     H212789   2.833   8.444   8.751
 4183WAT      O12790   1.100   3.485   2.554
 4183WAT     H112791   1.056   3.480   2.643
 4183WAT     H212792   1.147   3.573   2.544
 4184WAT      O12793   8.352   3.801   9.155
 4184WAT     H112794   8.300   3.833   9.076
 4184WAT     H212795   8.295   3.740   9.210
 4185WAT      O12796   4.261   4.402   6.713
 4185WAT     H112797   4.287   4.384   6.808
 4185WAT     H212798   4.178   4.458   6.711
 4186WAT      O12799   4.948   2.594   9.867
 4186WAT     H112800   4.956   2.665   9.797
 4186WAT     H212801   4.949   2.636   9.958
 4187WAT      O12802   1.134   5.381   2.562
 4187WAT     H112803   1.213   5.338   2.606
 4187WAT     H212804   1.162   5.467   2.519
 4188WAT      O12805   8.367   1.193   3.744
 4188WAT     H112806   8.420   1.170   3.663
 4188WAT     H212807   8.296   1.260   3.720
 4189WAT      O12808   4.344   5.447   3.884
 4189WAT     H112809   4.304   5.418   3.797
 4189WAT     H212810   4.285   5.418   3.959
 4190WAT      O12811   6.376   7.042   8.773
 4190WAT     H112812   6.388   6.997   8.684
 4190WAT     H212813   6.320   6.985   8.832
 4191WAT      O12814   7.691   2.993   2.724
 4191WAT     H112815   7.596   2.992   2.754
 4191WAT     H212816   7.695   3.020   2.627
 4192WAT      O12817   2.455   4.698   1.126
 4192WAT     H112818   2.502   4.628   1.072
 4192WAT     H212819   2.358   4.675   1.134
 4193WAT      O12820   0.934   4.648   3.834
 4193WAT     H112821   0.879   4.681   3.911
 4193WAT     H212822   1.031   4.649   3.859
 4194WAT      O12823   2.755   3.050   0.267
 4194WAT     H112824   2.767   3.116   0.341
 4194WAT     H212825   2.657   3.037   0.250
 4195WAT      O12826   0.451   9.341   2.098
 4195WAT     H112827   0.473   9.301   2.187
 4195WAT     H212828   0.535   9.363   2.049
 4196WAT      O12829   0.746   5.845   3.438
 4196WAT     H112830   0.710   5.764   3.486
 4196WAT     H212831   0.680   5.875   3.370
 4197WAT      O12832   5.246   2.163   1.808
 4197WAT     H112833   5.278   2.100   1.878
 4197WAT     H212834   5.187   2.232   1.850
 4198WAT      O12835   1.583   2.489   3.497
 4198WAT     H112836   1.604   2.581   3.529
 4198WAT     H212837   1.484   2.476   3.494
 4199WAT      O12838   8.436   2.875   8.138
 4199WAT     H112839   8.489   2.796   8.167
 4199WAT     H212840   8.498   2.949   8.113
 4200WAT      O12841   7.528   2.018   3.946
 4200WAT     H112842   7.506   2.114   3.966
 4200WAT     H212843   7.623   2.000   3.970
 4201WAT      O12844   4.016   0.792   7.175
 4201WAT     H112845   4.072   0.754   7.102
 4201WAT     H212846   4.007   0.725   7.249
 4202WAT      O12847   0.164   2.261   4.831
 4202WAT     H112848   0.108   2.284   4.910
 4202WAT     H212849   0.110   2.206   4.767
 4203WAT      O12850   1.121   7.315   5.929
 4203WAT     H112851   1.162   7.232   5.890
 4203WAT     H212852   1.032   7.331   5.885
 4204WAT      O12853   6.528   4.161   2.344
 4204WAT     H112854   6.538   4.107   2.261
 4204WAT     H212855   6.432   4.187   2.356
 4205WAT      O12856   2.828   0.640   0.753
 4205WAT     H112857   2.812   0.545   0.780
 4205WAT     H212858   2.766   0.664   0.678
 4206WAT      O12859   3.936   5.031   0.869
 4206WAT     H112860   3.867   5.101   0.852
 4206WAT     H212861   3.891   4.942   0.877
 4207WAT      O12862   3.272   7.682   0.523
 4207WAT     H112863   3.355   7.695   0.577
 4207WAT     H212864   3.221   7.768   0.518
 4208WAT      O12865   4.587   2.940   3.968
 4208WAT     H112866   4.514   2.920   3.903
 4208WAT     H212867   4.596   2.864   4.032
 4209WAT      O12868   1.967   1.340   6.117
 4209WAT     H112869   2.055   1.330   6.164
 4209WAT     H212870   1.919   1.252   6.117
 4210WAT      O12871   2.261   1.799   3.776
 4210WAT     H112872   2.341   1.858   3.766
 4210WAT     H212873   2.209   1.797   3.690
 4211WAT      O12874   9.005   5.398   2.638
 4211WAT     H112875   8.937   5.457   2.681
 4211WAT     H212876   9.094   5.414   2.680
 4212WAT      O12877   8.724   2.594   4.813
 4212WAT     H112878   8.723   2.661   4.738
 4212WAT     H212879   8.700   2.504   4.777
 4213WAT      O12880   1.612   4.467   3.957
 4213WAT     H112881   1.613   4.368   3.945
 4213WAT     H212882   1.520   4.496   3.987
 4214WAT      O12883   1.212   0.306   2.767
 4214WAT     H112884   1.306   0.329   2.792
 4214WAT     H212885   1.171   0.383   2.717
 4215WAT      O12886   3.145   8.881   3.160
 4215WAT     H112887   3.239   8.906   3.184
 4215WAT     H212888   3.144   8.838   3.069
 4216WAT      O12889   9.887   2.985   7.700
 4216WAT     H112890   9.974   3.024   7.728
 4216WAT     H212891   9.830   2.968   7.780
 4217WAT      O12892   8.854   5.756   2.574
 4217WAT     H112893   8.817   5.685   2.514
 4217WAT     H212894   8.824   5.846   2.543
 4218WAT      O12895   2.239   2.952   2.885
 4218WAT     H112896   2.333   2.930   2.910
 4218WAT     H212897   2.177   2.899   2.943
 4219WAT      O12898   9.021   0.910   3.322
 4219WAT     H112899   8.995   0.822   3.363
 4219WAT     H212900   8.939   0.965   3.308
 4220WAT      O12901   9.703   6.952   1.923
 4220WAT     H112902   9.707   6.975   2.020
 4220WAT     H212903   9.774   6.884   1.902
 4221WAT      O12904   0.565   6.461   2.694
 4221WAT     H112905   0.508   6.503   2.765
 4221WAT     H212906   0.525   6.480   2.604
 4222WAT      O12907   0.873   6.060   0.580
 4222WAT     H112908   0.931   6.092   0.505
 4222WAT     H212909   0.875   6.126   0.655
 4223WAT      O12910   2.212   0.603   4.337
 4223WAT     H112911   2.310   0.586   4.336
 4223WAT     H212912   2.166   0.529   4.386
 4224WAT      O12913   8.588   1.309   5.998
 4224WAT     H112914   8.501   1.301   5.949
 4224WAT     H212915   8.660   1.265   5.945
 4225WAT      O12916   0.863   5.554   5.462
 4225WAT     H112917   0.934   5.522   5.400
 4225WAT     H212918   0.789   5.487   5.465
 4226WAT      O12919   9.457   3.018   2.448
 4226WAT     H112920   9.385   2.960   2.486
 4226WAT     H212921   9.522   3.042   2.520
 4227WAT      O12922   5.059   6.555   6.519
 4227WAT     H112923   4.963   6.544   6.495
 4227WAT     H212924   5.096   6.468   6.551
 4228WAT      O12925   2.354   4.397   9.067
 4228WAT     H112926   2.353   4.442   8.977
 4228WAT     H212927   2.263   4.360   9.087
 4229WAT      O12928   4.176   8.114   0.935
 4229WAT     H112929   4.082   8.142   0.952
 4229WAT     H212930   4.216   8.078   1.020
 4230WAT      O12931   0.381   0.960   8.635
 4230WAT     H112932   0.347   0.871   8.603
 4230WAT     H212933   0.408   0.952   8.731
 4231WAT      O12934   5.907   6.381   5.691
 4231WAT     H112935   5.844   6.434   5.633
 4231WAT     H212936   5.860   6.356   5.776
 4232WAT      O12937   7.986   0.537   5.858
 4232WAT     H112938   7.917   0.605   5.833
 4232WAT     H212939   7.944   0.465   5.914
 4233WAT      O12940   5.676   0.510   2.018
 4233WAT     H112941   5.712   0.519   1.925
 4233WAT     H212942   5.655   0.414   2.037
 4234WAT      O12943   6.876   8.914   6.754
 4234WAT     H112944   6.954   8.976   6.756
 4234WAT     H212945   6.895   8.834   6.812
 4235WAT      O12946   9.803   7.512   6.443
 4235WAT     H112947   9.741   7.440   6.475
 4235WAT     H212948   9.816   7.580   6.516
 4236WAT      O12949   1.195   1.861   5.919
 4236WAT     H112950   1.195   1.803   5.837
 4236WAT     H212951   1.288   1.892   5.936
 4237WAT      O12952   8.857   0.206   4.666
 4237WAT     H112953   8.886   0.296   4.697
 4237WAT     H212954   8.920   0.173   4.595
 4238WAT      O12955   4.664   5.672   6.888
 4238WAT     H112956   4.751   5.715   6.861
 4238WAT     H212957   4.654   5.678   6.987
 4239WAT      O12958   2.789   5.698   5.438
 4239WAT     H112959   2.853   5.751   5.492
 4239WAT     H212960   2.834   5.615   5.404
 4240WAT      O12961   5.890   1.163   2.536
 4240WAT     H112962   5.845   1.229   2.596
 4240WAT     H212963   5.865   1.070   2.564
 4241WAT      O12964   6.337   5.666   1.063
 4241WAT     H112965   6.390   5.748   1.082
 4241WAT     H212966   6.371   5.591   1.120
 4242WAT      O12967   5.978   8.468   2.362
 4242WAT     H112968   5.913   8.540   2.337
 4242WAT     H212969   6.017   8.428   2.279
 4243WAT      O12970   7.686   2.366   7.556
 4243WAT     H112971   7.593   2.374   7.519
 4243WAT     H212972   7.752   2.400   7.489
 4244WAT      O12973   6.471   6.241   2.402
 4244WAT     H112974   6.497   6.305   2.474
 4244WAT     H212975   6.516   6.153   2.417
 4245WAT      O12976   8.663   6.800   0.815
 4245WAT     H112977   8.576   6.753   0.805
 4245WAT     H212978   8.731   6.736   0.852
 4246WAT      O12979   3.903   0.981   7.023
 4246WAT     H112980   3.955   1.009   6.942
 4246WAT     H212981   3.937   0.893   7.056
 4247WAT      O12982   6.391   5.618   3.418
 4247WAT     H112983   6.335   5.587   3.341
 4247WAT     H212984   6.333   5.630   3.499
 4248WAT      O12985   2.083   6.952   4.193
 4248WAT     H112986   2.180   6.959   4.217
 4248WAT     H212987   2.053   7.038   4.150
 4249WAT      O12988   4.264   6.327   1.127
 4249WAT     H112989   4.364   6.325   1.126
 4249WAT     H212990   4.232   6.367   1.213
 4250WAT      O12991   2.592   7.984   4.700
 4250WAT     H112992   2.675   8.037   4.686
 4250WAT     H212993   2.520   8.043   4.736
 4251WAT      O12994   7.541   5.125   7.148
 4251WAT     H112995   7.486   5.199   7.187
 4251WAT     H212996   7.501   5.095   7.061
 4252WAT      O12997   1.016   7.073   0.843
 4252WAT     H112998   0.917   7.062   0.843
 4252WAT     H212999   1.050   7.068   0.749
 4253WAT      O13000   1.634   0.815   9.512
 4253WAT     H113001   1.626   0.755   9.432
 4253WAT     H213002   1.724   0.859   9.511
 4254WAT      O13003   6.906   0.997   0.652
 4254WAT     H113004   6.997   1.013   0.614
 4254WAT     H213005   6.893   0.899   0.669
 4255WAT      O13006   8.469   2.529   0.969
 4255WAT     H113007   8.526   2.521   0.887
 4255WAT     H213008   8.522   2.574   1.042
 4256WAT      O13009   3.578   1.387   7.222
 4256WAT     H113010   3.634   1.395   7.140
 4256WAT     H213011   3.564   1.290   7.243
 4257WAT      O13012   6.845   2.655   3.676
 4257WAT     H113013   6.759   2.692   3.712
 4257WAT     H213014   6.916   2.659   3.747
 4258WAT      O13015   9.021   2.978   7.825
 4258WAT     H113016   9.066   2.896   7.790
 4258WAT     H213017   8.968   3.021   7.751
 4259WAT      O13018   5.462   6.141   2.819
 4259WAT     H113019   5.459   6.240   2.813
 4259WAT     H213020   5.548   6.108   2.779
 4260WAT      O13021   6.408   5.268   5.816
 4260WAT     H113022   6.370   5.244   5.906
 4260WAT     H213023   6.478   5.201   5.790
 4261WAT      O13024   1.796   1.708   5.525
 4261WAT     H113025   1.811   1.746   5.434
 4261WAT     H213026   1.778   1.782   5.590
 4262WAT      O13027   4.376   5.653   4.224
 4262WAT     H113028   4.322   5.735   4.246
 4262WAT     H213029   4.419   5.665   4.135
 4263WAT      O13030   7.867   9.669   4.651
 4263WAT     H113031   7.865   9.767   4.669
 4263WAT     H213032   7.902   9.653   4.559
 4264WAT      O13033   8.863   0.690   6.722
 4264WAT     H113034   8.816   0.767   6.766
 4264WAT     H213035   8.950   0.721   6.683
 4265WAT      O13036   2.211   1.358   8.395
 4265WAT     H113037   2.123   1.391   8.363
 4265WAT     H213038   2.283   1.419   8.361
 4266WAT      O13039   0.991   5.882   1.515
 4266WAT     H113040   1.028   5.886   1.608
 4266WAT     H213041   0.973   5.787   1.490
 4267WAT      O13042   5.072   5.894   3.102
 4267WAT     H113043   5.098   5.798   3.115
 4267WAT     H213044   5.140   5.939   3.044
 4268WAT      O13045   0.163   7.461   4.421
 4268WAT     H113046   0.150   7.421   4.512
 4268WAT     H213047   0.139   7.558   4.424
 4269WAT      O13048   8.998   5.423   0.680
 4269WAT     H113049   9.090   5.388   0.664
 4269WAT     H213050   9.000   5.523   0.681
 4270WAT      O13051   6.780   9.106   9.087
 4270WAT     H113052   6.738   9.186   9.043
 4270WAT     H213053   6.708   9.045   9.120
 4271WAT      O13054   1.476   9.372   7.596
 4271WAT     H113055   1.434   9.423   7.671
 4271WAT     H213056   1.526   9.436   7.537
 4272WAT      O13057   8.695   3.143   7.209
 4272WAT     H113058   8.648   3.212   7.152
 4272WAT     H213059   8.748   3.190   7.280
 4273WAT      O13060   6.709   0.063   6.483
 4273WAT     H113061   6.748   0.145   6.440
 4273WAT     H213062   6.743   0.056   6.577
 4274WAT      O13063   1.359   4.694   8.836
 4274WAT     H113064   1.372   4.768   8.771
 4274WAT     H213065   1.445   4.676   8.885
 4275WAT      O13066   2.921   0.205   2.688
 4275WAT     H113067   2.988   0.244   2.626
 4275WAT     H213068   2.896   0.113   2.658
 4276WAT      O13069   4.255   2.021   4.619
 4276WAT     H113070   4.345   2.014   4.575
 4276WAT     H213071   4.196   1.948   4.585
 4277WAT      O13072   5.491   6.410   3.847
 4277WAT     H113073   5.395   6.381   3.854
 4277WAT     H213074   5.547   6.353   3.907
 4278WAT      O13075   2.902   1.374   3.979
 4278WAT     H113076   2.833   1.347   4.046
 4278WAT     H213077   2.864   1.445   3.920
 4279WAT      O13078   0.423   2.142   2.013
 4279WAT     H113079   0.362   2.074   2.053
 4279WAT     H213080   0.502   2.156   2.073
 4280WAT      O13081   7.622   9.534   4.019
 4280WAT     H113082   7.666   9.549   3.931
 4280WAT     H213083   7.527   9.506   4.005
 4281WAT      O13084   2.441   9.161   4.046
 4281WAT     H113085   2.345   9.139   4.031
 4281WAT     H213086   2.453   9.196   4.139
 4282WAT      O13087   7.607   6.753   0.748
 4282WAT     H113088   7.699   6.789   0.759
 4282WAT     H213089   7.570   6.782   0.660
 4283WAT      O13090   3.948   7.450   1.324
 4283WAT     H113091   3.961   7.355   1.352
 4283WAT     H213092   3.870   7.456   1.262
 4284WAT      O13093   1.307   2.929   0.539
 4284WAT     H113094   1.258   2.956   0.456
 4284WAT     H213095   1.260   2.965   0.619
 4285WAT      O13096   8.391   7.833   4.266
 4285WAT     H113097   8.313   7.868   4.318
 4285WAT     H213098   8.358   7.781   4.188
 4286WAT      O13099   8.666   6.431   5.439
 4286WAT     H113100   8.763   6.456   5.437
 4286WAT     H213101   8.616   6.496   5.495
 4287WAT      O13102   9.257   0.909   6.139
 4287WAT     H113103   9.160   0.933   6.137
 4287WAT     H213104   9.290   0.895   6.045
 4288WAT      O13105   2.026   4.914   6.460
 4288WAT     H113106   2.022   4.835   6.521
 4288WAT     H213107   2.110   4.964   6.476
 4289WAT      O13108   5.933   6.008   3.178
 4289WAT     H113109   5.842   6.017   3.218
 4289WAT     H213110   5.976   6.098   3.173
 4290WAT      O13111   9.470   5.755   0.691
 4290WAT     H113112   9.408   5.822   0.652
 4290WAT     H213113   9.418   5.681   0.733
 4291WAT      O13114   1.259   9.238   6.339
 4291WAT     H113115   1.182   9.236   6.275
 4291WAT     H213116   1.248   9.166   6.407
 4292WAT      O13117   6.445   3.900   9.770
 4292WAT     H113118   6.449   3.891   9.870
 4292WAT     H213119   6.520   3.848   9.729
 4293WAT      O13120   6.916   1.795   8.585
 4293WAT     H113121   6.993   1.793   8.521
 4293WAT     H213122   6.918   1.881   8.638
 4294WAT      O13123   1.734   4.171   5.136
 4294WAT     H113124   1.767   4.077   5.147
 4294WAT     H213125   1.639   4.168   5.103
 4295WAT      O13126   5.659   1.913   1.253
 4295WAT     H113127   5.609   1.976   1.193
 4295WAT     H213128   5.755   1.940   1.257
 4296WAT      O13129   8.227   2.413   5.863
 4296WAT     H113130   8.178   2.470   5.797
 4296WAT     H213131   8.221   2.454   5.954
 4297WAT      O13132   6.005   1.432   7.270
 4297WAT     H113133   5.986   1.363   7.201
 4297WAT     H213134   6.062   1.504   7.231
 4298WAT      O13135   8.541   5.171   2.799
 4298WAT     H113136   8.623   5.145   2.747
 4298WAT     H213137   8.473   5.208   2.736
 4299WAT      O13138   2.973   6.092   3.998
 4299WAT     H113139   2.940   6.173   4.047
 4299WAT     H213140   3.066   6.109   3.964
 4300WAT      O13141   4.330   6.483   5.242
 4300WAT     H113142   4.364   6.428   5.166
 4300WAT     H213143   4.234   6.506   5.227
 4301WAT      O13144   4.800   6.679   3.260
 4301WAT     H113145   4.845   6.728   3.335
 4301WAT     H213146   4.833   6.585   3.257
 4302WAT      O13147   8.807   9.348   2.016
 4302WAT     H113148   8.712   9.353   2.045
 4302WAT     H213149   8.819   9.399   1.931
 4303WAT      O13150   3.982   3.626   6.237
 4303WAT     H113151   4.078   3.641   6.215
 4303WAT     H213152   3.951   3.695   6.302
 4304WAT      O13153   2.774   2.703   1.984
 4304WAT     H113154   2.726   2.628   1.939
 4304WAT     H213155   2.759   2.698   2.083
 4305WAT      O13156   8.775   3.842   2.969
 4305WAT     H113157   8.704   3.873   2.906
 4305WAT     H213158   8.751   3.869   3.063
 4306WAT      O13159   5.351   8.021   0.588
 4306WAT     H113160   5.436   8.040   0.637
 4306WAT     H213161   5.371   7.991   0.495
 4307WAT      O13162   1.017   3.302   4.442
 4307WAT     H113163   0.931   3.347   4.422
 4307WAT     H213164   1.091   3.345   4.390
 4308WAT      O13165   6.143   3.491   9.407
 4308WAT     H113166   6.106   3.404   9.375
 4308WAT     H213167   6.095   3.520   9.490
 4309WAT      O13168   1.923   2.197   5.534
 4309WAT     H113169   1.998   2.132   5.523
 4309WAT     H213170   1.946   2.262   5.606
 4310WAT      O13171   8.794   4.175   8.403
 4310WAT     H113172   8.878   4.160   8.351
 4310WAT     H213173   8.721   4.203   8.340
 4311WAT      O13174   9.626   6.180   7.713
 4311WAT     H113175   9.700   6.238   7.681
 4311WAT     H213176   9.657   6.085   7.715
 4312WAT      O13177   8.246   0.744   7.255
 4312WAT     H113178   8.257   0.836   7.218
 4312WAT     H213179   8.156   0.708   7.230
 4313WAT      O13180   1.138   6.074   2.328
 4313WAT     H113181   1.115   5.980   2.301
 4313WAT     H213182   1.176   6.123   2.250
 4314WAT      O13183   3.574   0.652   2.585
 4314WAT     H113184   3.603   0.746   2.604
 4314WAT     H213185   3.475   0.644   2.601
 4315WAT      O13186   3.234   1.624   7.762
 4315WAT     H113187   3.302   1.573   7.710
 4315WAT     H213188   3.163   1.561   7.795
 4316WAT      O13189   3.180   0.313   2.840
 4316WAT     H113190   3.237   0.375   2.786
 4316WAT     H213191   3.098   0.290   2.788
 4317WAT      O13192   0.421   8.981   3.125
 4317WAT     H113193   0.351   8.909   3.123
 4317WAT     H213194   0.501   8.948   3.175
 4318WAT      O13195   0.209   4.011   8.983
 4318WAT     H113196   0.270   4.030   8.906
 4318WAT     H213197   0.141   4.084   8.991
 4319WAT      O13198   6.344   8.178   7.030
 4319WAT     H113199   6.342   8.263   7.084
 4319WAT     H213200   6.261   8.172   6.975
 4320WAT      O13201   7.056   6.607   6.777
 4320WAT     H113202   7.058   6.644   6.870
 4320WAT     H213203   7.103   6.670   6.715
 4321WAT      O13204   6.895   4.428   7.195
 4321WAT     H113205   6.862   4.347   7.243
 4321WAT     H213206   6.869   4.424   7.099
 4322WAT      O13207   4.926   5.747   3.332
 4322WAT     H113208   4.935   5.797   3.246
 4322WAT     H213209   5.015   5.738   3.376
 4323WAT      O13210   3.997   4.128   5.339
 4323WAT     H113211   3.997   4.095   5.433
 4323WAT     H213212   4.008   4.228   5.339
 4324WAT      O13213   7.146   1.798   6.747
 4324WAT     H113214   7.147   1.744   6.663
 4324WAT     H213215   7.064   1.856   6.749
 4325WAT      O13216   0.738   8.835   2.493
 4325WAT     H113217   0.759   8.750   2.445
 4325WAT     H213218   0.662   8.819   2.556
 4326WAT      O13219   9.687   1.049   8.049
 4326WAT     H113220   9.723   1.075   8.139
 4326WAT     H213221   9.717   1.116   7.981
 4327WAT      O13222   5.939   9.468   8.188
 4327WAT     H113223   6.001   9.538   8.153
 4327WAT     H213224   5.986   9.380   8.189
 4328WAT      O13225   0.679   1.732   2.140
 4328WAT     H113226   0.778   1.740   2.153
 4328WAT     H213227   0.634   1.722   2.228
 4329WAT      O13228   4.475   5.328   1.192
 4329WAT     H113229   4.546   5.277   1.144
 4329WAT     H213230   4.499   5.337   1.289
 4330WAT      O13231   4.620   5.388   4.186
 4330WAT     H113232   4.646   5.477   4.224
 4330WAT     H213233   4.551   5.346   4.245
 4331WAT      O13234   4.171   6.651   2.494
 4331WAT     H113235   4.089   6.615   2.450
 4331WAT     H213236   4.198   6.737   2.450
 4332WAT      O13237   1.754   1.296   5.056
 4332WAT     H113238   1.804   1.382   5.060
 4332WAT     H213239   1.788   1.234   5.126
 4333WAT      O13240   0.052   3.095   4.199
 4333WAT     H113241   0.061   3.177   4.256
 4333WAT     H213242  -0.026   3.041   4.231
 4334WAT      O13243   9.837   5.402   6.692
 4334WAT     H113244   9.934   5.391   6.712
 4334WAT     H213245   9.792   5.313   6.696
 4335WAT      O13246   7.824   0.856   1.345
 4335WAT     H113247   7.858   0.930   1.287
 4335WAT     H213248   7.869   0.771   1.320
 4336WAT      O13249   1.594   1.466   3.894
 4336WAT     H113250   1.606   1.423   3.805
 4336WAT     H213251   1.506   1.514   3.897
 4337WAT      O13252   3.007   7.766   8.136
 4337WAT     H113253   2.953   7.793   8.056
 4337WAT     H213254   3.086   7.713   8.106
 4338WAT      O13255   6.624   8.549   0.227
 4338WAT     H113256   6.699   8.490   0.258
 4338WAT     H213257   6.616   8.542   0.128
 4339WAT      O13258   2.650   8.031   7.756
 4339WAT     H113259   2.600   8.016   7.841
 4339WAT     H213260   2.746   8.052   7.777
 4340WAT      O13261   5.590   6.386   2.605
 4340WAT     H113262   5.682   6.410   2.636
 4340WAT     H213263   5.522   6.420   2.670
 4341WAT      O13264   1.361   7.097   7.783
 4341WAT     H113265   1.387   7.030   7.853
 4341WAT     H213266   1.340   7.185   7.827
 4342WAT      O13267   5.582   3.435   2.184
 4342WAT     H113268   5.622   3.492   2.256
 4342WAT     H213269   5.609   3.470   2.095
 4343WAT      O13270   1.396   1.840   8.434
 4343WAT     H113271   1.395   1.940   8.428
 4343WAT     H213272   1.302   1.806   8.425
 4344WAT      O13273   0.371   2.843   6.739
 4344WAT     H113274   0.456   2.890   6.716
 4344WAT     H213275   0.379   2.747   6.712
 4345WAT      O13276   8.650   0.693   5.801
 4345WAT     H113277   8.642   0.594   5.811
 4345WAT     H213278   8.725   0.714   5.739
 4346WAT      O13279   8.009   3.346   8.272
 4346WAT     H113280   7.949   3.266   8.268
 4346WAT     H213281   8.045   3.356   8.364
 4347WAT      O13282   8.271   1.489   1.655
 4347WAT     H113283   8.188   1.537   1.627
 4347WAT     H213284   8.279   1.491   1.755
 4348WAT      O13285   3.556   0.100   3.519
 4348WAT     H113286   3.585   0.190   3.488
 4348WAT     H213287   3.633   0.036   3.514
 4349WAT      O13288   0.906   4.575   9.031
 4349WAT     H113289   0.999   4.541   9.043
 4349WAT     H213290   0.904   4.674   9.043
 4350WAT      O13291   3.632   0.020   1.802
 4350WAT     H113292   3.696  -0.016   1.871
 4350WAT     H213293   3.558   0.070   1.848
 4351WAT      O13294   4.500   4.802   2.041
 4351WAT     H113295   4.487   4.899   2.018
 4351WAT     H213296   4.585   4.769   1.999
 4352WAT      O13297   1.902   9.604   4.602
 4352WAT     H113298   1.876   9.515   4.566
 4352WAT     H213299   1.972   9.644   4.543
 4353WAT      O13300   3.548   8.854   0.790
 4353WAT     H113301   3.497   8.834   0.707
 4353WAT     H213302   3.583   8.768   0.829
 4354WAT      O13303   5.436   6.457   6.744
 4354WAT     H113304   5.455   6.526   6.674
 4354WAT     H213305   5.522   6.429   6.787
 4355WAT      O13306   8.700   2.008   7.613
 4355WAT     H113307   8.784   2.013   7.559
 4355WAT     H213308   8.654   1.921   7.596
 4356WAT      O13309   0.790   5.861   5.521
 4356WAT     H113310   0.852   5.786   5.497
 4356WAT     H213311   0.841   5.947   5.521
 4357WAT      O13312   1.306   0.746   4.357
 4357WAT     H113313   1.211   0.777   4.368
 4357WAT     H213314   1.345   0.789   4.275
 4358WAT      O13315   0.213   6.661   8.800
 4358WAT     H113316   0.176   6.687   8.889
 4358WAT     H213317   0.139   6.650   8.734
 4359WAT      O13318   1.026   3.229   8.706
 4359WAT     H113319   0.976   3.304   8.748
 4359WAT     H213320   1.066   3.261   8.620
 4360WAT      O13321   4.201   8.402   6.141
 4360WAT     H113322   4.124   8.362   6.192
 4360WAT     H213323   4.261   8.450   6.204
 4361WAT      O13324   9.391   1.054   1.656
 4361WAT     H113325   9.401   1.124   1.585
 4361WAT     H213326   9.468   0.990   1.650
 4362WAT      O13327   4.775   5.885   2.923
 4362WAT     H113328   4.750   5.802   2.973
 4362WAT     H213329   4.857   5.925   2.963
 4363WAT      O13330   4.869   9.691   0.278
 4363WAT     H113331   4.956   9.740   0.263
 4363WAT     H213332   4.862   9.616   0.212
 4364WAT      O13333   6.841   8.108   0.518
 4364WAT     H113334   6.808   8.033   0.460
 4364WAT     H213335   6.884   8.071   0.600
 4365WAT      O13336   3.418   3.108   9.156
 4365WAT     H113337   3.355   3.180   9.127
 4365WAT     H213338   3.411   3.030   9.094
 4366WAT      O13339   9.757   3.553   8.921
 4366WAT     H113340   9.694   3.498   8.975
 4366WAT     H213341   9.825   3.595   8.981
 4367WAT      O13342   2.144   4.857   8.221
 4367WAT     H113343   2.177   4.797   8.294
 4367WAT     H213344   2.171   4.818   8.132
 4368WAT      O13345   2.039   7.907   7.536
 4368WAT     H113346   2.005   7.833   7.594
 4368WAT     H213347   2.106   7.870   7.471
 4369WAT      O13348   7.143   7.312   3.871
 4369WAT     H113349   7.165   7.372   3.947
 4369WAT     H213350   7.146   7.364   3.785
 4370WAT      O13351   1.202   7.802   9.822
 4370WAT     H113352   1.129   7.743   9.790
 4370WAT     H213353   1.288   7.751   9.826
 4371WAT      O13354   8.570   3.077   4.715
 4371WAT     H113355   8.542   3.124   4.799
 4371WAT     H213356   8.606   3.144   4.650
 4372WAT      O13357   4.913   0.424   7.833
 4372WAT     H113358   5.001   0.377   7.833
 4372WAT     H213359   4.874   0.422   7.741
 4373WAT      O13360   5.960   1.069   9.832
 4373WAT     H113361   5.893   1.141   9.814
 4373WAT     H213362   5.992   1.032   9.745
 4374WAT      O13363   4.105   5.429   8.399
 4374WAT     H113364   4.170   5.464   8.331
 4374WAT     H213365   4.012   5.452   8.372
 4375WAT      O13366   1.194   5.282   1.273
 4375WAT     H113367   1.203   5.185   1.294
 4375WAT     H213368   1.153   5.293   1.182
 4376WAT      O13369   1.825   8.255   7.094
 4376WAT     H113370   1.912   8.233   7.049
 4376WAT     H213371   1.843   8.315   7.172
 4377WAT      O13372   2.865   3.789   2.383
 4377WAT     H113373   2.794   3.758   2.320
 4377WAT     H213374   2.863   3.733   2.466
 4378WAT      O13375   3.947   7.646   3.882
 4378WAT     H113376   4.004   7.585   3.826
 4378WAT     H213377   3.859   7.659   3.836
 4379WAT      O13378   7.148   4.996   6.066
 4379WAT     H113379   7.240   4.999   6.028
 4379WAT     H213380   7.082   5.024   5.996
 4380WAT      O13381   2.019   7.129   9.733
 4380WAT     H113382   1.997   7.226   9.741
 4380WAT     H213383   2.118   7.116   9.746
 4381WAT      O13384   2.452   7.033   6.916
 4381WAT     H113385   2.527   7.091   6.884
 4381WAT     H213386   2.450   7.034   7.016
 4382WAT      O13387   3.952   4.396   8.912
 4382WAT     H113388   3.901   4.470   8.867
 4382WAT     H213389   3.918   4.385   9.005
 4383WAT      O13390   5.635   6.944   6.946
 4383WAT     H113391   5.569   6.978   6.880
 4383WAT     H213392   5.667   7.020   7.003
 4384WAT      O13393   3.396   8.853   1.612
 4384WAT     H113394   3.361   8.812   1.528
 4384WAT     H213395   3.485   8.814   1.634
 4385WAT      O13396   0.509   4.788   4.735
 4385WAT     H113397   0.608   4.786   4.740
 4385WAT     H213398   0.475   4.700   4.703
 4386WAT      O13399   8.558   2.736   0.702
 4386WAT     H113400   8.627   2.776   0.763
 4386WAT     H213401   8.580   2.641   0.683
 4387WAT      O13402   8.074   5.778   1.736
 4387WAT     H113403   8.006   5.713   1.704
 4387WAT     H213404   8.158   5.768   1.682
 4388WAT      O13405   4.423   8.257   6.628
 4388WAT     H113406   4.328   8.243   6.600
 4388WAT     H213407   4.451   8.181   6.687
 4389WAT      O13408   8.495   1.692   8.806
 4389WAT     H113409   8.484   1.594   8.818
 4389WAT     H213410   8.408   1.732   8.776
 4390WAT      O13411   0.164   2.061   8.432
 4390WAT     H113412   0.212   1.982   8.469
 4390WAT     H213413   0.225   2.140   8.432
 4391WAT      O13414   9.021   3.043   3.995
 4391WAT     H113415   9.101   3.057   3.937
 4391WAT     H213416   8.938   3.046   3.939
 4392WAT      O13417   1.398   9.379   6.146
 4392WAT     H113418   1.317   9.438   6.139
 4392WAT     H213419   1.386   9.314   6.220
 4393WAT      O13420   4.366   2.264   6.002
 4393WAT     H113421   4.403   2.220   5.920
 4393WAT     H213422   4.337   2.194   6.068
 4394WAT      O13423   1.214   8.157   3.220
 4394WAT     H113424   1.293   8.218   3.221
 4394WAT     H213425   1.185   8.142   3.126
 4395WAT      O13426   4.398   2.732   1.588
 4395WAT     H113427   4.377   2.748   1.684
 4395WAT     H213428   4.367   2.641   1.562
 4396WAT      O13429   0.465   4.349   9.108
 4396WAT     H113430   0.449   4.292   9.188
 4396WAT     H213431   0.483   4.443   9.137
 4397WAT      O13432   6.210   1.598   4.434
 4397WAT     H113433   6.207   1.653   4.518
 4397WAT     H213434   6.129   1.617   4.379
 4398WAT      O13435   4.359   3.973   5.669
 4398WAT     H113436   4.341   3.876   5.680
 4398WAT     H213437   4.331   4.022   5.752
 4399WAT      O13438   9.263   7.309   0.348
 4399WAT     H113439   9.184   7.272   0.398
 4399WAT     H213440   9.259   7.278   0.253
 4400WAT      O13441   7.585   8.744   2.959
 4400WAT     H113442   7.502   8.761   3.013
 4400WAT     H213443   7.617   8.651   2.976
 4401WAT      O13444   4.561   9.404   8.469
 4401WAT     H113445   4.485   9.387   8.405
 4401WAT     H213446   4.532   9.379   8.562
 4402WAT      O13447   0.004   5.282   4.012
 4402WAT     H113448  -0.071   5.220   4.036
 4402WAT     H213449   0.071   5.234   3.956
 4403WAT      O13450   4.581   8.544   2.587
 4403WAT     H113451   4.595   8.591   2.675
 4403WAT     H213452   4.664   8.491   2.565
 4404WAT      O13453   3.906   2.619   3.456
 4404WAT     H113454   3.916   2.531   3.408
 4404WAT     H213455   3.836   2.611   3.526
 4405WAT      O13456   9.296   8.120   7.976
 4405WAT     H113457   9.313   8.183   7.900
 4405WAT     H213458   9.379   8.067   7.994
 4406WAT      O13459   4.381   4.668   7.204
 4406WAT     H113460   4.479   4.677   7.186
 4406WAT     H213461   4.334   4.646   7.118
 4407WAT      O13462   5.016   4.982   2.660
 4407WAT     H113463   4.965   4.994   2.745
 4407WAT     H213464   5.086   5.052   2.653
 4408WAT      O13465   1.546   4.184   1.849
 4408WAT     H113466   1.603   4.255   1.890
 4408WAT     H213467   1.582   4.094   1.874
 4409WAT      O13468   6.743   8.786   0.992
 4409WAT     H113469   6.680   8.794   0.915
 4409WAT     H213470   6.810   8.860   0.988
 4410WAT      O13471   3.727   5.636   3.331
 4410WAT     H113472   3.760   5.548   3.297
 4410WAT     H213473   3.784   5.710   3.294
 4411WAT      O13474   4.338   2.968   3.086
 4411WAT     H113475   4.385   2.893   3.041
 4411WAT     H213476   4.338   2.953   3.185
 4412WAT      O13477   6.136   7.651   0.298
 4412WAT     H113478   6.128   7.662   0.199
 4412WAT     H213479   6.230   7.624   0.321
 4413WAT      O13480   1.869   7.613   1.579
 4413WAT     H113481   1.882   7.659   1.667
 4413WAT     H213482   1.941   7.641   1.516
 4414WAT      O13483   7.381   4.910   2.364
 4414WAT     H113484   7.348   4.989   2.312
 4414WAT     H213485   7.475   4.928   2.395
 4415WAT      O13486   0.266   3.173   4.983
 4415WAT     H113487   0.292   3.101   4.919
 4415WAT     H213488   0.340   3.239   4.991
 4416WAT      O13489   7.541   5.540   2.280
 4416WAT     H113490   7.471   5.479   2.244
 4416WAT     H213491   7.528   5.632   2.241
 4417WAT      O13492   9.805   0.123   5.664
 4417WAT     H113493   9.896   0.082   5.668
 4417WAT     H213494   9.766   0.110   5.572
 4418WAT      O13495   4.125   3.553   4.421
 4418WAT     H113496   4.069   3.471   4.427
 4418WAT     H213497   4.069   3.634   4.436
 4419WAT      O13498   2.566   3.777   9.562
 4419WAT     H113499   2.563   3.852   9.628
 4419WAT     H213500   2.504   3.797   9.486
 4420WAT      O13501   6.784   2.192   7.095
 4420WAT     H113502   6.719   2.174   7.021
 4420WAT     H213503   6.744   2.257   7.159
 4421WAT      O13504   6.226   5.771   2.212
 4421WAT     H113505   6.278   5.702   2.262
 4421WAT     H213506   6.272   5.792   2.126
 4422WAT      O13507   0.884   2.760   4.659
 4422WAT     H113508   0.925   2.825   4.595
 4422WAT     H213509   0.796   2.729   4.624
 4423WAT      O13510   5.662   6.574   8.010
 4423WAT     H113511   5.674   6.493   7.952
 4423WAT     H213512   5.604   6.550   8.088
 4424WAT      O13513   6.740   5.237   3.841
 4424WAT     H113514   6.768   5.142   3.834
 4424WAT     H213515   6.666   5.245   3.908
 4425WAT      O13516   9.572   0.570   0.365
 4425WAT     H113517   9.596   0.480   0.403
 4425WAT     H213518   9.543   0.630   0.439
 4426WAT      O13519   3.896   4.056   7.549
 4426WAT     H113520   3.889   4.077   7.452
 4426WAT     H213521   3.968   3.988   7.563
 4427WAT      O13522   5.167   7.458   5.393
 4427WAT     H113523   5.214   7.470   5.305
 4427WAT     H213524   5.117   7.541   5.415
 4428WAT      O13525   2.607   3.899   4.343
 4428WAT     H113526   2.677   3.952   4.391
 4428WAT     H213527   2.637   3.882   4.249
 4429WAT      O13528   9.373   2.216   0.639
 4429WAT     H113529   9.395   2.172   0.552
 4429WAT     H213530   9.414   2.307   0.641
 4430WAT      O13531   2.010   4.610   8.551
 4430WAT     H113532   2.066   4.619   8.469
 4430WAT     H213533   1.940   4.682   8.552
 4431WAT      O13534   1.103   4.075   2.720
 4431WAT     H113535   1.102   4.004   2.790
 4431WAT     H213536   1.197   4.108   2.708
 4432WAT      O13537   3.744   5.591   8.560
 4432WAT     H113538   3.684   5.623   8.634
 4432WAT     H213539   3.838   5.615   8.581
 4433WAT      O13540   5.157   1.646   8.737
 4433WAT     H113541   5.087   1.632   8.807
 4433WAT     H213542   5.138   1.588   8.658
 4434WAT      O13543   9.303   1.035   4.988
 4434WAT     H113544   9.372   0.964   5.000
 4434WAT     H213545   9.333   1.119   5.031
 4435WAT      O13546   8.038   4.892   0.215
 4435WAT     H113547   8.026   4.848   0.304
 4435WAT     H213548   7.997   4.982   0.216
 4436WAT      O13549   1.232   3.507   1.959
 4436WAT     H113550   1.310   3.470   2.010
 4436WAT     H213551   1.163   3.540   2.024
 4437WAT      O13552   8.197   6.099   2.886
 4437WAT     H113553   8.182   6.011   2.930
 4437WAT     H213554   8.286   6.135   2.911
 4438WAT      O13555   9.103   7.074   7.680
 4438WAT     H113556   9.079   7.014   7.603
 4438WAT     H213557   9.201   7.092   7.679
 4439WAT      O13558   8.669   7.951   3.907
 4439WAT     H113559   8.713   8.021   3.851
 4439WAT     H213560   8.651   7.870   3.851
 4440WAT      O13561   4.285   9.557   4.400
 4440WAT     H113562   4.196   9.559   4.355
 4440WAT     H213563   4.356   9.533   4.334
 4441WAT      O13564   4.501   2.860   5.819
 4441WAT     H113565   4.584   2.812   5.791
 4441WAT     H213566   4.438   2.795   5.862
 4442WAT      O13567   2.596   7.302   7.195
 4442WAT     H113568   2.693   7.318   7.212
 4442WAT     H213569   2.545   7.387   7.210
 4443WAT      O13570   8.201   9.109   6.382
 4443WAT     H113571   8.127   9.174   6.361
 4443WAT     H213572   8.281   9.159   6.414
 4444WAT      O13573   2.400   0.013   6.060
 4444WAT     H113574   2.322  -0.026   6.110
 4444WAT     H213575   2.464  -0.060   6.037
 4445WAT      O13576   3.634   4.200   0.558
 4445WAT     H113577   3.595   4.218   0.649
 4445WAT     H213578   3.611   4.107   0.529
 4446WAT      O13579   3.457   0.954   2.404
 4446WAT     H113580   3.361   0.929   2.417
 4446WAT     H213581   3.509   0.928   2.485
 4447WAT      O13582   2.642   0.654   5.512
 4447WAT     H113583   2.697   0.737   5.505
 4447WAT     H213584   2.550   0.671   5.475
 4448WAT      O13585   6.428   7.503   2.648
 4448WAT     H113586   6.371   7.560   2.589
 4448WAT     H213587   6.494   7.453   2.592
 4449WAT      O13588   3.386   2.774   9.661
 4449WAT     H113589   3.364   2.679   9.637
 4449WAT     H213590   3.472   2.800   9.617
 4450WAT      O13591   1.582   2.525   5.482
 4450WAT     H113592   1.673   2.525   5.440
 4450WAT     H213593   1.565   2.614   5.524
 4451WAT      O13594   9.338   6.886   5.562
 4451WAT     H113595   9.268   6.817   5.581
 4451WAT     H213596   9.358   6.937   5.646
 4452WAT      O13597   2.661   6.518   2.354
 4452WAT     H113598   2.718   6.505   2.273
 4452WAT     H213599   2.645   6.430   2.398
 4453WAT      O13600   4.996   2.472   7.204
 4453WAT     H113601   5.055   2.551   7.189
 4453WAT     H213602   4.901   2.499   7.191
 4454WAT      O13603   8.662   0.049   3.727
 4454WAT     H113604   8.606   0.030   3.647
 4454WAT     H213605   8.756   0.019   3.710
 4455WAT      O13606   3.449   3.286   8.883
 4455WAT     H113607   3.370   3.281   8.944
 4455WAT     H213608   3.531   3.309   8.937
 4456WAT      O13609   4.208   3.304   3.485
 4456WAT     H113610   4.281   3.329   3.421
 4456WAT     H213611   4.199   3.204   3.487
 4457WAT      O13612   8.075   7.631   6.749
 4457WAT     H113613   8.113   7.709   6.798
 4457WAT     H213614   8.079   7.550   6.807
 4458WAT      O13615   5.464   6.853   1.964
 4458WAT     H113616   5.497   6.768   2.006
 4458WAT     H213617   5.543   6.905   1.929
 4459WAT      O13618   1.307   7.095   1.802
 4459WAT     H113619   1.314   7.152   1.720
 4459WAT     H213620   1.373   7.127   1.870
 4460WAT      O13621   3.480   1.307   5.808
 4460WAT     H113622   3.441   1.353   5.887
 4460WAT     H213623   3.576   1.333   5.797
 4461WAT      O13624   0.013   7.656   6.070
 4461WAT     H113625   0.035   7.592   5.996
 4461WAT     H213626  -0.054   7.722   6.038
 4462WAT      O13627   4.657   9.420   8.074
 4462WAT     H113628   4.745   9.375   8.061
 4462WAT     H213629   4.664   9.486   8.150
 4463WAT      O13630   1.227   7.877   1.359
 4463WAT     H113631   1.230   7.947   1.430
 4463WAT     H213632   1.169   7.801   1.389
 4464WAT      O13633   6.959   9.421   0.172
 4464WAT     H113634   7.008   9.336   0.191
 4464WAT     H213635   6.871   9.401   0.131
 4465WAT      O13636   6.947   6.700   2.753
 4465WAT     H113637   6.855   6.716   2.716
 4465WAT     H213638   7.005   6.778   2.733
 4466WAT      O13639   2.331   5.411   3.256
 4466WAT     H113640   2.294   5.493   3.212
 4466WAT     H213641   2.256   5.349   3.279
 4467WAT      O13642   1.130   0.014   6.925
 4467WAT     H113643   1.089  -0.067   6.966
 4467WAT     H213644   1.217  -0.011   6.883
 4468WAT      O13645   0.414   6.057   2.656
 4468WAT     H113646   0.487   6.112   2.696
 4468WAT     H213647   0.326   6.103   2.670
 4469WAT      O13648   3.661   6.681   1.072
 4469WAT     H113649   3.694   6.604   1.127
 4469WAT     H213650   3.626   6.753   1.132
 4470WAT      O13651   9.201   0.055   7.607
 4470WAT     H113652   9.127  -0.002   7.570
 4470WAT     H213653   9.280  -0.002   7.629
 4471WAT      O13654   6.750   1.768   9.746
 4471WAT     H113655   6.772   1.864   9.731
 4471WAT     H213656   6.821   1.725   9.802
 4472WAT      O13657   4.703   0.042   1.449
 4472WAT     H113658   4.737   0.135   1.460
 4472WAT     H213659   4.761  -0.021   1.499
 4473WAT      O13660   2.455   1.632   9.122
 4473WAT     H113661   2.514   1.696   9.074
 4473WAT     H213662   2.493   1.613   9.213
 4474WAT      O13663   6.614   4.077   6.442
 4474WAT     H113664   6.683   4.016   6.480
 4474WAT     H213665   6.523   4.040   6.460
 4475WAT      O13666   2.467   2.056   7.518
 4475WAT     H113667   2.384   2.077   7.467
 4475WAT     H213668   2.443   2.032   7.612
 4476WAT      O13669   9.179   0.353   4.046
 4476WAT     H113670   9.160   0.363   4.144
 4476WAT     H213671   9.124   0.419   3.995
 4477WAT      O13672   5.890   6.003   0.355
 4477WAT     H113673   5.813   6.005   0.419
 4477WAT     H213674   5.876   6.073   0.284
 4478WAT      O13675   6.020   0.967   1.768
 4478WAT     H113676   6.105   1.019   1.754
 4478WAT     H213677   5.944   1.031   1.776
 4479WAT      O13678   3.220   4.851   0.819
 4479WAT     H113679   3.252   4.890   0.905
 4479WAT     H213680   3.262   4.761   0.805
 4480WAT      O13681   9.537   9.450   6.639
 4480WAT     H113682   9.635   9.437   6.626
 4480WAT     H213683   9.494   9.362   6.659
 4481WAT      O13684   6.089   4.146   0.123
 4481WAT     H113685   6.112   4.048   0.124
 4481WAT     H213686   6.161   4.197   0.076
 4482WAT      O13687   3.133   7.904   0.491
 4482WAT     H113688   3.041   7.867   0.475
 4482WAT     H213689   3.130   8.004   0.481
 4483WAT      O13690   5.781   8.651   2.292
 4483WAT     H113691   5.715   8.683   2.223
 4483WAT     H213692   5.735   8.644   2.381
 4484WAT      O13693   1.455   1.577   9.671
 4484WAT     H113694   1.549   1.542   9.676
 4484WAT     H213695   1.455   1.676   9.684
 4485WAT      O13696   9.719   1.930   2.578
 4485WAT     H113697   9.725   1.934   2.678
 4485WAT     H213698   9.676   1.844   2.550
 4486WAT      O13699   4.650   5.942   7.368
 4486WAT     H113700   4.567   5.887   7.378
 4486WAT     H213701   4.647   5.991   7.281
 4487WAT      O13702   7.424   5.979   2.818
 4487WAT     H113703   7.503   5.928   2.853
 4487WAT     H213704   7.447   6.076   2.810
 4488WAT      O13705   1.418   7.218   3.572
 4488WAT     H113706   1.442   7.166   3.489
 4488WAT     H213707   1.328   7.260   3.560
 4489WAT      O13708   8.651   1.654   1.382
 4489WAT     H113709   8.651   1.662   1.482
 4489WAT     H213710   8.737   1.689   1.346
 4490WAT      O13711   2.661   7.777   9.197
 4490WAT     H113712   2.661   7.799   9.295
 4490WAT     H213713   2.598   7.837   9.149
 4491WAT      O13714   4.724   9.194   3.562
 4491WAT     H113715   4.774   9.116   3.600
 4491WAT     H213716   4.788   9.268   3.542
 4492WAT      O13717   8.438   0.990   5.666
 4492WAT     H113718   8.422   0.929   5.588
 4492WAT     H213719   8.353   1.037   5.690
 4493WAT      O13720   6.593   7.863   1.055
 4493WAT     H113721   6.561   7.783   1.004
 4493WAT     H213722   6.523   7.890   1.121
 4494WAT      O13723   8.129   8.777   3.404
 4494WAT     H113724   8.072   8.709   3.358
 4494WAT     H213725   8.206   8.730   3.450
 4495WAT      O13726   5.336   7.109   0.949
 4495WAT     H113727   5.264   7.109   1.017
 4495WAT     H213728   5.371   7.017   0.937
 4496WAT      O13729   8.674   6.957   7.867
 4496WAT     H113730   8.621   6.917   7.941
 4496WAT     H213731   8.733   7.029   7.904
 4497WAT      O13732   5.385   3.881   7.929
 4497WAT     H113733   5.349   3.843   7.844
 4497WAT     H213734   5.483   3.861   7.936
 4498WAT      O13735   8.360   4.145   8.644
 4498WAT     H113736   8.375   4.120   8.549
 4498WAT     H213737   8.427   4.098   8.702
 4499WAT      O13738   1.912   6.220   4.798
 4499WAT     H113739   1.945   6.126   4.807
 4499WAT     H213740   1.940   6.273   4.878
 4500WAT      O13741   6.993   2.578   1.039
 4500WAT     H113742   6.973   2.665   0.995
 4500WAT     H213743   7.072   2.534   0.994
 4501WAT      O13744   5.800   2.834   7.555
 4501WAT     H113745   5.759   2.920   7.586
 4501WAT     H213746   5.751   2.758   7.597
 4502WAT      O13747   1.077   7.483   5.564
 4502WAT     H113748   1.151   7.504   5.628
 4502WAT     H213749   1.061   7.562   5.504
 4503WAT      O13750   0.825   1.667   6.185
 4503WAT     H113751   0.782   1.642   6.098
 4503WAT     H213752   0.903   1.726   6.168
 4504WAT      O13753   3.698   8.866   0.443
 4504WAT     H113754   3.670   8.843   0.350
 4504WAT     H213755   3.703   8.783   0.498
 4505WAT      O13756   8.657   0.611   2.034
 4505WAT     H113757   8.685   0.694   1.985
 4505WAT     H213758   8.560   0.618   2.058
 4506WAT      O13759   9.407   5.480   4.463
 4506WAT     H113760   9.354   5.454   4.544
 4506WAT     H213761   9.396   5.579   4.447
 4507WAT      O13762   6.589   4.363   2.833
 4507WAT     H113763   6.665   4.318   2.786
 4507WAT     H213764   6.626   4.434   2.894
 4508WAT      O13765   6.257   1.997   7.135
 4508WAT     H113766   6.301   1.907   7.129
 4508WAT     H213767   6.262   2.043   7.046
 4509WAT      O13768   8.945   3.807   1.799
 4509WAT     H113769   9.004   3.810   1.880
 4509WAT     H213770   9.001   3.820   1.717
 4510WAT      O13771   7.684   4.343   1.382
 4510WAT     H113772   7.652   4.265   1.435
 4510WAT     H213773   7.781   4.360   1.403
 4511WAT      O13774   0.930   2.695   7.383
 4511WAT     H113775   0.911   2.607   7.427
 4511WAT     H213776   0.986   2.680   7.302
 4512WAT      O13777   1.137   7.532   6.665
 4512WAT     H113778   1.103   7.545   6.758
 4512WAT     H213779   1.212   7.596   6.647
 4513WAT      O13780   4.957   4.785   0.385
 4513WAT     H113781   5.019   4.832   0.449
 4513WAT     H213782   4.864   4.815   0.403
 4514WAT      O13783   3.831   7.619   6.542
 4514WAT     H113784   3.881   7.698   6.507
 4514WAT     H213785   3.776   7.646   6.621
 4515WAT      O13786   7.510   2.004   1.447
 4515WAT     H113787   7.532   2.102   1.445
 4515WAT     H213788   7.564   1.957   1.377
 4516WAT      O13789   1.585   1.966   5.487
 4516WAT     H113790   1.634   1.960   5.573
 4516WAT     H213791   1.534   2.052   5.484
 4517WAT      O13792   3.434   3.577   7.954
 4517WAT     H113793   3.384   3.609   7.874
 4517WAT     H213794   3.375   3.581   8.035
 4518WAT      O13795   6.501   1.197   2.718
 4518WAT     H113796   6.411   1.156   2.733
 4518WAT     H213797   6.561   1.174   2.795
 4519WAT      O13798   7.699   3.476   6.846
 4519WAT     H113799   7.658   3.407   6.906
 4519WAT     H213800   7.694   3.565   6.890
 4520WAT      O13801   7.935   2.799   5.439
 4520WAT     H113802   7.967   2.726   5.378
 4520WAT     H213803   8.012   2.854   5.470
 4521WAT      O13804   2.116   3.737   8.685
 4521WAT     H113805   2.123   3.828   8.644
 4521WAT     H213806   2.145   3.668   8.619
 4522WAT      O13807   9.861   0.138   6.588
 4522WAT     H113808   9.887   0.178   6.676
 4522WAT     H213809   9.820   0.208   6.530
 4523WAT      O13810   9.448   5.465   6.677
 4523WAT     H113811   9.477   5.543   6.733
 4523WAT     H213812   9.475   5.480   6.582
 4524WAT      O13813   4.703   3.399   4.214
 4524WAT     H113814   4.772   3.328   4.227
 4524WAT     H213815   4.741   3.474   4.161
 4525WAT      O13816   4.875   2.668   8.307
 4525WAT     H113817   4.878   2.568   8.306
 4525WAT     H213818   4.783   2.699   8.284
 4526WAT      O13819   6.670   5.628   3.437
 4526WAT     H113820   6.573   5.603   3.436
 4526WAT     H213821   6.720   5.564   3.496
 4527WAT      O13822   1.194   9.737   5.270
 4527WAT     H113823   1.224   9.821   5.225
 4527WAT     H213824   1.257   9.662   5.245
 4528WAT      O13825   5.085   1.360   9.385
 4528WAT     H113826   5.000   1.409   9.403
 4528WAT     H213827   5.101   1.293   9.457
 4529WAT      O13828   7.693   7.671   3.490
 4529WAT     H113829   7.671   7.615   3.410
 4529WAT     H213830   7.786   7.649   3.521
 4530WAT      O13831   4.091   8.912   1.657
 4530WAT     H113832   4.142   8.859   1.725
 4530WAT     H213833   3.999   8.874   1.647
 4531WAT      O13834   6.916   3.424   3.940
 4531WAT     H113835   6.989   3.360   3.964
 4531WAT     H213836   6.868   3.452   4.023
 4532WAT      O13837   3.916   0.819   8.928
 4532WAT     H113838   3.948   0.874   9.004
 4532WAT     H213839   3.816   0.810   8.933
 4533WAT      O13840   6.971   6.836   6.430
 4533WAT     H113841   6.925   6.750   6.407
 4533WAT     H213842   6.934   6.910   6.372
 4534WAT      O13843   3.328   4.952   2.664
 4534WAT     H113844   3.345   4.893   2.742
 4534WAT     H213845   3.413   4.997   2.637
 4535WAT      O13846   3.015   9.668   5.469
 4535WAT     H113847   3.099   9.620   5.495
 4535WAT     H213848   3.029   9.767   5.477
 4536WAT      O13849   7.306   6.985   2.839
 4536WAT     H113850   7.305   6.938   2.928
 4536WAT     H213851   7.280   7.081   2.852
 4537WAT      O13852   6.014   8.331   8.921
 4537WAT     H113853   6.070   8.363   8.845
 4537WAT     H213854   5.971   8.244   8.896
 4538WAT      O13855   0.147   3.689   1.986
 4538WAT     H113856   0.168   3.745   2.067
 4538WAT     H213857   0.123   3.597   2.015
 4539WAT      O13858   6.702   1.367   7.620
 4539WAT     H113859   6.729   1.271   7.633
 4539WAT     H213860   6.690   1.384   7.522
 4540WAT      O13861   7.529   1.532   8.437
 4540WAT     H113862   7.465   1.522   8.361
 4540WAT     H213863   7.478   1.552   8.521
 4541WAT      O13864   0.006   8.458   3.387
 4541WAT     H113865  -0.031   8.547   3.359
 4541WAT     H213866  -0.020   8.389   3.319
 4542WAT      O13867   1.273   6.658   7.342
 4542WAT     H113868   1.281   6.758   7.337
 4542WAT     H213869   1.176   6.633   7.347
 4543WAT      O13870   5.581   4.855   4.407
 4543WAT     H113871   5.633   4.892   4.484
 4543WAT     H213872   5.491   4.827   4.438
 4544WAT      O13873   3.176   2.717   4.566
 4544WAT     H113874   3.244   2.643   4.574
 4544WAT     H213875   3.085   2.680   4.583
 4545WAT      O13876   5.874   8.378   7.570
 4545WAT     H113877   5.974   8.383   7.572
 4545WAT     H213878   5.841   8.335   7.653
 4546WAT      O13879   3.186   9.181   9.543
 4546WAT     H113880   3.216   9.146   9.632
 4546WAT     H213881   3.099   9.229   9.553
 4547WAT      O13882   7.565   3.933   4.474
 4547WAT     H113883   7.564   3.927   4.374
 4547WAT     H213884   7.556   4.029   4.501
 4548WAT      O13885   3.070   0.955   8.008
 4548WAT     H113886   3.020   1.029   8.054
 4548WAT     H213887   3.010   0.875   8.002
 4549WAT      O13888   5.532   1.611   5.034
 4549WAT     H113889   5.544   1.664   5.118
 4549WAT     H213890   5.476   1.664   4.969
 4550WAT      O13891   3.015   4.575   2.486
 4550WAT     H113892   2.995   4.624   2.571
 4550WAT     H213893   3.051   4.640   2.419
 4551WAT      O13894   9.737   6.327   3.608
 4551WAT     H113895   9.752   6.378   3.524
 4551WAT     H213896   9.655   6.271   3.598
 4552WAT      O13897   2.271   1.675   4.423
 4552WAT     H113898   2.323   1.747   4.379
 4552WAT     H213899   2.235   1.707   4.510
 4553WAT      O13900   9.735   0.287   8.317
 4553WAT     H113901   9.707   0.370   8.366
 4553WAT     H213902   9.809   0.242   8.367
 4554WAT      O13903   6.243   7.440   2.402
 4554WAT     H113904   6.151   7.405   2.384
 4554WAT     H213905   6.297   7.368   2.447
 4555WAT      O13906   1.576   6.223   7.174
 4555WAT     H113907   1.477   6.218   7.161
 4555WAT     H213908   1.597   6.298   7.236
 4556WAT      O13909   6.609   0.145   1.591
 4556WAT     H113910   6.614   0.162   1.493
 4556WAT     H213911   6.663   0.064   1.614
 4557WAT      O13912   3.783   4.479   3.268
 4557WAT     H113913   3.835   4.552   3.223
 4557WAT     H213914   3.793   4.394   3.217
 4558WAT      O13915   5.804   0.083   5.387
 4558WAT     H113916   5.836   0.052   5.476
 4558WAT     H213917   5.711   0.049   5.371
 4559WAT      O13918   2.325   4.399   5.713
 4559WAT     H113919   2.266   4.324   5.682
 4559WAT     H213920   2.394   4.418   5.644
 4560WAT      O13921   5.790   6.719   9.566
 4560WAT     H113922   5.803   6.674   9.654
 4560WAT     H213923   5.759   6.653   9.498
 4561WAT      O13924   7.417   8.874   4.468
 4561WAT     H113925   7.444   8.860   4.563
 4561WAT     H213926   7.363   8.958   4.461
 4562WAT      O13927   5.618   6.313   9.624
 4562WAT     H113928   5.627   6.259   9.540
 4562WAT     H213929   5.623   6.410   9.603
 4563WAT      O13930   2.164   5.752   8.179
 4563WAT     H113931   2.251   5.705   8.162
 4563WAT     H213932   2.092   5.684   8.194
 4564WAT      O13933   3.523   2.699   6.384
 4564WAT     H113934   3.478   2.778   6.427
 4564WAT     H213935   3.492   2.615   6.429
 4565WAT      O13936   5.145   1.354   4.732
 4565WAT     H113937   5.228   1.367   4.678
 4565WAT     H213938   5.120   1.257   4.731
 4566WAT      O13939   1.494   3.036   4.286
 4566WAT     H113940   1.450   3.074   4.367
 4566WAT     H213941   1.471   2.939   4.278
 4567WAT      O13942   4.448   7.791   0.487
 4567WAT     H113943   4.498   7.844   0.418
 4567WAT     H213944   4.470   7.826   0.578
 4568WAT      O13945   4.333   0.214   7.473
 4568WAT     H113946   4.235   0.222   7.492
 4568WAT     H213947   4.381   0.291   7.516
 4569WAT      O13948   2.782   0.305   9.685
 4569WAT     H113949   2.808   0.383   9.629
 4569WAT     H213950   2.798   0.326   9.782
 4570WAT      O13951   2.522   1.224   3.190
 4570WAT     H113952   2.554   1.224   3.095
 4570WAT     H213953   2.497   1.318   3.216
 4571WAT      O13954   9.031   4.264   8.811
 4571WAT     H113955   9.104   4.332   8.801
 4571WAT     H213956   8.979   4.260   8.725
 4572WAT      O13957   0.789   7.520   4.485
 4572WAT     H113958   0.710   7.463   4.464
 4572WAT     H213959   0.851   7.471   4.546
 4573WAT      O13960   7.811   0.086   0.034
 4573WAT     H113961   7.732   0.025   0.046
 4573WAT     H213962   7.838   0.124   0.122
 4574WAT      O13963   6.616   8.104   3.910
 4574WAT     H113964   6.657   8.093   3.820
 4574WAT     H213965   6.640   8.193   3.948
 4575WAT      O13966   7.977   8.007   7.813
 4575WAT     H113967   7.914   7.982   7.739
 4575WAT     H213968   7.975   7.935   7.883
 4576WAT      O13969   1.381   0.893   2.460
 4576WAT     H113970   1.361   0.933   2.370
 4576WAT     H213971   1.328   0.810   2.472
 4577WAT      O13972   7.650   8.076   2.514
 4577WAT     H113973   7.688   8.028   2.593
 4577WAT     H213974   7.675   8.028   2.430
 4578WAT      O13975   3.768   3.170   7.255
 4578WAT     H113976   3.804   3.219   7.335
 4578WAT     H213977   3.675   3.139   7.275
 4579WAT      O13978   2.360   3.031   0.451
 4579WAT     H113979   2.408   3.015   0.537
 4579WAT     H213980   2.338   3.128   0.442
 4580WAT      O13981   2.677   7.374   6.439
 4580WAT     H113982   2.718   7.326   6.361
 4580WAT     H213983   2.714   7.467   6.444
 4581WAT      O13984   1.428   9.263   0.568
 4581WAT     H113985   1.368   9.327   0.520
 4581WAT     H213986   1.376   9.180   0.593
 4582WAT      O13987   3.625   0.847   4.751
 4582WAT     H113988   3.699   0.803   4.700
 4582WAT     H213989   3.664   0.905   4.822
 4583WAT      O13990   0.720   8.264   1.739
 4583WAT     H113991   0.810   8.298   1.762
 4583WAT     H213992   0.714   8.250   1.640
 4584WAT      O13993   5.046   2.140   9.352
 4584WAT     H113994   5.007   2.168   9.264
 4584WAT     H213995   5.121   2.076   9.336
 4585WAT      O13996   6.185   7.707   8.024
 4585WAT     H113997   6.283   7.721   8.010
 4585WAT     H213998   6.158   7.744   8.113
 4586WAT      O13999   9.502   8.793   7.126
 4586WAT     H114000   9.569   8.776   7.053
 4586WAT     H214001   9.493   8.892   7.139
 4587WAT      O14002   9.204   6.967   6.736
 4587WAT     H114003   9.206   7.015   6.824
 4587WAT     H214004   9.263   6.886   6.741
 4588WAT      O14005   0.453   2.959   3.710
 4588WAT     H114006   0.505   2.893   3.656
 4588WAT     H214007   0.366   2.918   3.739
 4589WAT      O14008   4.593   4.289   2.644
 4589WAT     H114009   4.595   4.205   2.590
 4589WAT     H214010   4.628   4.270   2.736
 4590WAT      O14011   8.922   2.608   6.879
 4590WAT     H114012   8.897   2.687   6.934
 4590WAT     H214013   8.853   2.536   6.891
 4591WAT      O14014   1.503   8.785   4.032
 4591WAT     H114015   1.573   8.854   4.011
 4591WAT     H214016   1.536   8.726   4.105
 4592WAT      O14017   4.275   4.671   1.019
 4592WAT     H114018   4.303   4.584   0.980
 4592WAT     H214019   4.209   4.715   0.958
 4593WAT      O14020   1.143   7.293   0.096
 4593WAT     H114021   1.094   7.378   0.115
 4593WAT     H214022   1.101   7.247   0.018
 4594WAT      O14023   1.484   5.608   4.126
 4594WAT     H114024   1.452   5.682   4.186
 4594WAT     H214025   1.405   5.561   4.086
 4595WAT      O14026   6.018   2.067   9.481
 4595WAT     H114027   6.089   2.003   9.510
 4595WAT     H214028   5.931   2.043   9.525
 4596WAT      O14029   3.391   6.684   2.679
 4596WAT     H114030   3.465   6.659   2.742
 4596WAT     H214031   3.429   6.729   2.599
 4597WAT      O14032   3.870   3.282   2.484
 4597WAT     H114033   3.817   3.357   2.523
 4597WAT     H214034   3.855   3.280   2.385
 4598WAT      O14035   0.226   1.401   0.496
 4598WAT     H114036   0.140   1.406   0.446
 4598WAT     H214037   0.258   1.307   0.500
 4599WAT      O14038   6.929   2.383   3.872
 4599WAT     H114039   6.969   2.292   3.863
 4599WAT     H214040   6.917   2.405   3.969
 4600WAT      O14041   4.877   8.795   8.961
 4600WAT     H114042   4.911   8.701   8.969
 4600WAT     H214043   4.835   8.807   8.871
 4601WAT      O14044   1.592   5.882   4.516
 4601WAT     H114045   1.510   5.828   4.498
 4601WAT     H214046   1.586   5.969   4.467
 4602WAT      O14047   3.431   5.723   7.715
 4602WAT     H114048   3.383   5.811   7.726
 4602WAT     H214049   3.427   5.694   7.620
 4603WAT      O14050   2.165   8.646   7.444
 4603WAT     H114051   2.245   8.699   7.419
 4603WAT     H214052   2.174   8.552   7.410
 4604WAT      O14053   5.797   5.647   2.543
 4604WAT     H114054   5.890   5.658   2.509
 4604WAT     H214055   5.750   5.736   2.543
 4605WAT      O14056   5.328   2.100   1.298
 4605WAT     H114057   5.337   2.089   1.397
 4605WAT     H214058   5.243   2.057   1.268
 4606WAT      O14059   0.488   4.385   0.450
 4606WAT     H114060   0.398   4.359   0.485
 4606WAT     H214061   0.479   4.467   0.393
 4607WAT      O14062   9.114   4.323   8.213
 4607WAT     H114063   9.141   4.419   8.226
 4607WAT     H214064   9.178   4.264   8.262
 4608WAT      O14065   0.403   5.437   9.033
 4608WAT     H114066   0.503   5.438   9.025
 4608WAT     H214067   0.376   5.471   9.123
 4609WAT      O14068   7.034   6.756   7.004
 4609WAT     H114069   7.111   6.763   7.067
 4609WAT     H214070   7.034   6.837   6.944
 4610WAT      O14071   6.405   6.130   0.480
 4610WAT     H114072   6.342   6.140   0.557
 4610WAT     H214073   6.499   6.132   0.514
 4611WAT      O14074   3.700   3.089   8.746
 4611WAT     H114075   3.713   3.105   8.843
 4611WAT     H214076   3.687   3.177   8.699
 4612WAT      O14077   9.763   1.137   3.820
 4612WAT     H114078   9.677   1.089   3.839
 4612WAT     H214079   9.806   1.163   3.906
 4613WAT      O14080   7.168   1.532   2.089
 4613WAT     H114081   7.198   1.448   2.044
 4613WAT     H214082   7.113   1.510   2.168
 4614WAT      O14083   5.512   0.536   3.317
 4614WAT     H114084   5.503   0.624   3.270
 4614WAT     H214085   5.583   0.482   3.273
 4615WAT      O14086   1.457   0.061   2.072
 4615WAT     H114087   1.450   0.150   2.118
 4615WAT     H214088   1.551   0.028   2.078
 4616WAT      O14089   8.043   5.613   3.856
 4616WAT     H114090   7.948   5.587   3.874
 4616WAT     H214091   8.071   5.686   3.918
 4617WAT      O14092   5.454   3.298   3.248
 4617WAT     H114093   5.465   3.199   3.236
 4617WAT     H214094   5.454   3.343   3.159
 4618WAT      O14095   4.134   5.239   8.600
 4618WAT     H114096   4.149   5.298   8.521
 4618WAT     H214097   4.041   5.251   8.633
 4619WAT      O14098   3.010   8.491   5.915
 4619WAT     H114099   2.953   8.409   5.915
 4619WAT     H214100   3.050   8.504   5.824
 4620WAT      O14101   0.554   5.302   0.257
 4620WAT     H114102   0.652   5.315   0.265
 4620WAT     H214103   0.533   5.251   0.174
 4621WAT      O14104   7.283   7.296   1.134
 4621WAT     H114105   7.363   7.309   1.193
 4621WAT     H214106   7.200   7.314   1.187
 4622WAT      O14107   2.812   4.948   6.548
 4622WAT     H114108   2.752   4.869   6.535
 4622WAT     H214109   2.839   4.985   6.459
 4623WAT      O14110   0.117   6.278   4.098
 4623WAT     H114111   0.065   6.207   4.050
 4623WAT     H214112   0.132   6.356   4.037
 4624WAT      O14113   7.773   0.508   9.606
 4624WAT     H114114   7.822   0.422   9.594
 4624WAT     H214115   7.682   0.489   9.643
 4625WAT      O14116   3.479   8.539   6.965
 4625WAT     H114117   3.396   8.583   7.000
 4625WAT     H214118   3.547   8.532   7.039
 4626WAT      O14119   9.144   7.457   9.141
 4626WAT     H114120   9.067   7.434   9.083
 4626WAT     H214121   9.124   7.541   9.192
 4627WAT      O14122   1.099   5.141   6.989
 4627WAT     H114123   1.176   5.160   7.050
 4627WAT     H214124   1.049   5.061   7.022
 4628WAT      O14125   2.039   5.498   9.144
 4628WAT     H114126   2.132   5.530   9.162
 4628WAT     H214127   1.998   5.553   9.072
 4629WAT      O14128   5.375   9.540   0.734
 4629WAT     H114129   5.469   9.506   0.741
 4629WAT     H214130   5.317   9.492   0.800
 4630WAT      O14131   2.801   2.416   7.757
 4630WAT     H114132   2.711   2.387   7.726
 4630WAT     H214133   2.855   2.336   7.783
 4631WAT      O14134   4.074   4.539   1.295
 4631WAT     H114135   4.113   4.577   1.211
 4631WAT     H214136   4.017   4.460   1.272
 4632WAT      O14137   4.125   7.138   2.392
 4632WAT     H114138   4.135   7.151   2.294
 4632WAT     H214139   4.034   7.103   2.412
 4633WAT      O14140   6.198   7.165   7.422
 4633WAT     H114141   6.278   7.204   7.469
 4633WAT     H214142   6.120   7.228   7.431
 4634WAT      O14143   8.352   2.873   1.935
 4634WAT     H114144   8.419   2.884   2.008
 4634WAT     H214145   8.264   2.845   1.973
 4635WAT      O14146   8.421   7.463   9.628
 4635WAT     H114147   8.329   7.480   9.593
 4635WAT     H214148   8.487   7.468   9.552
 4636WAT      O14149   9.296   9.093   6.001
 4636WAT     H114150   9.384   9.071   6.042
 4636WAT     H214151   9.281   9.036   5.920
 4637WAT      O14152   9.449   0.930   4.336
 4637WAT     H114153   9.432   1.011   4.392
 4637WAT     H214154   9.362   0.897   4.298
 4638WAT      O14155   9.243   7.535   6.275
 4638WAT     H114156   9.314   7.565   6.212
 4638WAT     H214157   9.159   7.516   6.224
 4639WAT      O14158   1.931   5.549   4.764
 4639WAT     H114159   1.872   5.537   4.845
 4639WAT     H214160   1.893   5.619   4.705
 4640WAT      O14161   5.604   3.234   9.034
 4640WAT     H114162   5.686   3.287   9.056
 4640WAT     H214163   5.627   3.137   9.034
 4641WAT      O14164   5.407   7.061   6.800
 4641WAT     H114165   5.420   7.129   6.727
 4641WAT     H214166   5.333   6.999   6.774
 4642WAT      O14167   7.024   5.063   8.859
 4642WAT     H114168   7.111   5.105   8.835
 4642WAT     H214169   7.003   4.990   8.794
 4643WAT      O14170   8.211   9.398   7.381
 4643WAT     H114171   8.289   9.338   7.365
 4643WAT     H214172   8.237   9.469   7.447
 4644WAT      O14173   5.512   1.869   0.159
 4644WAT     H114174   5.592   1.908   0.112
 4644WAT     H214175   5.429   1.912   0.124
 4645WAT      O14176   4.933   9.032   2.679
 4645WAT     H114177   4.986   9.079   2.609
 4645WAT     H214178   4.953   9.073   2.769
 4646WAT      O14179   0.333   5.983   8.595
 4646WAT     H114180   0.400   6.044   8.637
 4646WAT     H214181   0.381   5.905   8.554
 4647WAT      O14182   8.730   6.260   0.180
 4647WAT     H114183   8.661   6.312   0.129
 4647WAT     H214184   8.779   6.200   0.118
 4648WAT      O14185   2.811   0.192   7.165
 4648WAT     H114186   2.822   0.093   7.157
 4648WAT     H214187   2.723   0.213   7.207
 4649WAT      O14188   1.645   7.482   9.121
 4649WAT     H114189   1.604   7.391   9.128
 4649WAT     H214190   1.667   7.516   9.213
 4650WAT      O14191   3.504   3.817   6.757
 4650WAT     H114192   3.599   3.847   6.767
 4650WAT     H214193   3.479   3.760   6.836
 4651WAT      O14194   6.420   5.439   9.671
 4651WAT     H114195   6.342   5.378   9.660
 4651WAT     H214196   6.463   5.456   9.583
 4652WAT      O14197   2.045   4.883   2.314
 4652WAT     H114198   2.031   4.784   2.307
 4652WAT     H214199   2.113   4.912   2.246
 4653WAT      O14200   0.761   5.867   9.353
 4653WAT     H114201   0.836   5.872   9.288
 4653WAT     H214202   0.774   5.936   9.425
 4654WAT      O14203   4.629   3.083   2.939
 4654WAT     H114204   4.666   3.077   3.032
 4654WAT     H214205   4.549   3.142   2.937
 4655WAT      O14206   4.263   6.399   4.453
 4655WAT     H114207   4.209   6.471   4.496
 4655WAT     H214208   4.273   6.418   4.356
 4656WAT      O14209   7.502   2.706   1.561
 4656WAT     H114210   7.422   2.712   1.501
 4656WAT     H214211   7.540   2.798   1.574
 4657WAT      O14212   5.666   8.350   5.590
 4657WAT     H114213   5.573   8.318   5.609
 4657WAT     H214214   5.670   8.449   5.602
 4658WAT      O14215   1.223   0.961   0.900
 4658WAT     H114216   1.155   0.921   0.838
 4658WAT     H214217   1.279   1.027   0.850
 4659WAT      O14218   6.047   2.837   0.376
 4659WAT     H114219   5.972   2.862   0.437
 4659WAT     H214220   6.024   2.754   0.326
 4660WAT      O14221   0.033   4.844   4.345
 4660WAT     H114222  -0.004   4.925   4.300
 4660WAT     H214223   0.002   4.841   4.440
 4661WAT      O14224   8.569   3.625   6.660
 4661WAT     H114225   8.480   3.650   6.621
 4661WAT     H214226   8.642   3.651   6.596
 4662WAT      O14227   5.351   0.314   1.693
 4662WAT     H114228   5.343   0.248   1.768
 4662WAT     H214229   5.297   0.283   1.615
 4663WAT      O14230   1.439   4.380   8.565
 4663WAT     H114231   1.360   4.366   8.625
 4663WAT     H214232   1.410   4.383   8.470
 4664WAT      O14233   5.018   5.851   4.445
 4664WAT     H114234   5.021   5.868   4.544
 4664WAT     H214235   5.080   5.776   4.423
 4665WAT      O14236   6.007   8.297   6.120
 4665WAT     H114237   5.949   8.216   6.120
 4665WAT     H214238   6.101   8.270   6.098
 4666WAT      O14239   7.633   3.544   3.396
 4666WAT     H114240   7.674   3.614   3.338
 4666WAT     H214241   7.539   3.528   3.366
 4667WAT      O14242   9.844   1.901   1.229
 4667WAT     H114243   9.917   1.934   1.169
 4667WAT     H214244   9.794   1.980   1.266
 4668WAT      O14245   4.695   2.235   2.257
 4668WAT     H114246   4.756   2.314   2.263
 4668WAT     H214247   4.737   2.157   2.301
 4669WAT      O14248   1.308   5.548   1.069
 4669WAT     H114249   1.374   5.473   1.073
 4669WAT     H214250   1.291   5.583   1.161
 4670WAT      O14251   0.553   2.557   7.696
 4670WAT     H114252   0.560   2.520   7.604
 4670WAT     H214253   0.548   2.482   7.762
 4671WAT      O14254   3.729   1.703   7.040
 4671WAT     H114255   3.819   1.745   7.041
 4671WAT     H214256   3.737   1.605   7.060
 4672WAT      O14257   9.327   2.818   2.981
 4672WAT     H114258   9.421   2.851   2.994
 4672WAT     H214259   9.306   2.748   3.048
 4673WAT      O14260   6.094   0.666   5.068
 4673WAT     H114261   6.078   0.749   5.015
 4673WAT     H214262   6.124   0.592   5.007
 4674WAT      O14263   3.121   7.159   8.354
 4674WAT     H114264   3.181   7.123   8.426
 4674WAT     H214265   3.040   7.201   8.396
 4675WAT      O14266   0.354   5.907   4.209
 4675WAT     H114267   0.279   5.940   4.267
 4675WAT     H214268   0.335   5.932   4.114
 4676WAT      O14269   6.530   4.506   7.427
 4676WAT     H114270   6.480   4.480   7.345
 4676WAT     H214271   6.567   4.424   7.472
 4677WAT      O14272   6.199   0.639   0.972
 4677WAT     H114273   6.166   0.721   1.018
 4677WAT     H214274   6.145   0.560   1.002
 4678WAT      O14275   9.758   5.986   5.230
 4678WAT     H114276   9.733   5.951   5.139
 4678WAT     H214277   9.764   5.910   5.295
 4679WAT      O14278   8.462   5.183   8.281
 4679WAT     H114279   8.489   5.151   8.372
 4679WAT     H214280   8.374   5.143   8.257
 4680WAT      O14281   6.159   8.710   5.655
 4680WAT     H114282   6.059   8.709   5.659
 4680WAT     H214283   6.193   8.618   5.636
 4681WAT      O14284   6.534   5.860   9.574
 4681WAT     H114285   6.460   5.820   9.521
 4681WAT     H214286   6.530   5.826   9.668
 4682WAT      O14287   1.865   6.434   2.846
 4682WAT     H114288   1.890   6.530   2.844
 4682WAT     H214289   1.794   6.419   2.914
 4683WAT      O14290   7.532   1.818   5.572
 4683WAT     H114291   7.611   1.878   5.566
 4683WAT     H214292   7.512   1.781   5.481
 4684WAT      O14293   9.618   1.477   9.375
 4684WAT     H114294   9.536   1.438   9.418
 4684WAT     H214295   9.623   1.448   9.279
 4685WAT      O14296   1.958   6.620   9.222
 4685WAT     H114297   1.865   6.589   9.242
 4685WAT     H214298   2.001   6.650   9.307
 4686WAT      O14299   8.713   7.299   1.430
 4686WAT     H114300   8.781   7.327   1.499
 4686WAT     H214301   8.714   7.365   1.355
 4687WAT      O14302   6.614   4.565   6.424
 4687WAT     H114303   6.578   4.521   6.342
 4687WAT     H214304   6.606   4.665   6.414
 4688WAT      O14305   0.453   8.526   8.405
 4688WAT     H114306   0.509   8.567   8.477
 4688WAT     H214307   0.359   8.559   8.413
 4689WAT      O14308   4.958   3.683   5.963
 4689WAT     H114309   4.914   3.625   5.895
 4689WAT     H214310   4.935   3.651   6.055
 4690WAT      O14311   0.334   0.902   2.883
 4690WAT     H114312   0.258   0.837   2.887
 4690WAT     H214313   0.400   0.871   2.815
 4691WAT      O14314   5.846   0.715   7.699
 4691WAT     H114315   5.829   0.688   7.604
 4691WAT     H214316   5.815   0.642   7.760
 4692WAT      O14317   0.979   4.562   0.468
 4692WAT     H114318   1.076   4.545   0.454
 4692WAT     H214319   0.926   4.502   0.407
 4693WAT      O14320   6.672   7.255   1.739
 4693WAT     H114321   6.744   7.185   1.737
 4693WAT     H214322   6.594   7.222   1.792
 4694WAT      O14323   0.439   3.109   2.121
 4694WAT     H114324   0.481   3.114   2.030
 4694WAT     H214325   0.476   3.030   2.170
 4695WAT      O14326   4.049   2.180   2.205
 4695WAT     H114327   4.122   2.143   2.261
 4695WAT     H214328   3.978   2.111   2.192
 4696WAT      O14329   3.146   9.454   2.914
 4696WAT     H114330   3.211   9.385   2.883
 4696WAT     H214331   3.112   9.506   2.835
 4697WAT      O14332   9.453   5.494   8.020
 4697WAT     H114333   9.437   5.397   8.001
 4697WAT     H214334   9.392   5.550   7.962
 4698WAT      O14335   1.163   5.410   8.066
 4698WAT     H114336   1.069   5.443   8.059
 4698WAT     H214337   1.221   5.463   8.005
 4699WAT      O14338   6.656   2.916   4.757
 4699WAT     H114339   6.605   2.873   4.832
 4699WAT     H214340   6.598   2.923   4.676
 4700WAT      O14341   5.191   4.145   6.174
 4700WAT     H114342   5.260   4.073   6.165
 4700WAT     H214343   5.100   4.106   6.162
 4701WAT      O14344   8.384   0.836   4.770
 4701WAT     H114345   8.455   0.880   4.824
 4701WAT     H214346   8.401   0.738   4.766
 4702WAT      O14347   3.466   6.895   6.240
 4702WAT     H114348   3.392   6.875   6.304
 4702WAT     H214349   3.533   6.955   6.283
 4703WAT      O14350   3.282   7.257   4.723
 4703WAT     H114351   3.190   7.293   4.705
 4703WAT     H214352   3.349   7.331   4.720
 4704WAT      O14353   6.770   2.558   3.423
 4704WAT     H114354   6.693   2.610   3.388
 4704WAT     H214355   6.793   2.591   3.515
 4705WAT      O14356   1.133   0.434   3.827
 4705WAT     H114357   1.104   0.338   3.834
 4705WAT     H214358   1.153   0.469   3.918
 4706WAT      O14359   7.706   3.986   6.053
 4706WAT     H114360   7.640   3.942   6.114
 4706WAT     H214361   7.687   4.084   6.049
 4707WAT      O14362   4.639   4.950   0.751
 4707WAT     H114363   4.565   5.017   0.743
 4707WAT     H214364   4.651   4.924   0.847
 4708WAT      O14365   6.653   5.815   7.860
 4708WAT     H114366   6.588   5.808   7.785
 4708WAT     H214367   6.647   5.907   7.901
 4709WAT      O14368   9.477   8.539   1.067
 4709WAT     H114369   9.558   8.557   1.011
 4709WAT     H214370   9.496   8.563   1.162
 4710WAT      O14371   5.420   7.363   4.864
 4710WAT     H114372   5.447   7.274   4.827
 4710WAT     H214373   5.488   7.432   4.837
 4711WAT      O14374   1.124   0.110   0.094
 4711WAT     H114375   1.070   0.168   0.156
 4711WAT     H214376   1.106   0.137  -0.001
 4712WAT      O14377   0.272   4.204   5.398
 4712WAT     H114378   0.186   4.165   5.429
 4712WAT     H214379   0.333   4.131   5.367
 4713WAT      O14380   0.662   8.501   6.045
 4713WAT     H114381   0.755   8.519   6.013
 4713WAT     H214382   0.601   8.490   5.967
 4714WAT      O14383   7.601   9.456   2.043
 4714WAT     H114384   7.538   9.382   2.065
 4714WAT     H214385   7.688   9.441   2.090
 4715WAT      O14386   2.986   3.757   4.561
 4715WAT     H114387   2.947   3.814   4.634
 4715WAT     H214388   3.082   3.738   4.581
 4716WAT      O14389   6.815   0.660   1.401
 4716WAT     H114390   6.723   0.631   1.429
 4716WAT     H214391   6.882   0.611   1.456
 4717WAT      O14392   4.759   2.508   0.346
 4717WAT     H114393   4.665   2.542   0.341
 4717WAT     H214394   4.795   2.521   0.438
 4718WAT      O14395   9.529   2.468   8.261
 4718WAT     H114396   9.562   2.375   8.276
 4718WAT     H214397   9.519   2.484   8.162
 4719WAT      O14398   8.876   1.675   6.378
 4719WAT     H114399   8.853   1.716   6.289
 4719WAT     H214400   8.877   1.576   6.369
 4720WAT      O14401   2.912   4.932   8.044
 4720WAT     H114402   2.875   4.844   8.074
 4720WAT     H214403   2.886   5.003   8.109
 4721WAT      O14404   7.762   8.576   1.743
 4721WAT     H114405   7.800   8.490   1.780
 4721WAT     H214406   7.783   8.582   1.645
 4722WAT      O14407   1.788   5.775   2.843
 4722WAT     H114408   1.805   5.692   2.897
 4722WAT     H214409   1.866   5.836   2.852
 4723WAT      O14410   5.432   9.178   2.140
 4723WAT     H114411   5.391   9.234   2.212
 4723WAT     H214412   5.475   9.237   2.072
 4724WAT      O14413   6.731   5.606   8.374
 4724WAT     H114414   6.793   5.676   8.409
 4724WAT     H214415   6.656   5.650   8.324
 4725WAT      O14416   1.000   6.171   7.701
 4725WAT     H114417   1.048   6.157   7.788
 4725WAT     H214418   1.064   6.211   7.634
 4726WAT      O14419   0.403   6.613   6.877
 4726WAT     H114420   0.495   6.597   6.912
 4726WAT     H214421   0.358   6.684   6.932
 4727WAT      O14422   9.644   9.661   5.070
 4727WAT     H114423   9.738   9.693   5.071
 4727WAT     H214424   9.617   9.631   5.161
 4728WAT      O14425   0.010   2.091   9.155
 4728WAT     H114426   0.020   2.088   9.056
 4728WAT     H214427   0.090   2.137   9.195
 4729WAT      O14428   4.371   1.640   0.922
 4729WAT     H114429   4.355   1.543   0.907
 4729WAT     H214430   4.465   1.653   0.954
 4730WAT      O14431   2.318   4.895   5.878
 4730WAT     H114432   2.301   4.959   5.953
 4730WAT     H214433   2.313   4.943   5.790
 4731WAT      O14434   5.734   9.373   8.857
 4731WAT     H114435   5.802   9.372   8.784
 4731WAT     H214436   5.770   9.426   8.934
 4732WAT      O14437   5.205   9.292   3.835
 4732WAT     H114438   5.187   9.213   3.893
 4732WAT     H214439   5.157   9.372   3.871
 4733WAT      O14440   3.557   1.702   2.910
 4733WAT     H114441   3.600   1.613   2.898
 4733WAT     H214442   3.621   1.765   2.953
 4734WAT      O14443   9.862   9.212   1.192
 4734WAT     H114444   9.786   9.206   1.127
 4734WAT     H214445   9.946   9.234   1.144
 4735WAT      O14446   6.693   0.898   4.671
 4735WAT     H114447   6.616   0.902   4.607
 4735WAT     H214448   6.739   0.810   4.663
 4736WAT      O14449   5.863   3.708   9.657
 4736WAT     H114450   5.841   3.738   9.750
 4736WAT     H214451   5.859   3.786   9.595
 4737WAT      O14452   6.806   2.603   5.339
 4737WAT     H114453   6.721   2.640   5.302
 4737WAT     H214454   6.811   2.505   5.319
 4738WAT      O14455   0.903   2.978   4.970
 4738WAT     H114456   0.830   2.921   4.932
 4738WAT     H214457   0.984   2.972   4.912
 4739WAT      O14458   4.643   3.804   6.827
 4739WAT     H114459   4.712   3.771   6.761
 4739WAT     H214460   4.572   3.734   6.837
 4740WAT      O14461   5.129   2.458   7.735
 4740WAT     H114462   5.217   2.446   7.688
 4740WAT     H214463   5.092   2.548   7.713
 4741WAT      O14464   2.079   9.713   5.564
 4741WAT     H114465   2.003   9.651   5.542
 4741WAT     H214466   2.055   9.766   5.646
 4742WAT      O14467   9.654   0.273   3.693
 4742WAT     H114468   9.657   0.183   3.736
 4742WAT     H214469   9.747   0.304   3.673
 4743WAT      O14470   9.195   6.517   1.197
 4743WAT     H114471   9.188   6.420   1.222
 4743WAT     H214472   9.117   6.541   1.139
 4744WAT      O14473   8.655   1.634   0.198
 4744WAT     H114474   8.663   1.643   0.297
 4744WAT     H214475   8.697   1.548   0.169
 4745WAT      O14476   4.549   3.401   4.904
 4745WAT     H114477   4.541   3.380   5.001
 4745WAT     H214478   4.594   3.324   4.857
 4746WAT      O14479   3.673   3.795   1.089
 4746WAT     H114480   3.617   3.712   1.089
 4746WAT     H214481   3.621   3.870   1.048
 4747WAT      O14482   3.853   2.569   2.353
 4747WAT     H114483   3.791   2.643   2.380
 4747WAT     H214484   3.935   2.571   2.410
 4748WAT      O14485   8.037   9.728   7.644
 4748WAT     H114486   8.008   9.645   7.692
 4748WAT     H214487   8.000   9.808   7.690
 4749WAT      O14488   0.436   6.152   6.840
 4749WAT     H114489   0.416   6.079   6.906
 4749WAT     H214490   0.496   6.117   6.768
 4750WAT      O14491   6.611   8.403   7.147
 4750WAT     H114492   6.576   8.388   7.239
 4750WAT     H214493   6.673   8.328   7.122
 4751WAT      O14494   4.094   2.515   5.010
 4751WAT     H114495   4.081   2.503   4.911
 4751WAT     H214496   4.191   2.505   5.032
 4752WAT      O14497   7.660   9.173   3.188
 4752WAT     H114498   7.631   9.260   3.228
 4752WAT     H214499   7.717   9.124   3.254
 4753WAT      O14500   7.017   0.506   8.354
 4753WAT     H114501   7.104   0.520   8.400
 4753WAT     H214502   6.948   0.565   8.396
 4754WAT      O14503   1.211   2.842   4.598
 4754WAT     H114504   1.268   2.778   4.546
 4754WAT     H214505   1.132   2.868   4.543
 4755WAT      O14506   3.158   0.092   5.014
 4755WAT     H114507   3.185   0.030   4.941
 4755WAT     H214508   3.187   0.054   5.102
 4756WAT      O14509   6.491   2.048   2.628
 4756WAT     H114510   6.565   2.103   2.666
 4756WAT     H214511   6.528   1.966   2.585
 4757WAT      O14512   3.025   0.265   0.563
 4757WAT     H114513   3.123   0.256   0.548
 4757WAT     H214514   3.003   0.360   0.584
 4758WAT      O14515   1.588   5.852   7.574
 4758WAT     H114516   1.514   5.870   7.509
 4758WAT     H214517   1.579   5.913   7.652
 4759WAT      O14518   9.223   8.432   1.669
 4759WAT     H114519   9.212   8.435   1.570
 4759WAT     H214520   9.155   8.370   1.708
 4760WAT      O14521   7.716   8.014   0.268
 4760WAT     H114522   7.665   7.991   0.351
 4760WAT     H214523   7.662   7.990   0.188
 4761WAT      O14524   1.526   5.664   7.302
 4761WAT     H114525   1.604   5.718   7.270
 4761WAT     H214526   1.557   5.598   7.370
 4762WAT      O14527   3.583   4.171   8.211
 4762WAT     H114528   3.669   4.142   8.169
 4762WAT     H214529   3.601   4.246   8.275
 4763WAT      O14530   8.915   2.686   4.973
 4763WAT     H114531   8.836   2.651   4.921
 4763WAT     H214532   8.915   2.644   5.064
 4764WAT      O14533   8.144   4.302   6.706
 4764WAT     H114534   8.079   4.351   6.763
 4764WAT     H214535   8.094   4.252   6.635
 4765WAT      O14536   8.565   8.395   1.938
 4765WAT     H114537   8.665   8.405   1.940
 4765WAT     H214538   8.539   8.314   1.990
 4766WAT      O14539   4.993   9.216   9.336
 4766WAT     H114540   5.002   9.267   9.250
 4766WAT     H214541   4.989   9.281   9.412
 4767WAT      O14542   2.163   4.809   6.737
 4767WAT     H114543   2.073   4.796   6.780
 4767WAT     H214544   2.199   4.719   6.710
 4768WAT      O14545   3.305   4.584   9.058
 4768WAT     H114546   3.361   4.664   9.079
 4768WAT     H214547   3.364   4.511   9.022
 4769WAT      O14548   4.789   8.979   0.708
 4769WAT     H114549   4.779   9.078   0.699
 4769WAT     H214550   4.701   8.934   0.693
 4770WAT      O14551   9.612   2.758   3.569
 4770WAT     H114552   9.689   2.799   3.521
 4770WAT     H214553   9.539   2.738   3.503
 4771WAT      O14554   6.019   8.453   0.214
 4771WAT     H114555   6.107   8.432   0.256
 4771WAT     H214556   5.946   8.436   0.281
 4772WAT      O14557   3.868   8.999   6.388
 4772WAT     H114558   3.803   8.930   6.355
 4772WAT     H214559   3.818   9.083   6.411
 4773WAT      O14560   2.618   8.368   6.347
 4773WAT     H114561   2.606   8.436   6.419
 4773WAT     H214562   2.544   8.301   6.352
 4774WAT      O14563   7.650   3.954   8.307
 4774WAT     H114564   7.646   4.042   8.354
 4774WAT     H214565   7.728   3.901   8.340
 4775WAT      O14566   6.981   8.073   1.898
 4775WAT     H114567   7.057   8.114   1.848
 4775WAT     H214568   6.922   8.146   1.933
 4776WAT      O14569   4.793   6.959   7.580
 4776WAT     H114570   4.699   6.926   7.575
 4776WAT     H214571   4.793   7.059   7.587
 4777WAT      O14572   1.110   0.438   5.031
 4777WAT     H114573   1.018   0.441   4.992
 4777WAT     H214574   1.119   0.355   5.087
 4778WAT      O14575   4.014   8.611   8.613
 4778WAT     H114576   3.939   8.674   8.636
 4778WAT     H214577   4.101   8.654   8.635
 4779WAT      O14578   8.226   4.072   1.921
 4779WAT     H114579   8.215   4.040   1.827
 4779WAT     H214580   8.239   4.172   1.921
 4780WAT      O14581   7.334   3.506   3.791
 4780WAT     H114582   7.246   3.493   3.745
 4780WAT     H214583   7.374   3.417   3.815
 4781WAT      O14584   0.359   8.428   0.903
 4781WAT     H114585   0.261   8.444   0.906
 4781WAT     H214586   0.406   8.499   0.955
 4782WAT      O14587   2.109   7.401   7.886
 4782WAT     H114588   2.106   7.301   7.889
 4782WAT     H214589   2.132   7.437   7.976
 4783WAT      O14590   6.447   6.243   1.821
 4783WAT     H114591   6.446   6.145   1.797
 4783WAT     H214592   6.535   6.265   1.863
 4784WAT      O14593   8.341   0.722   7.509
 4784WAT     H114594   8.283   0.684   7.581
 4784WAT     H214595   8.285   0.743   7.428
 4785WAT      O14596   2.849   9.813   2.587
 4785WAT     H114597   2.899   9.777   2.509
 4785WAT     H214598   2.752   9.820   2.565
 4786WAT      O14599   1.079   7.805   5.511
 4786WAT     H114600   0.994   7.857   5.521
 4786WAT     H214601   1.147   7.837   5.577
 4787WAT      O14602   1.300   1.157   0.512
 4787WAT     H114603   1.269   1.076   0.462
 4787WAT     H214604   1.273   1.239   0.463
 4788WAT      O14605   4.339   7.903   4.043
 4788WAT     H114606   4.408   7.882   4.112
 4788WAT     H214607   4.250   7.911   4.087
 4789WAT      O14608   1.744   6.941   9.256
 4789WAT     H114609   1.653   6.913   9.225
 4789WAT     H214610   1.770   6.887   9.335
 4790WAT      O14611   6.009   1.767   6.964
 4790WAT     H114612   5.934   1.801   7.020
 4790WAT     H214613   5.977   1.694   6.904
 4791WAT      O14614   0.700   6.453   7.129
 4791WAT     H114615   0.607   6.421   7.109
 4791WAT     H214616   0.756   6.375   7.157
 4792WAT      O14617   7.121   0.788   0.374
 4792WAT     H114618   7.068   0.854   0.322
 4792WAT     H214619   7.153   0.829   0.459
 4793WAT      O14620   3.861   0.314   1.937
 4793WAT     H114621   3.828   0.269   2.020
 4793WAT     H214622   3.952   0.281   1.915
 4794WAT      O14623   1.985   5.558   5.874
 4794WAT     H114624   1.955   5.533   5.782
 4794WAT     H214625   2.085   5.564   5.876
 4795WAT      O14626   5.452   0.661   5.777
 4795WAT     H114627   5.439   0.712   5.862
 4795WAT     H214628   5.411   0.570   5.786
 4796WAT      O14629   4.208   9.390   1.733
 4796WAT     H114630   4.175   9.422   1.644
 4796WAT     H214631   4.282   9.324   1.719
 4797WAT      O14632   8.286   7.835   5.760
 4797WAT     H114633   8.305   7.737   5.755
 4797WAT     H214634   8.210   7.851   5.822
 4798WAT      O14635   8.635   4.280   1.425
 4798WAT     H114636   8.621   4.332   1.340
 4798WAT     H214637   8.676   4.340   1.494
 4799WAT      O14638   1.693   0.333   2.988
 4799WAT     H114639   1.645   0.252   3.021
 4799WAT     H214640   1.667   0.351   2.893
 4800WAT      O14641   3.434   8.517   8.878
 4800WAT     H114642   3.384   8.572   8.811
 4800WAT     H214643   3.527   8.501   8.845
 4801WAT      O14644   4.551   1.808   8.965
 4801WAT     H114645   4.506   1.860   9.037
 4801WAT     H214646   4.586   1.871   8.895
 4802WAT      O14647   9.783   4.687   6.543
 4802WAT     H114648   9.718   4.741   6.490
 4802WAT     H214649   9.839   4.748   6.599
 4803WAT      O14650   7.077   3.355   8.421
 4803WAT     H114651   7.079   3.420   8.345
 4803WAT     H214652   7.161   3.365   8.475
 4804WAT      O14653   3.978   5.859   3.051
 4804WAT     H114654   3.900   5.859   3.113
 4804WAT     H214655   4.061   5.884   3.102
 4805WAT      O14656   3.377   1.766   5.702
 4805WAT     H114657   3.416   1.731   5.618
 4805WAT     H214658   3.278   1.751   5.702
 4806WAT      O14659   8.858   3.332   1.800
 4806WAT     H114660   8.952   3.364   1.794
 4806WAT     H214661   8.837   3.307   1.894
 4807WAT      O14662   6.941   0.978   5.532
 4807WAT     H114663   6.900   1.049   5.590
 4807WAT     H214664   7.020   0.938   5.579
 4808WAT      O14665   1.715   9.654   1.178
 4808WAT     H114666   1.707   9.669   1.276
 4808WAT     H214667   1.756   9.564   1.160
 4809WAT      O14668   5.497   7.841   7.705
 4809WAT     H114669   5.410   7.824   7.658
 4809WAT     H214670   5.548   7.912   7.657
 4810WAT      O14671   3.727   9.406   1.368
 4810WAT     H114672   3.777   9.348   1.304
 4810WAT     H214673   3.642   9.436   1.326
 4811WAT      O14674   4.537   9.560   3.610
 4811WAT     H114675   4.491   9.498   3.546
 4811WAT     H214676   4.623   9.592   3.570
 4812WAT      O14677   5.911   3.922   3.414
 4812WAT     H114678   5.960   4.009   3.411
 4812WAT     H214679   5.971   3.849   3.382
 4813WAT      O14680   5.988   3.619   5.710
 4813WAT     H114681   5.959   3.638   5.804
 4813WAT     H214682   5.989   3.705   5.658
 4814WAT      O14683   5.585   5.192   7.508
 4814WAT     H114684   5.608   5.109   7.560
 4814WAT     H214685   5.660   5.258   7.516
 4815WAT      O14686   4.277   3.590   1.424
 4815WAT     H114687   4.320   3.627   1.506
 4815WAT     H214688   4.347   3.552   1.363
 4816WAT      O14689   8.679   7.854   2.529
 4816WAT     H114690   8.583   7.854   2.557
 4816WAT     H214691   8.691   7.909   2.447
 4817WAT      O14692   4.175   8.191   2.247
 4817WAT     H114693   4.100   8.126   2.255
 4817WAT     H214694   4.262   8.143   2.262
 4818WAT      O14695   3.478   4.965   5.446
 4818WAT     H114696   3.467   4.882   5.392
 4818WAT     H214697   3.475   5.045   5.385
 4819WAT      O14698   5.449   5.081   2.210
 4819WAT     H114699   5.494   5.024   2.279
 4819WAT     H214700   5.373   5.030   2.169
 4820WAT      O14701   1.578   0.724   5.480
 4820WAT     H114702   1.530   0.798   5.433
 4820WAT     H214703   1.647   0.685   5.420
 4821WAT      O14704   5.825   6.288   6.465
 4821WAT     H114705   5.810   6.382   6.432
 4821WAT     H214706   5.913   6.255   6.431
 4822WAT      O14707   5.670   8.954   3.104
 4822WAT     H114708   5.665   8.999   3.194
 4822WAT     H214709   5.592   8.982   3.049
 4823WAT      O14710   9.105   8.337   3.212
 4823WAT     H114711   9.118   8.328   3.113
 4823WAT     H214712   9.053   8.258   3.246
 4824WAT      O14713   7.949   1.127   4.842
 4824WAT     H114714   7.899   1.042   4.826
 4824WAT     H214715   7.884   1.201   4.861
 4825WAT      O14716   7.680   5.429   0.239
 4825WAT     H114717   7.773   5.458   0.219
 4825WAT     H214718   7.678   5.380   0.326
 4826WAT      O14719   8.059   9.426   6.101
 4826WAT     H114720   8.132   9.438   6.034
 4826WAT     H214721   7.995   9.503   6.096
 4827WAT      O14722   8.681   4.552   5.830
 4827WAT     H114723   8.695   4.453   5.842
 4827WAT     H214724   8.762   4.601   5.863
 4828WAT      O14725   0.046   1.079   5.913
 4828WAT     H114726  -0.031   1.127   5.955
 4828WAT     H214727   0.022   1.054   5.819
 4829WAT      O14728   2.857   2.626   7.957
 4829WAT     H114729   2.861   2.548   7.895
 4829WAT     H214730   2.789   2.691   7.925
 4830WAT      O14731   3.170   5.538   8.583
 4830WAT     H114732   3.220   5.475   8.524
 4830WAT     H214733   3.155   5.496   8.672
 4831WAT      O14734   3.867   3.413   0.795
 4831WAT     H114735   3.874   3.511   0.777
 4831WAT     H214736   3.798   3.397   0.866
 4832WAT      O14737   4.583   3.086   6.333
 4832WAT     H114738   4.636   3.079   6.249
 4832WAT     H214739   4.578   2.996   6.377
 4833WAT      O14740   7.357   0.548   3.469
 4833WAT     H114741   7.346   0.480   3.542
 4833WAT     H214742   7.267   0.574   3.434
 4834WAT      O14743   1.840   0.720   7.394
 4834WAT     H114744   1.932   0.680   7.392
 4834WAT     H214745   1.846   0.813   7.430
 4835WAT      O14746   2.189   0.174   2.152
 4835WAT     H114747   2.194   0.091   2.207
 4835WAT     H214748   2.281   0.205   2.131
 4836WAT      O14749   7.489   2.262   4.064
 4836WAT     H114750   7.436   2.262   4.149
 4836WAT     H214751   7.582   2.293   4.083
 4837WAT      O14752   5.603   1.026   8.044
 4837WAT     H114753   5.686   1.069   8.009
 4837WAT     H214754   5.523   1.070   8.005
 4838WAT      O14755   4.692   5.786   0.227
 4838WAT     H114756   4.653   5.748   0.143
 4838WAT     H214757   4.680   5.722   0.302
 4839WAT      O14758   6.115   0.605   2.010
 4839WAT     H114759   6.127   0.510   2.038
 4839WAT     H214760   6.027   0.639   2.043
 4840WAT      O14761   2.680   2.450   8.159
 4840WAT     H114762   2.717   2.489   8.244
 4840WAT     H214763   2.717   2.499   8.081
 4841WAT      O14764   0.749   9.052   4.596
 4841WAT     H114765   0.755   8.960   4.558
 4841WAT     H214766   0.841   9.088   4.611
 4842WAT      O14767   5.875   5.593   2.805
 4842WAT     H114768   5.950   5.658   2.793
 4842WAT     H214769   5.822   5.587   2.721
 4843WAT      O14770   7.721   8.688   8.764
 4843WAT     H114771   7.718   8.788   8.760
 4843WAT     H214772   7.680   8.657   8.850
 4844WAT      O14773   8.797   2.923   3.881
 4844WAT     H114774   8.777   3.018   3.856
 4844WAT     H214775   8.727   2.863   3.842
 4845WAT      O14776   0.479   0.518   8.033
 4845WAT     H114777   0.520   0.508   7.943
 4845WAT     H214778   0.423   0.438   8.054
 4846WAT      O14779   8.886   1.629   4.453
 4846WAT     H114780   8.857   1.704   4.394
 4846WAT     H214781   8.967   1.585   4.415
 4847WAT      O14782   5.760   5.502   7.153
 4847WAT     H114783   5.806   5.548   7.077
 4847WAT     H214784   5.828   5.457   7.211
 4848WAT      O14785   7.789   6.480   6.572
 4848WAT     H114786   7.773   6.450   6.478
 4848WAT     H214787   7.717   6.442   6.632
 4849WAT      O14788   1.528   2.942   2.446
 4849WAT     H114789   1.433   2.969   2.426
 4849WAT     H214790   1.558   2.987   2.530
 4850WAT      O14791   3.023   2.697   3.762
 4850WAT     H114792   2.956   2.740   3.701
 4850WAT     H214793   3.092   2.650   3.708
 4851WAT      O14794   6.293   1.961   5.682
 4851WAT     H114795   6.389   1.971   5.707
 4851WAT     H214796   6.240   2.036   5.720
 4852WAT      O14797   7.216   5.737   7.148
 4852WAT     H114798   7.229   5.829   7.184
 4852WAT     H214799   7.254   5.732   7.056
 4853WAT      O14800   8.333   2.139   6.681
 4853WAT     H114801   8.292   2.216   6.728
 4853WAT     H214802   8.424   2.164   6.649
 4854WAT      O14803   8.641   9.493   4.225
 4854WAT     H114804   8.576   9.425   4.260
 4854WAT     H214805   8.597   9.548   4.153
 4855WAT      O14806   2.676   8.011   0.805
 4855WAT     H114807   2.767   7.982   0.833
 4855WAT     H214808   2.683   8.067   0.722
 4856WAT      O14809   5.316   9.776   9.455
 4856WAT     H114810   5.263   9.795   9.537
 4856WAT     H214811   5.411   9.758   9.481
 4857WAT      O14812   1.612   8.047   6.421
 4857WAT     H114813   1.705   8.040   6.458
 4857WAT     H214814   1.545   8.026   6.492
 4858WAT      O14815   2.550   3.425   3.805
 4858WAT     H114816   2.615   3.350   3.815
 4858WAT     H214817   2.505   3.442   3.893
 4859WAT      O14818   4.162   0.849   5.186
 4859WAT     H114819   4.135   0.880   5.095
 4859WAT     H214820   4.142   0.751   5.196
 4860WAT      O14821   8.097   4.678   4.683
 4860WAT     H114822   8.143   4.627   4.610
 4860WAT     H214823   8.134   4.771   4.687
 4861WAT      O14824   6.038   1.286   0.679
 4861WAT     H114825   5.942   1.261   0.668
 4861WAT     H214826   6.044   1.378   0.718
 4862WAT      O14827   0.463   6.633   8.444
 4862WAT     H114828   0.488   6.700   8.374
 4862WAT     H214829   0.496   6.543   8.418
 4863WAT      O14830   2.774   4.457   2.696
 4863WAT     H114831   2.812   4.373   2.734
 4863WAT     H214832   2.842   4.530   2.700
 4864WAT      O14833   4.628   3.322   1.062
 4864WAT     H114834   4.619   3.268   0.978
 4864WAT     H214835   4.626   3.260   1.141
 4865WAT      O14836   9.458   3.756   9.515
 4865WAT     H114837   9.384   3.816   9.486
 4865WAT     H214838   9.492   3.704   9.437
 4866WAT      O14839   8.239   1.856   1.599
 4866WAT     H114840   8.266   1.947   1.630
 4866WAT     H214841   8.207   1.861   1.505
 4867WAT      O14842   8.008   8.305   9.608
 4867WAT     H114843   8.004   8.264   9.699
 4867WAT     H214844   8.039   8.399   9.615
 4868WAT      O14845   6.112   0.361   4.647
 4868WAT     H114846   6.017   0.361   4.678
 4868WAT     H214847   6.117   0.405   4.557
 4869WAT      O14848   0.146   4.643   0.673
 4869WAT     H114849   0.197   4.719   0.714
 4869WAT     H214850   0.063   4.625   0.727
 4870WAT      O14851   0.922   5.725   2.034
 4870WAT     H114852   0.995   5.701   1.970
 4870WAT     H214853   0.869   5.643   2.055
 4871WAT      O14854   4.033   9.002   6.167
 4871WAT     H114855   4.113   8.942   6.176
 4871WAT     H214856   3.972   8.988   6.245
 4872WAT      O14857   1.884   4.276   6.471
 4872WAT     H114858   1.907   4.334   6.550
 4872WAT     H214859   1.859   4.185   6.503
 4873WAT      O14860   0.255   7.550   7.115
 4873WAT     H114861   0.351   7.558   7.141
 4873WAT     H214862   0.206   7.632   7.146
 4874WAT      O14863   2.402   8.699   2.087
 4874WAT     H114864   2.322   8.643   2.108
 4874WAT     H214865   2.454   8.715   2.171
 4875WAT      O14866   7.583   4.092   0.332
 4875WAT     H114867   7.590   3.997   0.300
 4875WAT     H214868   7.496   4.131   0.300
 4876WAT      O14869   3.068   0.377   1.299
 4876WAT     H114870   3.048   0.283   1.272
 4876WAT     H214871   3.167   0.390   1.305
 4877WAT      O14872   0.559   6.520   0.479
 4877WAT     H114873   0.564   6.619   0.483
 4877WAT     H214874   0.561   6.490   0.384
 4878WAT      O14875   9.287   8.932   5.794
 4878WAT     H114876   9.311   8.836   5.779
 4878WAT     H214877   9.324   8.988   5.720
 4879WAT      O14878   9.482   6.103   5.305
 4879WAT     H114879   9.512   6.197   5.319
 4879WAT     H214880   9.546   6.056   5.244
 4880WAT      O14881   0.533   1.089   5.658
 4880WAT     H114882   0.602   1.020   5.638
 4880WAT     H214883   0.475   1.058   5.733
 4881WAT      O14884   4.119   6.043   6.475
 4881WAT     H114885   4.173   5.997   6.546
 4881WAT     H214886   4.118   6.142   6.493
 4882WAT      O14887   2.819   7.431   7.359
 4882WAT     H114888   2.845   7.338   7.388
 4882WAT     H214889   2.776   7.478   7.436
 4883WAT      O14890   3.328   6.400   8.401
 4883WAT     H114891   3.279   6.329   8.451
 4883WAT     H214892   3.373   6.360   8.321
 4884WAT      O14893   8.873   6.083   0.022
 4884WAT     H114894   8.967   6.075   0.056
 4884WAT     H214895   8.872   6.134  -0.064
 4885WAT      O14896   3.527   2.809   3.424
 4885WAT     H114897   3.447   2.811   3.483
 4885WAT     H214898   3.522   2.729   3.364
 4886WAT      O14899   8.211   8.350   4.482
 4886WAT     H114900   8.190   8.290   4.559
 4886WAT     H214901   8.297   8.322   4.441
 4887WAT      O14902   8.634   9.297   3.815
 4887WAT     H114903   8.632   9.397   3.802
 4887WAT     H214904   8.555   9.268   3.869
 4888WAT      O14905   0.353   0.901   9.378
 4888WAT     H114906   0.285   0.828   9.385
 4888WAT     H214907   0.306   0.989   9.366
 4889WAT      O14908   5.623   3.977   7.071
 4889WAT     H114909   5.618   3.880   7.045
 4889WAT     H214910   5.708   4.016   7.035
 4890WAT      O14911   3.285   8.817   3.852
 4890WAT     H114912   3.280   8.897   3.912
 4890WAT     H214913   3.288   8.734   3.907
 4891WAT      O14914   6.922   0.608   2.593
 4891WAT     H114915   6.860   0.551   2.538
 4891WAT     H214916   6.990   0.650   2.533
 4892WAT      O14917   3.329   2.997   8.307
 4892WAT     H114918   3.380   3.082   8.296
 4892WAT     H214919   3.236   3.017   8.337
 4893WAT      O14920   5.596   1.137   6.002
 4893WAT     H114921   5.686   1.113   6.039
 4893WAT     H214922   5.566   1.224   6.040
 4894WAT      O14923   2.360   0.955   0.341
 4894WAT     H114924   2.433   1.006   0.296
 4894WAT     H214925   2.324   1.009   0.418
 4895WAT      O14926   4.720   0.693   1.366
 4895WAT     H114927   4.646   0.733   1.312
 4895WAT     H214928   4.682   0.645   1.445
 4896WAT      O14929   5.856   7.478   9.200
 4896WAT     H114930   5.864   7.400   9.137
 4896WAT     H214931   5.937   7.483   9.259
 4897WAT      O14932   3.211   1.501   2.162
 4897WAT     H114933   3.258   1.412   2.157
 4897WAT     H214934   3.280   1.573   2.166
 4898WAT      O14935   2.336   3.606   7.315
 4898WAT     H114936   2.292   3.645   7.396
 4898WAT     H214937   2.368   3.680   7.256
 4899WAT      O14938   9.369   8.701   5.995
 4899WAT     H114939   9.409   8.612   5.973
 4899WAT     H214940   9.269   8.693   6.000
 4900WAT      O14941   9.372   3.779   0.735
 4900WAT     H114942   9.425   3.721   0.797
 4900WAT     H214943   9.294   3.727   0.699
 4901WAT      O14944   4.172   1.404   8.779
 4901WAT     H114945   4.176   1.304   8.768
 4901WAT     H214946   4.125   1.426   8.864
 4902WAT      O14947   0.788   7.925   7.257
 4902WAT     H114948   0.887   7.915   7.246
 4902WAT     H214949   0.769   8.010   7.307
 4903WAT      O14950   1.532   4.321   3.604
 4903WAT     H114951   1.594   4.377   3.550
 4903WAT     H214952   1.577   4.292   3.689
 4904WAT      O14953   1.335   8.078   7.526
 4904WAT     H114954   1.384   8.155   7.567
 4904WAT     H214955   1.259   8.051   7.585
 4905WAT      O14956   9.366   3.890   6.485
 4905WAT     H114957   9.459   3.866   6.514
 4905WAT     H214958   9.349   3.986   6.506
 4906WAT      O14959   0.651   9.715   5.410
 4906WAT     H114960   0.710   9.771   5.352
 4906WAT     H214961   0.569   9.689   5.359
 4907WAT      O14962   1.979   6.052   1.810
 4907WAT     H114963   1.993   5.979   1.877
 4907WAT     H214964   2.009   6.020   1.720
 4908WAT      O14965   2.453   9.514   4.317
 4908WAT     H114966   2.386   9.491   4.387
 4908WAT     H214967   2.417   9.588   4.260
 4909WAT      O14968   5.012   0.548   8.041
 4909WAT     H114969   4.963   0.496   7.971
 4909WAT     H214970   4.946   0.591   8.102
 4910WAT      O14971   3.872   7.821   3.034
 4910WAT     H114972   3.814   7.821   3.116
 4910WAT     H214973   3.821   7.860   2.957
 4911WAT      O14974   5.150   4.229   1.265
 4911WAT     H114975   5.162   4.324   1.236
 4911WAT     H214976   5.231   4.199   1.315
 4912WAT      O14977   5.863   3.253   3.001
 4912WAT     H114978   5.875   3.306   2.918
 4912WAT     H214979   5.933   3.181   3.006
 4913WAT      O14980   6.416   6.961   8.516
 4913WAT     H114981   6.430   6.887   8.450
 4913WAT     H214982   6.499   7.017   8.522
 4914WAT      O14983   9.697   0.904   5.160
 4914WAT     H114984   9.748   0.930   5.242
 4914WAT     H214985   9.646   0.983   5.127
 4915WAT      O14986   7.215   2.415   0.056
 4915WAT     H114987   7.116   2.402   0.056
 4915WAT     H214988   7.236   2.510   0.035
 4916WAT      O14989   4.019   7.017   3.920
 4916WAT     H114990   4.046   6.990   4.012
 4916WAT     H214991   3.921   7.040   3.918
 4917WAT      O14992   5.385   2.404   5.929
 4917WAT     H114993   5.388   2.473   5.857
 4917WAT     H214994   5.459   2.337   5.914
 4918WAT      O14995   4.198   3.527   2.929
 4918WAT     H114996   4.224   3.461   2.999
 4918WAT     H214997   4.164   3.611   2.973
 4919WAT      O14998   8.764   3.392   3.595
 4919WAT     H114999   8.760   3.478   3.647
 4919WAT     H215000   8.708   3.401   3.513
 4920WAT      O15001   3.081   2.058   7.644
 4920WAT     H115002   3.008   2.020   7.586
 4920WAT     H215003   3.150   1.987   7.661
 4921WAT      O15004   1.706   6.797   1.076
 4921WAT     H115005   1.611   6.815   1.051
 4921WAT     H215006   1.711   6.767   1.171
 4922WAT      O15007   2.719   3.345   8.148
 4922WAT     H115008   2.704   3.309   8.240
 4922WAT     H215009   2.781   3.424   8.153
 4923WAT      O15010   6.331   5.260   8.549
 4923WAT     H115011   6.419   5.226   8.517
 4923WAT     H215012   6.333   5.270   8.648
 4924WAT      O15013   2.247   2.162   8.462
 4924WAT     H115014   2.346   2.160   8.476
 4924WAT     H215015   2.202   2.197   8.544
 4925WAT      O15016   4.903   3.334   6.136
 4925WAT     H115017   4.877   3.244   6.171
 4925WAT     H215018   4.997   3.330   6.100
 4926WAT      O15019   1.212   0.952   5.804
 4926WAT     H115020   1.291   0.969   5.745
 4926WAT     H215021   1.128   0.975   5.755
 4927WAT      O15022   0.314   1.088   1.263
 4927WAT     H115023   0.368   1.172   1.269
 4927WAT     H215024   0.296   1.054   1.356
 4928WAT      O15025   5.897   4.395   0.932
 4928WAT     H115026   5.853   4.307   0.916
 4928WAT     H215027   5.985   4.397   0.886
 4929WAT      O15028   6.620   5.027   8.949
 4929WAT     H115029   6.573   5.114   8.930
 4929WAT     H215030   6.654   5.028   9.043
 4930WAT      O15031   2.032   9.542   9.204
 4930WAT     H115032   2.080   9.515   9.121
 4930WAT     H215033   2.006   9.638   9.197
 4931WAT      O15034   9.730   3.719   6.072
 4931WAT     H115035   9.745   3.661   6.152
 4931WAT     H215036   9.666   3.792   6.095
 4932WAT      O15037   7.026   0.260   5.540
 4932WAT     H115038   6.965   0.243   5.463
 4932WAT     H215039   6.977   0.243   5.626
 4933WAT      O15040   2.774   1.007   6.800
 4933WAT     H115041   2.792   1.079   6.868
 4933WAT     H215042   2.727   1.046   6.722
 4934WAT      O15043   8.313   6.682   1.538
 4934WAT     H115044   8.267   6.596   1.518
 4934WAT     H215045   8.381   6.668   1.610
 4935WAT      O15046   7.563   0.974   7.064
 4935WAT     H115047   7.558   0.927   7.152
 4935WAT     H215048   7.554   1.073   7.078
 4936WAT      O15049   9.637   2.500   6.754
 4936WAT     H115050   9.736   2.488   6.767
 4936WAT     H215051   9.611   2.591   6.787
 4937WAT      O15052   4.597   6.561   4.268
 4937WAT     H115053   4.626   6.645   4.221
 4937WAT     H215054   4.572   6.582   4.362
 4938WAT      O15055   3.661   7.541   3.569
 4938WAT     H115056   3.700   7.558   3.478
 4938WAT     H215057   3.691   7.612   3.632
 4939WAT      O15058   0.378   4.398   6.588
 4939WAT     H115059   0.355   4.330   6.518
 4939WAT     H215060   0.298   4.416   6.644
 4940WAT      O15061   8.297   7.842   9.147
 4940WAT     H115062   8.332   7.808   9.060
 4940WAT     H215063   8.197   7.838   9.147
 4941WAT      O15064   1.686   9.567   7.961
 4941WAT     H115065   1.658   9.482   7.915
 4941WAT     H215066   1.771   9.600   7.920
 4942WAT      O15067   2.576   4.514   7.696
 4942WAT     H115068   2.562   4.606   7.659
 4942WAT     H215069   2.631   4.520   7.780
 4943WAT      O15070   6.056   2.019   5.373
 4943WAT     H115071   6.110   1.938   5.396
 4943WAT     H215072   5.987   1.995   5.304
 4944WAT      O15073   8.249   5.266   7.683
 4944WAT     H115074   8.175   5.200   7.697
 4944WAT     H215075   8.211   5.350   7.644
 4945WAT      O15076   4.519   5.887   8.476
 4945WAT     H115077   4.527   5.911   8.379
 4945WAT     H215078   4.554   5.794   8.490
 4946WAT      O15079   0.780   1.722   0.756
 4946WAT     H115080   0.799   1.650   0.689
 4946WAT     H215081   0.860   1.738   0.813
 4947WAT      O15082   5.127   9.700   3.910
 4947WAT     H115083   5.136   9.630   3.980
 4947WAT     H215084   5.207   9.760   3.912
 4948WAT      O15085   6.340   0.325   9.387
 4948WAT     H115086   6.397   0.243   9.388
 4948WAT     H215087   6.384   0.395   9.330
 4949WAT      O15088   2.114   9.016   6.523
 4949WAT     H115089   2.025   9.057   6.539
 4949WAT     H215090   2.186   9.083   6.542
 4950WAT      O15091   9.204   4.283   3.394
 4950WAT     H115092   9.266   4.226   3.341
 4950WAT     H215093   9.208   4.256   3.490
 4951WAT      O15094   0.737   1.021   1.841
 4951WAT     H115095   0.779   0.937   1.874
 4951WAT     H215096   0.791   1.100   1.870
 4952WAT      O15097   2.469   9.099   8.831
 4952WAT     H115098   2.529   9.019   8.828
 4952WAT     H215099   2.383   9.074   8.876
 4953WAT      O15100   0.909   0.743   4.238
 4953WAT     H115101   0.882   0.703   4.151
 4953WAT     H215102   0.940   0.671   4.300
 4954WAT      O15103   6.104   9.150   9.398
 4954WAT     H115104   6.059   9.111   9.478
 4954WAT     H215105   6.068   9.242   9.380
 4955WAT      O15106   4.042   4.113   6.288
 4955WAT     H115107   4.113   4.057   6.246
 4955WAT     H215108   4.070   4.209   6.288
 4956WAT      O15109   0.595   0.611   2.307
 4956WAT     H115110   0.505   0.634   2.269
 4956WAT     H215111   0.626   0.685   2.367
 4957WAT      O15112   5.553   3.719   2.985
 4957WAT     H115113   5.480   3.785   2.968
 4957WAT     H215114   5.579   3.721   3.081
 4958WAT      O15115   5.104   7.933   2.063
 4958WAT     H115116   5.012   7.907   2.032
 4958WAT     H215117   5.107   8.031   2.079
 4959WAT      O15118   9.264   8.452   0.944
 4959WAT     H115119   9.272   8.442   0.845
 4959WAT     H215120   9.343   8.502   0.979
 4960WAT      O15121   1.205   6.948   4.732
 4960WAT     H115122   1.257   6.926   4.815
 4960WAT     H215123   1.220   6.878   4.663
 4961WAT      O15124   9.348   7.370   8.204
 4961WAT     H115125   9.351   7.401   8.298
 4961WAT     H215126   9.412   7.424   8.149
 4962WAT      O15127   5.002   8.277   7.255
 4962WAT     H115128   4.963   8.337   7.325
 4962WAT     H215129   4.981   8.182   7.276
 4963WAT      O15130   1.870   4.020   6.499
 4963WAT     H115131   1.861   4.004   6.598
 4963WAT     H215132   1.810   3.958   6.449
 4964WAT      O15133   1.798   4.204   9.345
 4964WAT     H115134   1.868   4.171   9.281
 4964WAT     H215135   1.710   4.210   9.299
 4965WAT      O15136   1.768   6.312   2.533
 4965WAT     H115137   1.767   6.412   2.545
 4965WAT     H215138   1.826   6.288   2.456
 4966WAT      O15139   4.553   3.444   9.839
 4966WAT     H115140   4.625   3.382   9.871
 4966WAT     H215141   4.565   3.460   9.741
 4967WAT      O15142   7.585   0.968   6.072
 4967WAT     H115143   7.681   0.980   6.047
 4967WAT     H215144   7.573   0.985   6.170
 4968WAT      O15145   7.863   9.460   9.189
 4968WAT     H115146   7.768   9.487   9.171
 4968WAT     H215147   7.905   9.428   9.104
 4969WAT      O15148   4.053   4.220   3.246
 4969WAT     H115149   4.099   4.173   3.171
 4969WAT     H215150   3.961   4.246   3.218
 4970WAT      O15151   3.256   6.794   1.583
 4970WAT     H115152   3.304   6.767   1.499
 4970WAT     H215153   3.304   6.872   1.624
 4971WAT      O15154   0.029   9.814   9.625
 4971WAT     H115155   0.050   9.819   9.527
 4971WAT     H215156   0.085   9.880   9.675
 4972WAT      O15157   2.715   7.549   7.592
 4972WAT     H115158   2.708   7.648   7.604
 4972WAT     H215159   2.753   7.508   7.675
 4973WAT      O15160   3.974   9.291   2.592
 4973WAT     H115161   4.068   9.315   2.615
 4973WAT     H215162   3.972   9.206   2.540
 4974WAT      O15163   1.306   7.165   4.971
 4974WAT     H115164   1.304   7.068   4.945
 4974WAT     H215165   1.287   7.174   5.068
 4975WAT      O15166   1.173   0.907   9.189
 4975WAT     H115167   1.258   0.958   9.201
 4975WAT     H215168   1.137   0.924   9.097
 4976WAT      O15169   2.124   3.090   7.841
 4976WAT     H115170   2.091   3.169   7.893
 4976WAT     H215171   2.068   3.010   7.863
 4977WAT      O15172   1.639   1.489   1.018
 4977WAT     H115173   1.697   1.488   0.937
 4977WAT     H215174   1.560   1.430   1.004
 4978WAT      O15175   3.115   1.216   6.216
 4978WAT     H115176   3.141   1.302   6.173
 4978WAT     H215177   3.040   1.174   6.165
 4979WAT      O15178   8.126   0.515   8.684
 4979WAT     H115179   8.168   0.476   8.602
 4979WAT     H215180   8.173   0.600   8.708
 4980WAT      O15181   4.662   0.804   5.278
 4980WAT     H115182   4.721   0.809   5.358
 4980WAT     H215183   4.585   0.743   5.297
 4981WAT      O15184   4.303   5.607   5.183
 4981WAT     H115185   4.384   5.666   5.182
 4981WAT     H215186   4.238   5.642   5.251
 4982WAT      O15187   2.067   1.107   7.279
 4982WAT     H115188   2.162   1.134   7.290
 4982WAT     H215189   2.032   1.143   7.192
 4983WAT      O15190   3.948   7.504   8.699
 4983WAT     H115191   3.864   7.552   8.674
 4983WAT     H215192   3.925   7.424   8.754
 4984WAT      O15193   9.605   5.500   7.667
 4984WAT     H115194   9.601   5.409   7.708
 4984WAT     H215195   9.558   5.565   7.726
 4985WAT      O15196   7.964   7.396   3.567
 4985WAT     H115197   7.879   7.363   3.608
 4985WAT     H215198   7.982   7.489   3.599
 4986WAT      O15199   9.365   2.107   8.565
 4986WAT     H115200   9.421   2.049   8.625
 4986WAT     H215201   9.400   2.201   8.568
 4987WAT      O15202   5.451   9.166   1.203
 4987WAT     H115203   5.477   9.085   1.254
 4987WAT     H215204   5.497   9.246   1.241
 4988WAT      O15205   6.208   9.002   4.567
 4988WAT     H115206   6.160   9.080   4.607
 4988WAT     H215207   6.226   9.020   4.470
 4989WAT      O15208   2.256   9.553   3.207
 4989WAT     H115209   2.347   9.557   3.248
 4989WAT     H215210   2.188   9.542   3.279
 4990WAT      O15211   1.151   6.282   7.504
 4990WAT     H115212   1.203   6.211   7.458
 4990WAT     H215213   1.127   6.355   7.439
 4991WAT      O15214   9.713   3.182   7.585
 4991WAT     H115215   9.769   3.115   7.635
 4991WAT     H215216   9.630   3.137   7.552
 4992WAT      O15217   0.781   3.599   7.475
 4992WAT     H115218   0.787   3.568   7.380
 4992WAT     H215219   0.689   3.581   7.510
 4993WAT      O15220   1.736   8.123   4.743
 4993WAT     H115221   1.659   8.121   4.678
 4993WAT     H215222   1.743   8.034   4.787
 4994WAT      O15223   2.500   0.166   3.647
 4994WAT     H115224   2.547   0.098   3.591
 4994WAT     H215225   2.453   0.121   3.722
 4995WAT      O15226   2.782   9.726   3.687
 4995WAT     H115227   2.765   9.793   3.760
 4995WAT     H215228   2.732   9.642   3.707
 4996WAT      O15229   6.331   6.382   0.294
 4996WAT     H115230   6.265   6.445   0.334
 4996WAT     H215231   6.328   6.295   0.343
 4997WAT      O15232   6.614   9.790   8.115
 4997WAT     H115233   6.650   9.757   8.202
 4997WAT     H215234   6.569   9.878   8.129
 4998WAT      O15235   5.850   6.254   2.056
 4998WAT     H115236   5.755   6.282   2.069
 4998WAT     H215237   5.858   6.200   1.972
 4999WAT      O15238   4.259   0.843   1.396
 4999WAT     H115239   4.211   0.767   1.439
 4999WAT     H215240   4.197   0.920   1.386
 5000WAT      O15241   7.362   1.315   4.597
 5000WAT     H115242   7.374   1.219   4.569
 5000WAT     H215243   7.291   1.320   4.667
 5001WAT      O15244   2.061   3.494   7.955
 5001WAT     H115245   2.047   3.416   8.017
 5001WAT     H215246   1.973   3.536   7.935
 5002WAT      O15247   4.562   7.052   5.723
 5002WAT     H115248   4.636   7.020   5.782
 5002WAT     H215249   4.499   6.977   5.704
 5003WAT      O15250   9.238   5.749   8.764
 5003WAT     H115251   9.239   5.774   8.861
 5003WAT     H215252   9.284   5.661   8.752
 5004WAT      O15253   4.874   3.077   0.332
 5004WAT     H115254   4.954   3.133   0.354
 5004WAT     H215255   4.882   2.988   0.377
 5005WAT      O15256   2.313   5.327   5.267
 5005WAT     H115257   2.287   5.354   5.174
 5005WAT     H215258   2.317   5.408   5.326
 5006WAT      O15259   6.966   7.126   2.865
 5006WAT     H115260   6.940   7.196   2.799
 5006WAT     H215261   7.012   7.169   2.943
 5007WAT      O15262   7.204   4.274   7.127
 5007WAT     H115263   7.148   4.196   7.154
 5007WAT     H215264   7.215   4.335   7.205
 5008WAT      O15265   2.582   5.974   9.666
 5008WAT     H115266   2.610   5.932   9.580
 5008WAT     H215267   2.603   5.911   9.741
 5009WAT      O15268   4.707   4.077   1.512
 5009WAT     H115269   4.749   4.123   1.434
 5009WAT     H215270   4.752   3.988   1.526
 5010WAT      O15271   1.774   3.224   6.962
 5010WAT     H115272   1.847   3.277   6.918
 5010WAT     H215273   1.792   3.219   7.060
 5011WAT      O15274   3.715   4.098   3.392
 5011WAT     H115275   3.699   4.007   3.354
 5011WAT     H215276   3.683   4.167   3.328
 5012WAT      O15277   5.228   0.039   7.141
 5012WAT     H115278   5.279   0.031   7.055
 5012WAT     H215279   5.267  -0.025   7.208
 5013WAT      O15280   8.066   0.286   4.761
 5013WAT     H115281   8.161   0.256   4.746
 5013WAT     H215282   8.023   0.304   4.673
 5014WAT      O15283   4.910   8.296   0.284
 5014WAT     H115284   4.999   8.264   0.252
 5014WAT     H215285   4.882   8.242   0.363
 5015WAT      O15286   3.497   9.305   6.569
 5015WAT     H115287   3.439   9.287   6.648
 5015WAT     H215288   3.457   9.379   6.515
 5016WAT      O15289   0.265   4.974   0.365
 5016WAT     H115290   0.217   5.025   0.294
 5016WAT     H215291   0.358   4.953   0.334
 5017WAT      O15292   6.319   4.109   2.011
 5017WAT     H115293   6.219   4.110   2.001
 5017WAT     H215294   6.347   4.026   2.059
 5018WAT      O15295   0.277   2.954   9.566
 5018WAT     H115296   0.217   2.904   9.629
 5018WAT     H215297   0.252   2.933   9.472
 5019WAT      O15298   3.739   1.399   5.776
 5019WAT     H115299   3.802   1.396   5.854
 5019WAT     H215300   3.789   1.381   5.692
 5020WAT      O15301   2.941   0.654   8.023
 5020WAT     H115302   2.996   0.623   7.946
 5020WAT     H215303   2.945   0.586   8.097
 5021WAT      O15304   9.226   5.179   6.365
 5021WAT     H115305   9.216   5.207   6.270
 5021WAT     H215306   9.320   5.195   6.395
 5022WAT      O15307   1.594   7.293   6.843
 5022WAT     H115308   1.582   7.226   6.770
 5022WAT     H215309   1.690   7.296   6.870
 5023WAT      O15310   3.512   8.215   4.043
 5023WAT     H115311   3.563   8.258   4.118
 5023WAT     H215312   3.576   8.172   3.980
 5024WAT      O15313   7.834   4.180   9.486
 5024WAT     H115314   7.862   4.110   9.553
 5024WAT     H215315   7.850   4.145   9.394
 5025WAT      O15316   8.916   0.106   5.372
 5025WAT     H115317   8.837   0.157   5.405
 5025WAT     H215318   8.908   0.010   5.401
 5026WAT      O15319   4.416   2.792   5.446
 5026WAT     H115320   4.514   2.787   5.467
 5026WAT     H215321   4.403   2.793   5.347
 5027WAT      O15322   9.030   5.082   2.011
 5027WAT     H115323   9.049   5.080   2.110
 5027WAT     H215324   9.102   5.133   1.964
 5028WAT      O15325   7.360   5.748   3.691
 5028WAT     H115326   7.291   5.695   3.740
 5028WAT     H215327   7.372   5.837   3.735
 5029WAT      O15328   7.823   3.651   5.196
 5029WAT     H115329   7.827   3.601   5.283
 5029WAT     H215330   7.864   3.742   5.208
 5030WAT      O15331   0.852   5.684   6.833
 5030WAT     H115332   0.902   5.746   6.773
 5030WAT     H215333   0.827   5.601   6.784
 5031WAT      O15334   1.399   7.844   5.459
 5031WAT     H115335   1.343   7.820   5.539
 5031WAT     H215336   1.495   7.845   5.486
 5032WAT      O15337   9.083   4.918   7.689
 5032WAT     H115338   9.051   4.950   7.778
 5032WAT     H215339   9.174   4.878   7.699
 5033WAT      O15340   3.819   3.495   4.121
 5033WAT     H115341   3.758   3.474   4.044
 5033WAT     H215342   3.909   3.519   4.087
 5034WAT      O15343   5.067   4.956   1.675
 5034WAT     H115344   5.073   5.007   1.589
 5034WAT     H215345   5.115   5.007   1.747
 5035WAT      O15346   5.834   5.395   4.544
 5035WAT     H115347   5.757   5.338   4.516
 5035WAT     H215348   5.917   5.365   4.496
 5036WAT      O15349   6.453   3.341   7.227
 5036WAT     H115350   6.378   3.277   7.245
 5036WAT     H215351   6.430   3.397   7.146
 5037WAT      O15352   5.083   3.686   6.808
 5037WAT     H115353   5.163   3.668   6.752
 5037WAT     H215354   5.108   3.744   6.885
 5038WAT      O15355   2.787   4.871   2.271
 5038WAT     H115356   2.831   4.916   2.348
 5038WAT     H215357   2.702   4.827   2.301
 5039WAT      O15358   2.420   1.887   8.251
 5039WAT     H115359   2.472   1.885   8.336
 5039WAT     H215360   2.324   1.904   8.270
 5040WAT      O15361   7.465   5.502   5.591
 5040WAT     H115362   7.501   5.465   5.676
 5040WAT     H215363   7.534   5.560   5.547
 5041WAT      O15364   5.480   1.799   3.332
 5041WAT     H115365   5.414   1.792   3.407
 5041WAT     H215366   5.497   1.709   3.293
 5042WAT      O15367   0.260   9.644   7.525
 5042WAT     H115368   0.246   9.561   7.580
 5042WAT     H215369   0.285   9.720   7.585
 5043WAT      O15370   9.622   5.350   7.424
 5043WAT     H115371   9.612   5.418   7.497
 5043WAT     H215372   9.652   5.263   7.463
 5044WAT      O15373   1.060   0.614   0.109
 5044WAT     H115374   1.029   0.557   0.033
 5044WAT     H215375   1.157   0.638   0.095
 5045WAT      O15376   5.922   3.105   6.358
 5045WAT     H115377   5.924   3.191   6.409
 5045WAT     H215378   5.992   3.107   6.286
 5046WAT      O15379   5.342   3.797   3.268
 5046WAT     H115380   5.425   3.853   3.259
 5046WAT     H215381   5.266   3.843   3.222
 5047WAT      O15382   7.600   5.844   0.025
 5047WAT     H115383   7.602   5.777  -0.050
 5047WAT     H215384   7.576   5.798   0.110
 5048WAT      O15385   3.933   3.355   5.108
 5048WAT     H115386   3.850   3.381   5.157
 5048WAT     H215387   3.938   3.405   5.021
 5049WAT      O15388   0.963   4.930   1.121
 5049WAT     H115389   0.869   4.936   1.087
 5049WAT     H215390   1.004   5.021   1.122
 5050WAT      O15391   5.714   5.387   1.284
 5050WAT     H115392   5.722   5.395   1.384
 5050WAT     H215393   5.633   5.437   1.254
 5051WAT      O15394   7.873   6.141   8.101
 5051WAT     H115395   7.800   6.099   8.047
 5051WAT     H215396   7.855   6.126   8.199
 5052WAT      O15397   8.670   9.574   3.351
 5052WAT     H115398   8.625   9.489   3.378
 5052WAT     H215399   8.633   9.604   3.262
 5053WAT      O15400   2.209   5.251   5.552
 5053WAT     H115401   2.175   5.328   5.499
 5053WAT     H215402   2.144   5.175   5.547
 5054WAT      O15403   1.764   0.139   6.723
 5054WAT     H115404   1.728   0.202   6.654
 5054WAT     H215405   1.704   0.059   6.730
 5055WAT      O15406   1.777   8.061   5.445
 5055WAT     H115407   1.876   8.061   5.453
 5055WAT     H215408   1.741   7.971   5.473
 5056WAT      O15409   5.606   9.005   9.824
 5056WAT     H115410   5.594   8.913   9.788
 5056WAT     H215411   5.571   9.072   9.758
 5057WAT      O15412   0.766   1.356   3.363
 5057WAT     H115413   0.737   1.271   3.320
 5057WAT     H215414   0.789   1.424   3.293
 5058WAT      O15415   9.849   8.342   6.278
 5058WAT     H115416   9.825   8.417   6.217
 5058WAT     H215417   9.821   8.364   6.371
 5059WAT      O15418   2.261   7.077   0.911
 5059WAT     H115419   2.284   7.067   1.008
 5059WAT     H215420   2.267   6.988   0.866
 5060WAT      O15421   0.307   4.553   9.812
 5060WAT     H115422   0.400   4.559   9.848
 5060WAT     H215423   0.309   4.557   9.712
 5061WAT      O15424   0.831   7.438   5.227
 5061WAT     H115425   0.886   7.493   5.290
 5061WAT     H215426   0.767   7.381   5.280
 5062WAT      O15427   4.857   1.543   0.831
 5062WAT     H115428   4.791   1.598   0.779
 5062WAT     H215429   4.871   1.585   0.921
 5063WAT      O15430   9.621   9.440   9.785
 5063WAT     H115431   9.553   9.369   9.803
 5063WAT     H215432   9.575   9.524   9.755
 5064WAT      O15433   6.651   4.570   5.290
 5064WAT     H115434   6.713   4.510   5.240
 5064WAT     H215435   6.638   4.534   5.383
 5065WAT      O15436   4.508   2.528   2.709
 5065WAT     H115437   4.601   2.534   2.673
 5065WAT     H215438   4.512   2.520   2.809
 5066WAT      O15439   9.186   2.319   7.022
 5066WAT     H115440   9.202   2.259   7.101
 5066WAT     H215441   9.270   2.324   6.968
 5067WAT      O15442   8.139   3.582   3.827
 5067WAT     H115443   8.049   3.624   3.841
 5067WAT     H215444   8.134   3.520   3.748
 5068WAT      O15445   0.007   5.597   9.284
 5068WAT     H115446  -0.073   5.552   9.323
 5068WAT     H215447   0.035   5.549   9.201
 5069WAT      O15448   5.025   8.032   7.969
 5069WAT     H115449   5.045   7.936   7.951
 5069WAT     H215450   4.985   8.041   8.060
 5070WAT      O15451   0.356   6.317   1.135
 5070WAT     H115452   0.355   6.347   1.039
 5070WAT     H215453   0.280   6.255   1.151
 5071WAT      O15454   4.365   9.129   8.824
 5071WAT     H115455   4.425   9.113   8.903
 5071WAT     H215456   4.415   9.105   8.740
 5072WAT      O15457   0.197   1.314   7.399
 5072WAT     H115458   0.139   1.288   7.322
 5072WAT     H215459   0.284   1.264   7.393
 5073WAT      O15460   4.076   9.154   3.888
 5073WAT     H115461   4.059   9.095   3.809
 5073WAT     H215462   4.167   9.134   3.925
 5074WAT      O15463   0.893   5.174   1.513
 5074WAT     H115464   0.919   5.164   1.609
 5074WAT     H215465   0.940   5.252   1.473
 5075WAT      O15466   5.699   4.274   7.206
 5075WAT     H115467   5.762   4.204   7.239
 5075WAT     H215468   5.750   4.355   7.178
 5076WAT      O15469   1.492   4.932   6.813
 5076WAT     H115470   1.566   4.950   6.748
 5076WAT     H215471   1.421   5.002   6.802
 5077WAT      O15472   3.995   7.556   2.374
 5077WAT     H115473   3.933   7.478   2.376
 5077WAT     H215474   3.946   7.637   2.340
 5078WAT      O15475   4.719   3.098   8.762
 5078WAT     H115476   4.752   3.193   8.762
 5078WAT     H215477   4.621   3.097   8.746
 5079WAT      O15478   0.935   8.318   1.059
 5079WAT     H115479   0.932   8.310   0.959
 5079WAT     H215480   1.005   8.258   1.096
 5080WAT      O15481   9.249   3.777   4.479
 5080WAT     H115482   9.272   3.700   4.539
 5080WAT     H215483   9.164   3.820   4.511
 5081WAT      O15484   3.504   2.135   7.679
 5081WAT     H115485   3.553   2.048   7.684
 5081WAT     H215486   3.569   2.211   7.680
 5082WAT      O15487   3.773   8.381   8.906
 5082WAT     H115488   3.746   8.441   8.831
 5082WAT     H215489   3.838   8.429   8.966
 5083WAT      O15490   0.998   4.194   3.220
 5083WAT     H115491   1.097   4.204   3.227
 5083WAT     H215492   0.956   4.208   3.310
 5084WAT      O15493   2.961   3.191   1.012
 5084WAT     H115494   2.862   3.197   0.997
 5084WAT     H215495   2.982   3.109   1.065
 5085WAT      O15496   4.132   1.651   4.327
 5085WAT     H115497   4.107   1.733   4.378
 5085WAT     H215498   4.228   1.655   4.301
 5086WAT      O15499   8.480   5.003   5.069
 5086WAT     H115500   8.426   4.926   5.035
 5086WAT     H215501   8.574   4.996   5.035
 5087WAT      O15502   2.314   4.299   7.319
 5087WAT     H115503   2.291   4.391   7.351
 5087WAT     H215504   2.288   4.233   7.389
 5088WAT      O15505   4.262   1.917   7.821
 5088WAT     H115506   4.180   1.865   7.799
 5088WAT     H215507   4.300   1.956   7.736
 5089WAT      O15508   3.968   9.572   0.280
 5089WAT     H115509   3.905   9.532   0.346
 5089WAT     H215510   3.958   9.672   0.280
 5090WAT      O15511   8.478   7.747   1.332
 5090WAT     H115512   8.468   7.822   1.266
 5090WAT     H215513   8.446   7.662   1.291
 5091WAT      O15514   7.012   1.337   5.573
 5091WAT     H115515   7.103   1.297   5.559
 5091WAT     H215516   6.966   1.290   5.648
 5092WAT      O15517   6.923   0.830   7.867
 5092WAT     H115518   6.838   0.822   7.815
 5092WAT     H215519   6.937   0.747   7.921
 5093WAT      O15520   4.700   2.990   2.662
 5093WAT     H115521   4.673   3.043   2.742
 5093WAT     H215522   4.628   2.997   2.592
 5094WAT      O15523   4.540   4.884   5.818
 5094WAT     H115524   4.577   4.935   5.740
 5094WAT     H215525   4.609   4.820   5.852
 5095WAT      O15526   9.176   8.263   2.696
 5095WAT     H115527   9.122   8.199   2.750
 5095WAT     H215528   9.225   8.214   2.624
 5096WAT      O15529   7.513   1.259   8.226
 5096WAT     H115530   7.457   1.176   8.217
 5096WAT     H215531   7.481   1.312   8.305
 5097WAT      O15532   5.443   5.009   5.099
 5097WAT     H115533   5.497   5.074   5.044
 5097WAT     H215534   5.363   5.056   5.137
 5098WAT      O15535   1.536   1.702   2.879
 5098WAT     H115536   1.605   1.733   2.814
 5098WAT     H215537   1.519   1.605   2.865
 5099WAT      O15538   6.436   1.336   2.252
 5099WAT     H115539   6.473   1.307   2.340
 5099WAT     H215540   6.498   1.402   2.210
 5100WAT      O15541   4.451   4.722   6.242
 5100WAT     H115542   4.367   4.748   6.195
 5100WAT     H215543   4.522   4.791   6.223
 5101WAT      O15544   8.650   0.214   4.407
 5101WAT     H115545   8.673   0.164   4.491
 5101WAT     H215546   8.733   0.232   4.355
 5102WAT      O15547   4.065   8.218   1.255
 5102WAT     H115548   4.069   8.263   1.166
 5102WAT     H215549   3.970   8.210   1.284
 5103WAT      O15550   6.874   8.231   2.572
 5103WAT     H115551   6.879   8.157   2.639
 5103WAT     H215552   6.916   8.313   2.611
 5104WAT      O15553   6.670   4.913   0.692
 5104WAT     H115554   6.639   4.971   0.616
 5104WAT     H215555   6.749   4.860   0.663
 5105WAT      O15556   1.613   3.753   4.257
 5105WAT     H115557   1.618   3.742   4.158
 5105WAT     H215558   1.704   3.742   4.296
 5106WAT      O15559   7.779   7.849   0.934
 5106WAT     H115560   7.737   7.783   0.872
 5106WAT     H215561   7.878   7.849   0.921
 5107WAT      O15562   5.086   0.889   5.503
 5107WAT     H115563   5.164   0.951   5.492
 5107WAT     H215564   5.107   0.802   5.458
 5108WAT      O15565   9.834   7.544   2.528
 5108WAT     H115566   9.849   7.516   2.623
 5108WAT     H215567   9.918   7.585   2.492
 5109WAT      O15568   0.920   2.952   9.436
 5109WAT     H115569   1.008   2.984   9.470
 5109WAT     H215570   0.910   2.854   9.455
 5110WAT      O15571   5.558   5.678   1.697
 5110WAT     H115572   5.653   5.683   1.666
 5110WAT     H215573   5.518   5.769   1.694
 5111WAT      O15574   3.196   4.442   5.191
 5111WAT     H115575   3.217   4.346   5.176
 5111WAT     H215576   3.281   4.493   5.204
 5112WAT      O15577   9.246   2.204   3.026
 5112WAT     H115578   9.313   2.278   3.020
 5112WAT     H215579   9.271   2.142   3.100
 5113WAT      O15580   4.706   6.706   5.646
 5113WAT     H115581   4.775   6.770   5.613
 5113WAT     H215582   4.616   6.751   5.648
 5114WAT      O15583   6.747   1.690   7.349
 5114WAT     H115584   6.765   1.668   7.253
 5114WAT     H215585   6.715   1.785   7.356
 5115WAT      O15586   1.799   0.204   0.775
 5115WAT     H115587   1.766   0.110   0.769
 5115WAT     H215588   1.899   0.204   0.781
 5116WAT      O15589   8.980   5.167   2.825
 5116WAT     H115590   8.981   5.226   2.744
 5116WAT     H215591   9.073   5.136   2.845
 5117WAT      O15592   2.291   3.002   5.247
 5117WAT     H115593   2.326   2.917   5.285
 5117WAT     H215594   2.338   3.022   5.161
 5118WAT      O15595   7.326   8.844   8.033
 5118WAT     H115596   7.363   8.770   8.090
 5118WAT     H215597   7.306   8.923   8.091
 5119WAT      O15598   3.131   2.242   8.195
 5119WAT     H115599   3.041   2.209   8.166
 5119WAT     H215600   3.192   2.247   8.116
 5120WAT      O15601   8.042   9.334   6.351
 5120WAT     H115602   8.103   9.396   6.400
 5120WAT     H215603   8.028   9.368   6.258
 5121WAT      O15604   7.477   5.941   4.190
 5121WAT     H115605   7.456   6.032   4.155
 5121WAT     H215606   7.566   5.942   4.237
 5122WAT      O15607   9.747   7.413   5.791
 5122WAT     H115608   9.724   7.333   5.846
 5122WAT     H215609   9.842   7.439   5.808
 5123WAT      O15610   9.593   5.705   6.701
 5123WAT     H115611   9.676   5.685   6.754
 5123WAT     H215612   9.619   5.728   6.607
 5124WAT      O15613   1.056   9.278   2.794
 5124WAT     H115614   1.022   9.253   2.885
 5124WAT     H215615   1.149   9.243   2.783
 5125WAT      O15616   5.595   8.847   5.995
 5125WAT     H115617   5.591   8.876   5.899
 5125WAT     H215618   5.504   8.852   6.035
 5126WAT      O15619   4.383   3.403   1.709
 5126WAT     H115620   4.334   3.490   1.707
 5126WAT     H215621   4.474   3.414   1.669
 5127WAT      O15622   3.151   3.329   0.113
 5127WAT     H115623   3.211   3.400   0.150
 5127WAT     H215624   3.123   3.266   0.186
 5128WAT      O15625   6.478   1.617   1.890
 5128WAT     H115626   6.429   1.532   1.913
 5128WAT     H215627   6.417   1.679   1.841
 5129WAT      O15628   5.801   2.242   0.990
 5129WAT     H115629   5.719   2.206   1.034
 5129WAT     H215630   5.834   2.321   1.043
 5130WAT      O15631   2.027   5.099   4.307
 5130WAT     H115632   2.069   5.012   4.282
 5130WAT     H215633   1.940   5.082   4.355
 5131WAT      O15634   2.671   6.241   2.404
 5131WAT     H115635   2.766   6.225   2.377
 5131WAT     H215636   2.613   6.239   2.322
 5132WAT      O15637   6.392   2.207   1.192
 5132WAT     H115638   6.380   2.256   1.278
 5132WAT     H215639   6.439   2.120   1.209
 5133WAT      O15640   3.315   8.822   1.348
 5133WAT     H115641   3.237   8.763   1.371
 5133WAT     H215642   3.367   8.781   1.273
 5134WAT      O15643   5.709   3.754   3.986
 5134WAT     H115644   5.636   3.821   3.975
 5134WAT     H215645   5.671   3.668   4.020
 5135WAT      O15646   7.240   3.356   4.368
 5135WAT     H115647   7.301   3.334   4.444
 5135WAT     H215648   7.194   3.272   4.338
 5136WAT      O15649   4.228   9.504   8.428
 5136WAT     H115650   4.291   9.480   8.354
 5136WAT     H215651   4.237   9.438   8.502
 5137WAT      O15652   5.951   8.679   0.922
 5137WAT     H115653   5.981   8.702   0.829
 5137WAT     H215654   6.029   8.651   0.977
 5138WAT      O15655   9.105   1.734   2.814
 5138WAT     H115656   9.178   1.690   2.866
 5138WAT     H215657   9.054   1.665   2.763
 5139WAT      O15658   8.944   0.535   7.966
 5139WAT     H115659   8.915   0.464   7.901
 5139WAT     H215660   8.870   0.601   7.979
 5140WAT      O15661   3.728   9.437   5.135
 5140WAT     H115662   3.749   9.409   5.229
 5140WAT     H215663   3.798   9.500   5.102
 5141WAT      O15664   1.087   1.595   3.784
 5141WAT     H115665   1.078   1.548   3.696
 5141WAT     H215666   1.019   1.669   3.788
 5142WAT      O15667   3.128   8.664   8.465
 5142WAT     H115668   3.069   8.686   8.543
 5142WAT     H215669   3.155   8.748   8.418
 5143WAT      O15670   8.415   9.750   7.104
 5143WAT     H115671   8.352   9.827   7.094
 5143WAT     H215672   8.364   9.664   7.102
 5144WAT      O15673   5.646   6.663   2.471
 5144WAT     H115674   5.563   6.679   2.417
 5144WAT     H215675   5.653   6.565   2.492
 5145WAT      O15676   3.444   7.688   4.569
 5145WAT     H115677   3.463   7.755   4.640
 5145WAT     H215678   3.509   7.699   4.494
 5146WAT      O15679   1.425   1.318   0.988
 5146WAT     H115680   1.428   1.266   1.074
 5146WAT     H215681   1.420   1.255   0.911
 5147WAT      O15682   7.966   0.529   5.359
 5147WAT     H115683   7.870   0.519   5.333
 5147WAT     H215684   7.988   0.463   5.431
 5148WAT      O15685   5.385   4.539   4.792
 5148WAT     H115686   5.313   4.527   4.861
 5148WAT     H215687   5.464   4.483   4.817
 5149WAT      O15688   2.425   7.474   3.921
 5149WAT     H115689   2.519   7.485   3.889
 5149WAT     H215690   2.366   7.450   3.843
 5150WAT      O15691   0.689   2.554   8.073
 5150WAT     H115692   0.652   2.487   8.009
 5150WAT     H215693   0.744   2.507   8.142
 5151WAT      O15694   1.621   2.655   0.337
 5151WAT     H115695   1.600   2.667   0.240
 5151WAT     H215696   1.560   2.587   0.376
 5152WAT      O15697   3.444   5.194   3.843
 5152WAT     H115698   3.513   5.149   3.899
 5152WAT     H215699   3.362   5.210   3.898
 5153WAT      O15700   7.358   0.454   0.023
 5153WAT     H115701   7.346   0.364   0.065
 5153WAT     H215702   7.360   0.524   0.094
 5154WAT      O15703   3.727   3.607   1.919
 5154WAT     H115704   3.793   3.543   1.881
 5154WAT     H215705   3.773   3.669   1.982
 5155WAT      O15706   1.317   9.025   6.515
 5155WAT     H115707   1.300   8.928   6.536
 5155WAT     H215708   1.369   9.066   6.590
 5156WAT      O15709   0.365   2.624   1.323
 5156WAT     H115710   0.423   2.590   1.397
 5156WAT     H215711   0.291   2.679   1.361
 5157WAT      O15712   0.303   4.805   9.243
 5157WAT     H115713   0.291   4.716   9.288
 5157WAT     H215714   0.246   4.809   9.161
 5158WAT      O15715   7.605   8.313   3.744
 5158WAT     H115716   7.696   8.282   3.773
 5158WAT     H215717   7.615   8.371   3.663
 5159WAT      O15718   5.563   2.250   7.062
 5159WAT     H115719   5.491   2.215   7.002
 5159WAT     H215720   5.536   2.236   7.158
 5160WAT      O15721   1.361   9.448   7.273
 5160WAT     H115722   1.427   9.513   7.312
 5160WAT     H215723   1.397   9.355   7.282
 5161WAT      O15724   7.308   6.556   9.751
 5161WAT     H115725   7.376   6.506   9.804
 5161WAT     H215726   7.217   6.537   9.787
 5162WAT      O15727   2.166   9.729   7.059
 5162WAT     H115728   2.123   9.776   7.136
 5162WAT     H215729   2.261   9.760   7.050
 5163WAT      O15730   1.301   2.381   3.493
 5163WAT     H115731   1.220   2.326   3.512
 5163WAT     H215732   1.333   2.364   3.400
 5164WAT      O15733   9.794   1.469   6.216
 5164WAT     H115734   9.821   1.420   6.132
 5164WAT     H215735   9.703   1.438   6.244
 5165WAT      O15736   0.651   1.133   9.658
 5165WAT     H115737   0.738   1.099   9.693
 5165WAT     H215738   0.577   1.098   9.714
 5166WAT      O15739   7.452   2.031   0.916
 5166WAT     H115740   7.517   2.042   0.841
 5166WAT     H215741   7.377   2.096   0.904
 5167WAT      O15742   5.391   2.246   0.393
 5167WAT     H115743   5.426   2.292   0.312
 5167WAT     H215744   5.431   2.154   0.399
 5168WAT      O15745   0.093   5.715   3.835
 5168WAT     H115746   0.125   5.725   3.930
 5168WAT     H215747   0.064   5.620   3.820
 5169WAT      O15748   4.734   4.354   8.420
 5169WAT     H115749   4.811   4.301   8.455
 5169WAT     H215750   4.768   4.437   8.376
 5170WAT      O15751   6.392   8.666   8.836
 5170WAT     H115752   6.350   8.675   8.926
 5170WAT     H215753   6.485   8.631   8.847
 5171WAT      O15754   9.465   3.253   3.105
 5171WAT     H115755   9.371   3.243   3.136
 5171WAT     H215756   9.509   3.163   3.103
 5172WAT      O15757   8.120   5.237   8.446
 5172WAT     H115758   8.182   5.284   8.383
 5172WAT     H215759   8.033   5.286   8.450
 5173WAT      O15760   0.597   1.265   0.356
 5173WAT     H115761   0.570   1.180   0.401
 5173WAT     H215762   0.518   1.302   0.307
 5174WAT      O15763   5.000   2.561   9.235
 5174WAT     H115764   5.028   2.548   9.329
 5174WAT     H215765   4.938   2.488   9.207
 5175WAT      O15766   8.449   2.038   3.931
 5175WAT     H115767   8.399   2.121   3.907
 5175WAT     H215768   8.403   1.992   4.007
 5176WAT      O15769   4.148   2.888   0.986
 5176WAT     H115770   4.087   2.964   1.008
 5176WAT     H215771   4.223   2.922   0.928
 5177WAT      O15772   4.842   2.029   6.238
 5177WAT     H115773   4.757   2.006   6.190
 5177WAT     H215774   4.835   2.003   6.334
 5178WAT      O15775   7.394   9.748   1.072
 5178WAT     H115776   7.335   9.670   1.090
 5178WAT     H215777   7.480   9.717   1.034
 5179WAT      O15778   3.253   2.602   8.012
 5179WAT     H115779   3.219   2.675   8.072
 5179WAT     H215780   3.285   2.526   8.067
 5180WAT      O15781   0.430   4.464   6.253
 5180WAT     H115782   0.397   4.521   6.327
 5180WAT     H215783   0.447   4.371   6.287
 5181WAT      O15784   5.922   5.576   0.841
 5181WAT     H115785   6.020   5.564   0.859
 5181WAT     H215786   5.871   5.506   0.891
 5182WAT      O15787   2.344   4.637   6.178
 5182WAT     H115788   2.409   4.705   6.144
 5182WAT     H215789   2.308   4.584   6.101
 5183WAT      O15790   6.923   2.910   1.278
 5183WAT     H115791   6.913   2.815   1.308
 5183WAT     H215792   6.837   2.940   1.236
 5184WAT      O15793   2.334   9.253   3.445
 5184WAT     H115794   2.235   9.248   3.432
 5184WAT     H215795   2.365   9.173   3.498
 5185WAT      O15796   4.624   7.445   2.598
 5185WAT     H115797   4.710   7.467   2.643
 5185WAT     H215798   4.548   7.483   2.651
 5186WAT      O15799   6.771   2.033   7.350
 5186WAT     H115800   6.776   2.077   7.260
 5186WAT     H215801   6.677   2.040   7.385
 5187WAT      O15802   0.671   9.403   5.790
 5187WAT     H115803   0.703   9.456   5.711
 5187WAT     H215804   0.659   9.307   5.763
 5188WAT      O15805   8.886   7.625   3.757
 5188WAT     H115806   8.979   7.641   3.788
 5188WAT     H215807   8.830   7.591   3.834
 5189WAT      O15808   4.870   2.549   0.586
 5189WAT     H115809   4.969   2.541   0.599
 5189WAT     H215810   4.822   2.499   0.658
 5190WAT      O15811   8.814   2.223   9.530
 5190WAT     H115812   8.726   2.240   9.575
 5190WAT     H215813   8.888   2.236   9.596
 5191WAT      O15814   7.861   2.547   6.366
 5191WAT     H115815   7.788   2.505   6.311
 5191WAT     H215816   7.820   2.598   6.442
 5192WAT      O15817   4.596   9.171   7.402
 5192WAT     H115818   4.577   9.100   7.334
 5192WAT     H215819   4.515   9.182   7.461
 5193WAT      O15820   0.753   3.852   5.731
 5193WAT     H115821   0.675   3.792   5.711
 5193WAT     H215822   0.836   3.798   5.740
 5194WAT      O15823   9.340   3.684   8.672
 5194WAT     H115824   9.264   3.676   8.608
 5194WAT     H215825   9.416   3.626   8.641
 5195WAT      O15826   4.469   4.845   2.616
 5195WAT     H115827   4.515   4.915   2.672
 5195WAT     H215828   4.391   4.886   2.570
 5196WAT      O15829   4.345   5.994   7.439
 5196WAT     H115830   4.369   6.034   7.351
 5196WAT     H215831   4.384   5.903   7.446
 5197WAT      O15832   3.710   0.657   3.616
 5197WAT     H115833   3.658   0.742   3.614
 5197WAT     H215834   3.656   0.586   3.662
 5198WAT      O15835   2.004   3.320   1.651
 5198WAT     H115836   2.097   3.354   1.667
 5198WAT     H215837   1.949   3.335   1.733
 5199WAT      O15838   8.616   0.035   8.967
 5199WAT     H115839   8.636  -0.043   9.026
 5199WAT     H215840   8.531   0.020   8.918
 5200WAT      O15841   2.447   2.826   8.912
 5200WAT     H115842   2.461   2.901   8.976
 5200WAT     H215843   2.528   2.816   8.854
 5201WAT      O15844   1.788   3.316   4.485
 5201WAT     H115845   1.746   3.382   4.547
 5201WAT     H215846   1.854   3.260   4.536
 5202WAT      O15847   4.631   7.428   7.196
 5202WAT     H115848   4.726   7.431   7.166
 5202WAT     H215849   4.599   7.520   7.218
 5203WAT      O15850   5.973   5.936   2.284
 5203WAT     H115851   6.051   5.874   2.292
 5203WAT     H215852   6.004   6.023   2.244
 5204WAT      O15853   5.383   4.552   7.528
 5204WAT     H115854   5.455   4.613   7.496
 5204WAT     H215855   5.384   4.468   7.474
 5205WAT      O15856   2.648   7.679   9.647
 5205WAT     H115857   2.719   7.619   9.684
 5205WAT     H215858   2.605   7.635   9.568
 5206WAT      O15859   7.957   0.215   5.003
 5206WAT     H115860   7.999   0.237   4.915
 5206WAT     H215861   8.009   0.260   5.076
 5207WAT      O15862   5.880   5.444   7.936
 5207WAT     H115863   5.838   5.354   7.926
 5207WAT     H215864   5.865   5.498   7.854
 5208WAT      O15865   4.094   4.658   0.447
 5208WAT     H115866   3.999   4.688   0.455
 5208WAT     H215867   4.119   4.604   0.527
 5209WAT      O15868   3.875   7.653   0.220
 5209WAT     H115869   3.826   7.641   0.134
 5209WAT     H215870   3.817   7.622   0.296
 5210WAT      O15871   7.090   1.684   6.275
 5210WAT     H115872   7.078   1.671   6.176
 5210WAT     H215873   7.001   1.705   6.316
 5211WAT      O15874   7.559   5.191   4.002
 5211WAT     H115875   7.470   5.152   3.979
 5211WAT     H215876   7.546   5.275   4.054
 5212WAT      O15877   4.548   3.885   4.834
 5212WAT     H115878   4.589   3.795   4.821
 5212WAT     H215879   4.510   3.892   4.926
 5213WAT      O15880   2.274   7.497   3.095
 5213WAT     H115881   2.369   7.516   3.071
 5213WAT     H215882   2.235   7.432   3.031
 5214WAT      O15883   0.665   6.412   4.768
 5214WAT     H115884   0.588   6.414   4.832
 5214WAT     H215885   0.706   6.503   4.762
 5215WAT      O15886   0.673   3.093   0.436
 5215WAT     H115887   0.739   3.074   0.363
 5215WAT     H215888   0.688   3.030   0.512
 5216WAT      O15889   4.513   1.494   7.122
 5216WAT     H115890   4.538   1.587   7.094
 5216WAT     H215891   4.569   1.429   7.070
 5217WAT      O15892   6.609   1.302   4.761
 5217WAT     H115893   6.654   1.384   4.725
 5217WAT     H215894   6.625   1.296   4.860
 5218WAT      O15895   3.532   8.153   3.649
 5218WAT     H115896   3.452   8.095   3.662
 5218WAT     H215897   3.588   8.152   3.732
 5219WAT      O15898   5.325   0.726   4.719
 5219WAT     H115899   5.304   0.749   4.623
 5219WAT     H215900   5.407   0.776   4.748
 5220WAT      O15901   2.796   4.255   4.777
 5220WAT     H115902   2.710   4.270   4.727
 5220WAT     H215903   2.869   4.309   4.734
 5221WAT      O15904   9.231   6.101   3.214
 5221WAT     H115905   9.140   6.092   3.255
 5221WAT     H215906   9.298   6.124   3.285
 5222WAT      O15907   0.203   7.192   4.045
 5222WAT     H115908   0.172   7.165   3.954
 5222WAT     H215909   0.183   7.118   4.110
 5223WAT      O15910   0.198   1.105   8.475
 5223WAT     H115911   0.267   1.086   8.545
 5223WAT     H215912   0.234   1.079   8.385
 5224WAT      O15913   2.750   1.653   0.192
 5224WAT     H115914   2.849   1.645   0.196
 5224WAT     H215915   2.718   1.624   0.101
 5225WAT      O15916   3.789   9.638   6.392
 5225WAT     H115917   3.817   9.543   6.410
 5225WAT     H215918   3.863   9.687   6.347
 5226WAT      O15919   6.523   8.196   1.626
 5226WAT     H115920   6.607   8.222   1.674
 5226WAT     H215921   6.506   8.261   1.553
 5227WAT      O15922   6.962   4.473   6.505
 5227WAT     H115923   6.963   4.385   6.457
 5227WAT     H215924   7.000   4.461   6.597
 5228WAT      O15925   0.726   7.779   2.365
 5228WAT     H115926   0.760   7.703   2.309
 5228WAT     H215927   0.725   7.863   2.311
 5229WAT      O15928   0.111   2.288   1.611
 5229WAT     H115929   0.196   2.254   1.650
 5229WAT     H215930   0.118   2.291   1.511
 5230WAT      O15931   8.525   9.219   4.211
 5230WAT     H115932   8.485   9.127   4.201
 5230WAT     H215933   8.625   9.212   4.212
 5231WAT      O15934   5.131   2.905   7.800
 5231WAT     H115935   5.166   2.902   7.893
 5231WAT     H215936   5.208   2.907   7.736
 5232WAT      O15937   5.886   3.877   2.386
 5232WAT     H115938   5.921   3.784   2.379
 5232WAT     H215939   5.829   3.885   2.468
 5233WAT      O15940   4.860   0.242   9.765
 5233WAT     H115941   4.802   0.315   9.727
 5233WAT     H215942   4.954   0.256   9.736
 5234WAT      O15943   2.061   9.177   3.446
 5234WAT     H115944   2.072   9.148   3.351
 5234WAT     H215945   1.984   9.241   3.452
 5235WAT      O15946   4.087   3.536   2.297
 5235WAT     H115947   4.106   3.459   2.358
 5235WAT     H215948   3.989   3.549   2.290
 5236WAT      O15949   8.729   6.406   8.226
 5236WAT     H115950   8.639   6.433   8.193
 5236WAT     H215951   8.733   6.307   8.239
 5237WAT      O15952   6.223   9.523   7.858
 5237WAT     H115953   6.318   9.556   7.859
 5237WAT     H215954   6.222   9.426   7.879
 5238WAT      O15955   1.369   3.159   4.490
 5238WAT     H115956   1.380   3.258   4.490
 5238WAT     H215957   1.367   3.126   4.584
 5239WAT      O15958   4.188   4.243   1.149
 5239WAT     H115959   4.090   4.241   1.131
 5239WAT     H215960   4.204   4.242   1.248
 5240WAT      O15961   7.831   5.253   4.159
 5240WAT     H115962   7.836   5.351   4.136
 5240WAT     H215963   7.746   5.215   4.122
 5241WAT      O15964   7.669   3.860   1.794
 5241WAT     H115965   7.714   3.903   1.715
 5241WAT     H215966   7.731   3.795   1.836
 5242WAT      O15967   7.438   0.848   0.514
 5242WAT     H115968   7.506   0.797   0.461
 5242WAT     H215969   7.432   0.941   0.479
 5243WAT      O15970   8.654   1.956   8.179
 5243WAT     H115971   8.612   2.042   8.152
 5243WAT     H215972   8.752   1.970   8.194
 5244WAT      O15973   4.298   2.481   7.097
 5244WAT     H115974   4.366   2.495   7.169
 5244WAT     H215975   4.331   2.521   7.011
 5245WAT      O15976   2.905   0.843   3.864
 5245WAT     H115977   2.848   0.770   3.900
 5245WAT     H215978   2.949   0.892   3.940
 5246WAT      O15979   0.079   2.847   2.528
 5246WAT     H115980   0.042   2.865   2.619
 5246WAT     H215981   0.153   2.780   2.534
 5247WAT      O15982   1.102   2.460   3.264
 5247WAT     H115983   1.110   2.418   3.354
 5247WAT     H215984   1.141   2.399   3.195
 5248WAT      O15985   0.232   3.110   1.453
 5248WAT     H115986   0.196   3.049   1.524
 5248WAT     H215987   0.156   3.150   1.401
 5249WAT      O15988   4.381   2.000   1.574
 5249WAT     H115989   4.314   2.069   1.547
 5249WAT     H215990   4.343   1.909   1.560
 5250WAT      O15991   8.187   4.479   8.758
 5250WAT     H115992   8.131   4.408   8.800
 5250WAT     H215993   8.277   4.442   8.735
 5251WAT      O15994   3.892   7.903   9.019
 5251WAT     H115995   3.930   7.927   8.930
 5251WAT     H215996   3.792   7.894   9.012
 5252WAT      O15997   0.133   2.406   4.344
 5252WAT     H115998   0.042   2.371   4.322
 5252WAT     H215999   0.173   2.351   4.418
 5253WAT      O16000   0.167   8.939   4.776
 5253WAT     H116001   0.095   8.895   4.722
 5253WAT     H216002   0.160   8.910   4.871
 5254WAT      O16003   7.212   0.019   4.166
 5254WAT     H116004   7.177   0.104   4.126
 5254WAT     H216005   7.147  -0.055   4.148
 5255WAT      O16006   4.991   9.649   7.398
 5255WAT     H116007   5.013   9.627   7.493
 5255WAT     H216008   4.894   9.633   7.381
 5256WAT      O16009   8.490   3.312   7.821
 5256WAT     H116010   8.576   3.262   7.806
 5256WAT     H216011   8.429   3.258   7.878
 5257WAT      O16012   1.109   5.017   4.193
 5257WAT     H116013   1.021   5.030   4.239
 5257WAT     H216014   1.099   5.035   4.096
 5258WAT      O16015   8.756   4.669   6.579
 5258WAT     H116016   8.804   4.741   6.628
 5258WAT     H216017   8.821   4.614   6.528
 5259WAT      O16018   6.158   4.139   4.320
 5259WAT     H116019   6.235   4.097   4.272
 5259WAT     H216020   6.090   4.170   4.253
 5260WAT      O16021   6.390   1.744   2.669
 5260WAT     H116022   6.421   1.784   2.582
 5260WAT     H216023   6.351   1.653   2.651
 5261WAT      O16024   3.825   1.779   5.097
 5261WAT     H116025   3.786   1.688   5.084
 5261WAT     H216026   3.924   1.775   5.082
 5262WAT      O16027   8.506   6.357   6.825
 5262WAT     H116028   8.571   6.330   6.896
 5262WAT     H216029   8.437   6.286   6.814
 5263WAT      O16030   5.841   6.813   3.888
 5263WAT     H116031   5.840   6.803   3.988
 5263WAT     H216032   5.843   6.722   3.846
 5264WAT      O16033   8.867   7.770   2.197
 5264WAT     H116034   8.818   7.857   2.205
 5264WAT     H216035   8.894   7.739   2.288
 5265WAT      O16036   7.565   2.526   2.756
 5265WAT     H116037   7.562   2.603   2.693
 5265WAT     H216038   7.519   2.447   2.715
 5266WAT      O16039   0.507   6.888   3.011
 5266WAT     H116040   0.413   6.866   2.985
 5266WAT     H216041   0.527   6.983   2.986
 5267WAT      O16042   3.206   4.187   9.354
 5267WAT     H116043   3.231   4.264   9.296
 5267WAT     H216044   3.185   4.219   9.446
 5268WAT      O16045   3.639   3.127   9.281
 5268WAT     H116046   3.635   3.221   9.316
 5268WAT     H216047   3.569   3.115   9.211
 5269WAT      O16048   6.871   8.678   6.000
 5269WAT     H116049   6.961   8.635   6.001
 5269WAT     H216050   6.801   8.611   5.976
 5270WAT      O16051   4.041   3.926   2.563
 5270WAT     H116052   4.068   3.831   2.545
 5270WAT     H216053   4.049   3.979   2.479
 5271WAT      O16054   0.299   8.006   3.543
 5271WAT     H116055   0.221   8.012   3.481
 5271WAT     H216056   0.364   7.939   3.508
 5272WAT      O16057   1.804   8.961   8.660
 5272WAT     H116058   1.870   9.026   8.623
 5272WAT     H216059   1.737   9.009   8.717
 5273WAT      O16060   4.193   1.213   5.556
 5273WAT     H116061   4.204   1.305   5.591
 5273WAT     H216062   4.279   1.182   5.515
 5274WAT      O16063   4.915   4.498   1.086
 5274WAT     H116064   4.917   4.533   0.992
 5274WAT     H216065   4.863   4.412   1.087
 5275WAT      O16066   4.436   1.937   0.834
 5275WAT     H116067   4.452   1.862   0.898
 5275WAT     H216068   4.522   1.982   0.812
 5276WAT      O16069   6.349   6.268   8.025
 5276WAT     H116070   6.306   6.179   8.040
 5276WAT     H216071   6.371   6.278   7.928
 5277WAT      O16072   5.098   2.366   4.816
 5277WAT     H116073   5.189   2.397   4.789
 5277WAT     H216074   5.103   2.270   4.845
 5278WAT      O16075   1.483   0.004   6.285
 5278WAT     H116076   1.415   0.024   6.355
 5278WAT     H216077   1.439  -0.006   6.196
 5279WAT      O16078   0.661   9.530   2.786
 5279WAT     H116079   0.580   9.518   2.842
 5279WAT     H216080   0.634   9.545   2.691
 5280WAT      O16081   2.642   8.488   9.112
 5280WAT     H116082   2.742   8.487   9.108
 5280WAT     H216083   2.606   8.503   9.020
 5281WAT      O16084   0.717   0.787   3.055
 5281WAT     H116085   0.644   0.834   3.106
 5281WAT     H216086   0.770   0.731   3.119
 5282WAT      O16087   4.604   7.562   8.741
 5282WAT     H116088   4.648   7.612   8.667
 5282WAT     H216089   4.661   7.566   8.823
 5283WAT      O16090   5.254   9.098   5.956
 5283WAT     H116091   5.262   9.067   5.861
 5283WAT     H216092   5.317   9.173   5.972
 5284WAT      O16093   1.104   7.934   2.428
 5284WAT     H116094   1.042   7.884   2.490
 5284WAT     H216095   1.192   7.946   2.473
 5285WAT      O16096   9.481   0.723   4.751
 5285WAT     H116097   9.577   0.695   4.751
 5285WAT     H216098   9.462   0.783   4.673
 5286WAT      O16099   9.110   1.480   1.452
 5286WAT     H116100   9.061   1.441   1.530
 5286WAT     H216101   9.108   1.580   1.458
 5287WAT      O16102   6.187   1.143   7.659
 5287WAT     H116103   6.124   1.219   7.643
 5287WAT     H216104   6.187   1.118   7.756
 5288WAT      O16105   5.195   2.305   3.397
 5288WAT     H116106   5.264   2.345   3.456
 5288WAT     H216107   5.236   2.233   3.340
 5289WAT      O16108   5.422   2.661   7.431
 5289WAT     H116109   5.400   2.600   7.507
 5289WAT     H216110   5.412   2.612   7.344
 5290WAT      O16111   4.385   3.269   6.345
 5290WAT     H116112   4.298   3.235   6.309
 5290WAT     H216113   4.460   3.221   6.301
 5291WAT      O16114   7.079   1.327   7.055
 5291WAT     H116115   7.060   1.402   7.119
 5291WAT     H216116   7.131   1.362   6.977
 5292WAT      O16117   8.538   2.634   8.221
 5292WAT     H116118   8.446   2.600   8.240
 5292WAT     H216119   8.574   2.678   8.304
 5293WAT      O16120   1.887   8.854   3.266
 5293WAT     H116121   1.876   8.852   3.365
 5293WAT     H216122   1.984   8.856   3.243
 5294WAT      O16123   4.037   6.753   4.982
 5294WAT     H116124   4.118   6.704   4.948
 5294WAT     H216125   3.999   6.702   5.059
 5295WAT      O16126   1.256   2.205   2.067
 5295WAT     H116127   1.162   2.217   2.036
 5295WAT     H216128   1.318   2.250   2.004
 5296WAT      O16129   4.321   2.547   5.589
 5296WAT     H116130   4.328   2.561   5.688
 5296WAT     H216131   4.336   2.634   5.543
 5297WAT      O16132   8.106   6.026   3.570
 5297WAT     H116133   8.180   5.976   3.525
 5297WAT     H216134   8.124   6.031   3.668
 5298WAT      O16135   5.067   8.590   6.315
 5298WAT     H116136   5.135   8.659   6.340
 5298WAT     H216137   5.031   8.548   6.398
 5299WAT      O16138   9.751   8.770   7.632
 5299WAT     H116139   9.797   8.684   7.611
 5299WAT     H216140   9.797   8.815   7.709
 5300WAT      O16141   6.612   0.286   7.970
 5300WAT     H116142   6.690   0.236   7.936
 5300WAT     H216143   6.643   0.364   8.025
 5301WAT      O16144   5.581   6.808   3.798
 5301WAT     H116145   5.670   6.833   3.837
 5301WAT     H216146   5.590   6.722   3.747
 5302WAT      O16147   9.582   8.990   5.078
 5302WAT     H116148   9.501   9.048   5.073
 5302WAT     H216149   9.664   9.046   5.065
 5303WAT      O16150   2.711   3.264   2.726
 5303WAT     H116151   2.659   3.281   2.810
 5303WAT     H216152   2.651   3.220   2.658
 5304WAT      O16153   9.092   3.316   7.350
 5304WAT     H116154   9.004   3.318   7.302
 5304WAT     H216155   9.120   3.410   7.372
 5305WAT      O16156   6.237   5.007   1.165
 5305WAT     H116157   6.230   4.984   1.068
 5305WAT     H216158   6.197   5.097   1.181
 5306WAT      O16159   5.843   0.876   0.292
 5306WAT     H116160   5.760   0.884   0.237
 5306WAT     H216161   5.921   0.912   0.239
 5307WAT      O16162   0.453   2.803   7.209
 5307WAT     H116163   0.520   2.871   7.239
 5307WAT     H216164   0.408   2.835   7.126
 5308WAT      O16165   3.278   4.236   6.656
 5308WAT     H116166   3.178   4.240   6.665
 5308WAT     H216167   3.317   4.196   6.738
 5309WAT      O16168   9.795   0.709   0.615
 5309WAT     H116169   9.698   0.734   0.619
 5309WAT     H216170   9.832   0.703   0.707
 5310WAT      O16171   6.527   6.948   4.080
 5310WAT     H116172   6.547   6.890   4.000
 5310WAT     H216173   6.595   7.021   4.086
 5311WAT      O16174   4.076   6.436   0.211
 5311WAT     H116175   4.105   6.342   0.229
 5311WAT     H216176   3.981   6.448   0.239
 5312WAT      O16177   4.223   0.018   0.425
 5312WAT     H116178   4.255  -0.012   0.335
 5312WAT     H216179   4.292  -0.001   0.494
 5313WAT      O16180   2.544   3.823   6.344
 5313WAT     H116181   2.464   3.848   6.289
 5313WAT     H216182   2.572   3.901   6.400
 5314WAT      O16183   9.594   6.887   0.451
 5314WAT     H116184   9.553   6.843   0.531
 5314WAT     H216185   9.531   6.880   0.373
 5315WAT      O16186   9.414   7.176   4.566
 5315WAT     H116187   9.385   7.092   4.613
 5315WAT     H216188   9.335   7.216   4.520
 5316WAT      O16189   2.921   4.903   9.726
 5316WAT     H116190   2.952   4.808   9.726
 5316WAT     H216191   2.886   4.927   9.636
 5317WAT      O16192   3.604   3.058   0.016
 5317WAT     H116193   3.515   3.104   0.026
 5317WAT     H216194   3.629   3.055  -0.081
 5318WAT      O16195   1.841   3.220   3.871
 5318WAT     H116196   1.864   3.141   3.927
 5318WAT     H216197   1.858   3.199   3.774
 5319WAT      O16198   4.440   5.014   8.434
 5319WAT     H116199   4.341   5.020   8.420
 5319WAT     H216200   4.461   4.936   8.492
 5320WAT      O16201   4.087   1.439   0.262
 5320WAT     H116202   4.096   1.533   0.228
 5320WAT     H216203   4.013   1.393   0.213
 5321WAT      O16204   7.804   3.419   4.148
 5321WAT     H116205   7.901   3.395   4.149
 5321WAT     H216206   7.771   3.425   4.054
 5322WAT      O16207   8.628   0.388   2.604
 5322WAT     H116208   8.602   0.315   2.540
 5322WAT     H216209   8.704   0.440   2.565
 5323WAT      O16210   6.616   3.513   2.624
 5323WAT     H116211   6.591   3.429   2.575
 5323WAT     H216212   6.713   3.509   2.648
 5324WAT      O16213   1.263   6.207   2.100
 5324WAT     H116214   1.230   6.269   2.029
 5324WAT     H216215   1.337   6.251   2.152
 5325WAT      O16216   4.682   0.421   4.328
 5325WAT     H116217   4.654   0.413   4.423
 5325WAT     H216218   4.640   0.501   4.287
 5326WAT      O16219   8.104   1.838   2.313
 5326WAT     H116220   8.055   1.890   2.243
 5326WAT     H216221   8.134   1.751   2.275
 5327WAT      O16222   1.072   7.905   0.610
 5327WAT     H116223   1.169   7.906   0.586
 5327WAT     H216224   1.035   7.997   0.602
 5328WAT      O16225   1.216   2.394   7.158
 5328WAT     H116226   1.179   2.436   7.076
 5328WAT     H216227   1.142   2.355   7.213
 5329WAT      O16228   2.642   0.655   7.590
 5329WAT     H116229   2.616   0.685   7.498
 5329WAT     H216230   2.662   0.557   7.590
 5330WAT      O16231   7.439   1.110   5.609
 5330WAT     H116232   7.415   1.022   5.568
 5330WAT     H216233   7.535   1.131   5.588
 5331WAT      O16234   7.029   2.813   8.851
 5331WAT     H116235   6.967   2.859   8.915
 5331WAT     H216236   7.085   2.882   8.804
 5332WAT      O16237   3.644   1.880   5.267
 5332WAT     H116238   3.709   1.830   5.209
 5332WAT     H216239   3.578   1.927   5.209
 5333WAT      O16240   7.831   4.821   3.762
 5333WAT     H116241   7.916   4.776   3.734
 5333WAT     H216242   7.812   4.800   3.858
 5334WAT      O16243   3.723   2.815   9.180
 5334WAT     H116244   3.669   2.735   9.205
 5334WAT     H216245   3.813   2.809   9.223
 5335WAT      O16246   0.186   6.931   3.379
 5335WAT     H116247   0.234   6.953   3.465
 5335WAT     H216248   0.087   6.938   3.394
 5336WAT      O16249   0.462   8.165   5.969
 5336WAT     H116250   0.439   8.224   5.892
 5336WAT     H216251   0.561   8.160   5.979
 5337WAT      O16252   4.789   1.449   3.647
 5337WAT     H116253   4.714   1.390   3.676
 5337WAT     H216254   4.808   1.434   3.550
 5338WAT      O16255   8.795   1.042   8.963
 5338WAT     H116256   8.875   1.100   8.951
 5338WAT     H216257   8.743   1.073   9.043
 5339WAT      O16258   0.778   9.188   7.145
 5339WAT     H116259   0.733   9.102   7.171
 5339WAT     H216260   0.729   9.229   7.068
 5340WAT      O16261   0.186   5.115   6.944
 5340WAT     H116262   0.168   5.161   7.031
 5340WAT     H216263   0.125   5.036   6.935
 5341WAT      O16264   3.016   9.256   1.310
 5341WAT     H116265   3.091   9.235   1.373
 5341WAT     H216266   2.969   9.338   1.342
 5342WAT      O16267   2.874   5.739   1.896
 5342WAT     H116268   2.829   5.732   1.806
 5342WAT     H216269   2.879   5.834   1.924
 5343WAT      O16270   1.088   0.683   6.592
 5343WAT     H116271   1.117   0.730   6.676
 5343WAT     H216272   1.116   0.587   6.596
 5344WAT      O16273   5.144   4.945   8.553
 5344WAT     H116274   5.066   4.963   8.493
 5344WAT     H216275   5.170   4.849   8.546
 5345WAT      O16276   5.256   6.103   0.335
 5345WAT     H116277   5.328   6.101   0.266
 5345WAT     H216278   5.275   6.034   0.405
 5346WAT      O16279   5.733   0.814   4.284
 5346WAT     H116280   5.828   0.784   4.292
 5346WAT     H216281   5.701   0.797   4.191
 5347WAT      O16282   5.194   8.223   0.695
 5347WAT     H116283   5.220   8.265   0.782
 5347WAT     H216284   5.267   8.161   0.666
 5348WAT      O16285   5.962   8.589   5.066
 5348WAT     H116286   6.056   8.560   5.048
 5348WAT     H216287   5.901   8.510   5.061
 5349WAT      O16288   0.336   7.581   6.182
 5349WAT     H116289   0.287   7.551   6.264
 5349WAT     H216290   0.281   7.563   6.101
 5350WAT      O16291   9.038   0.746   2.109
 5350WAT     H116292   9.116   0.737   2.047
 5350WAT     H216293   8.987   0.660   2.112
 5351WAT      O16294   1.238   1.987   1.281
 5351WAT     H116295   1.307   1.934   1.232
 5351WAT     H216296   1.281   2.068   1.323
 5352WAT      O16297   9.839   6.607   4.509
 5352WAT     H116298   9.847   6.544   4.432
 5352WAT     H216299   9.742   6.624   4.529
 5353WAT      O16300   3.349   4.172   5.068
 5353WAT     H116301   3.439   4.140   5.099
 5353WAT     H216302   3.280   4.146   5.136
 5354WAT      O16303   3.711   8.319   8.544
 5354WAT     H116304   3.728   8.311   8.446
 5354WAT     H216305   3.716   8.228   8.587
 5355WAT      O16306   4.398   6.426   0.331
 5355WAT     H116307   4.355   6.429   0.421
 5355WAT     H216308   4.492   6.459   0.338
 5356WAT      O16309   3.461   5.157   4.439
 5356WAT     H116310   3.549   5.128   4.476
 5356WAT     H216311   3.461   5.142   4.340
 5357WAT      O16312   9.867   4.166   4.662
 5357WAT     H116313   9.822   4.082   4.631
 5357WAT     H216314   9.842   4.241   4.601
 5358WAT      O16315   7.352   1.700   3.375
 5358WAT     H116316   7.286   1.746   3.434
 5358WAT     H216317   7.319   1.699   3.281
 5359WAT      O16318   3.058   9.669   1.188
 5359WAT     H116319   2.990   9.613   1.140
 5359WAT     H216320   3.011   9.740   1.241
 5360WAT      O16321   2.196   9.350   4.722
 5360WAT     H116322   2.235   9.439   4.699
 5360WAT     H216323   2.215   9.286   4.648
 5361WAT      O16324   5.736   2.934   6.707
 5361WAT     H116325   5.802   3.005   6.732
 5361WAT     H216326   5.699   2.954   6.617
 5362WAT      O16327   7.760   2.105   5.975
 5362WAT     H116328   7.673   2.081   5.933
 5362WAT     H216329   7.824   2.136   5.904
 5363WAT      O16330   5.504   5.114   0.418
 5363WAT     H116331   5.469   5.102   0.511
 5363WAT     H216332   5.432   5.154   0.360
 5364WAT      O16333   0.766   3.532   0.911
 5364WAT     H116334   0.816   3.486   0.838
 5364WAT     H216335   0.669   3.510   0.903
 5365WAT      O16336   4.447   6.004   7.863
 5365WAT     H116337   4.509   6.009   7.784
 5365WAT     H216338   4.370   6.065   7.849
 5366WAT      O16339   8.281   4.427   3.426
 5366WAT     H116340   8.352   4.393   3.365
 5366WAT     H216341   8.206   4.467   3.373
 5367WAT      O16342   1.452   5.876   8.860
 5367WAT     H116343   1.391   5.895   8.938
 5367WAT     H216344   1.516   5.952   8.849
 5368WAT      O16345   9.568   2.456   1.614
 5368WAT     H116346   9.483   2.456   1.666
 5368WAT     H216347   9.567   2.532   1.549
 5369WAT      O16348   3.500   5.581   1.881
 5369WAT     H116349   3.474   5.561   1.787
 5369WAT     H216350   3.471   5.505   1.940
 5370WAT      O16351   2.116   8.635   8.463
 5370WAT     H116352   2.145   8.539   8.471
 5370WAT     H216353   2.049   8.655   8.534
 5371WAT      O16354   2.163   0.424   7.119
 5371WAT     H116355   2.122   0.477   7.194
 5371WAT     H216356   2.162   0.479   7.036
 5372WAT      O16357   2.256   0.167   9.729
 5372WAT     H116358   2.251   0.068   9.740
 5372WAT     H216359   2.348   0.193   9.700
 5373WAT      O16360   3.606   9.108   7.278
 5373WAT     H116361   3.655   9.109   7.191
 5373WAT     H216362   3.607   9.199   7.319
 5374WAT      O16363   4.143   7.865   8.504
 5374WAT     H116364   4.235   7.896   8.529
 5374WAT     H216365   4.137   7.766   8.511
 5375WAT      O16366   8.765   5.764   8.417
 5375WAT     H116367   8.785   5.787   8.512
 5375WAT     H216368   8.810   5.830   8.357
 5376WAT      O16369   1.974   8.165   3.328
 5376WAT     H116370   2.066   8.131   3.351
 5376WAT     H216371   1.977   8.265   3.323
 5377WAT      O16372   5.568   4.249   4.250
 5377WAT     H116373   5.654   4.200   4.259
 5377WAT     H216374   5.508   4.226   4.327
 5378WAT      O16375   2.762   6.202   4.465
 5378WAT     H116376   2.737   6.299   4.469
 5378WAT     H216377   2.729   6.155   4.546
 5379WAT      O16378   8.201   1.111   0.377
 5379WAT     H116379   8.223   1.125   0.473
 5379WAT     H216380   8.203   1.199   0.329
 5380WAT      O16381   6.314   4.368   6.345
 5380WAT     H116382   6.302   4.270   6.358
 5380WAT     H216383   6.335   4.411   6.433
 5381WAT      O16384   0.498   1.868   6.195
 5381WAT     H116385   0.546   1.841   6.112
 5381WAT     H216386   0.407   1.903   6.171
 5382WAT      O16387   5.560   4.650   7.105
 5382WAT     H116388   5.516   4.734   7.074
 5382WAT     H216389   5.659   4.663   7.106
 5383WAT      O16390   9.730   4.672   8.641
 5383WAT     H116391   9.732   4.739   8.567
 5383WAT     H216392   9.648   4.686   8.697
 5384WAT      O16393   5.446   0.851   9.094
 5384WAT     H116394   5.399   0.847   9.182
 5384WAT     H216395   5.473   0.946   9.076
 5385WAT      O16396   9.806   9.593   2.887
 5385WAT     H116397   9.832   9.530   2.959
 5385WAT     H216398   9.713   9.574   2.858
 5386WAT      O16399   0.508   7.909   2.007
 5386WAT     H116400   0.522   7.956   1.921
 5386WAT     H216401   0.431   7.949   2.056
 5387WAT      O16402   0.549   8.409   9.257
 5387WAT     H116403   0.520   8.491   9.307
 5387WAT     H216404   0.504   8.407   9.168
 5388WAT      O16405   0.362   4.404   8.841
 5388WAT     H116406   0.275   4.367   8.809
 5388WAT     H216407   0.383   4.367   8.932
 5389WAT      O16408   5.242   6.569   9.511
 5389WAT     H116409   5.145   6.558   9.533
 5389WAT     H216410   5.295   6.504   9.564
 5390WAT      O16411   9.139   1.815   8.071
 5390WAT     H116412   9.142   1.716   8.060
 5390WAT     H216413   9.205   1.843   8.140
 5391WAT      O16414   4.000   6.216   7.019
 5391WAT     H116415   3.963   6.140   7.072
 5391WAT     H216416   3.990   6.301   7.072
 5392WAT      O16417   7.858   2.118   2.769
 5392WAT     H116418   7.898   2.084   2.854
 5392WAT     H216419   7.827   2.040   2.714
 5393WAT      O16420   5.758   6.686   8.436
 5393WAT     H116421   5.755   6.777   8.394
 5393WAT     H216422   5.854   6.659   8.449
 5394WAT      O16423   0.267   4.409   6.022
 5394WAT     H116424   0.288   4.316   5.993
 5394WAT     H216425   0.328   4.436   6.096
 5395WAT      O16426   8.356   0.424   7.410
 5395WAT     H116427   8.390   0.514   7.385
 5395WAT     H216428   8.278   0.434   7.472
 5396WAT      O16429   5.004   3.772   1.836
 5396WAT     H116430   5.065   3.840   1.795
 5396WAT     H216431   4.917   3.816   1.860
 5397WAT      O16432   0.403   4.312   1.964
 5397WAT     H116433   0.416   4.213   1.962
 5397WAT     H216434   0.372   4.344   1.875
 5398WAT      O16435   7.328   3.482   7.307
 5398WAT     H116436   7.289   3.570   7.334
 5398WAT     H216437   7.427   3.491   7.295
 5399WAT      O16438   9.271   4.404   7.345
 5399WAT     H116439   9.254   4.501   7.362
 5399WAT     H216440   9.358   4.377   7.385
 5400WAT      O16441   3.344   1.865   5.369
 5400WAT     H116442   3.434   1.839   5.402
 5400WAT     H216443   3.293   1.783   5.343
 5401WAT      O16444   0.205   5.486   5.578
 5401WAT     H116445   0.230   5.510   5.672
 5401WAT     H216446   0.170   5.567   5.532
 5402WAT      O16447   4.701   2.170   7.159
 5402WAT     H116448   4.769   2.125   7.217
 5402WAT     H216449   4.722   2.267   7.151
 5403WAT      O16450   0.444   7.467   9.643
 5403WAT     H116451   0.353   7.455   9.683
 5403WAT     H216452   0.496   7.532   9.698
 5404WAT      O16453   0.543   7.698   9.015
 5404WAT     H116454   0.604   7.775   8.996
 5404WAT     H216455   0.598   7.616   9.031
 5405WAT      O16456   0.702   3.932   3.493
 5405WAT     H116457   0.734   3.846   3.453
 5405WAT     H216458   0.606   3.922   3.520
 5406WAT      O16459   5.565   4.442   9.467
 5406WAT     H116460   5.612   4.423   9.553
 5406WAT     H216461   5.623   4.500   9.409
 5407WAT      O16462   5.234   2.719   0.274
 5407WAT     H116463   5.274   2.640   0.320
 5407WAT     H216464   5.147   2.693   0.232
 5408WAT      O16465   7.985   3.334   2.270
 5408WAT     H116466   7.966   3.366   2.363
 5408WAT     H216467   7.924   3.258   2.247
 5409WAT      O16468   1.570   9.779   6.614
 5409WAT     H116469   1.615   9.693   6.635
 5409WAT     H216470   1.578   9.798   6.516
 5410WAT      O16471   2.723   3.137   0.594
 5410WAT     H116472   2.792   3.179   0.652
 5410WAT     H216473   2.655   3.091   0.651
 5411WAT      O16474   1.384   1.433   4.665
 5411WAT     H116475   1.466   1.490   4.665
 5411WAT     H216476   1.321   1.464   4.736
 5412WAT      O16477   6.349   0.968   0.776
 5412WAT     H116478   6.318   0.880   0.739
 5412WAT     H216479   6.448   0.970   0.779
 5413WAT      O16480   4.891   7.780   3.179
 5413WAT     H116481   4.832   7.764   3.100
 5413WAT     H216482   4.986   7.762   3.153
 5414WAT      O16483   9.851   8.340   2.476
 5414WAT     H116484   9.759   8.378   2.467
 5414WAT     H216485   9.851   8.269   2.547
 5415WAT      O16486   3.276   4.994   1.762
 5415WAT     H116487   3.322   5.070   1.716
 5415WAT     H216488   3.233   4.935   1.694
 5416WAT      O16489   3.690   6.568   8.236
 5416WAT     H116490   3.669   6.647   8.178
 5416WAT     H216491   3.619   6.558   8.306
 5417WAT      O16492   0.920   9.289   0.642
 5417WAT     H116493   0.877   9.375   0.616
 5417WAT     H216494   0.918   9.226   0.565
 5418WAT      O16495   8.336   7.914   0.285
 5418WAT     H116496   8.399   7.837   0.297
 5418WAT     H216497   8.316   7.955   0.374
 5419WAT      O16498   5.139   8.533   8.220
 5419WAT     H116499   5.232   8.560   8.198
 5419WAT     H216500   5.087   8.612   8.251
 5420WAT      O16501   9.509   5.736   7.808
 5420WAT     H116502   9.567   5.812   7.776
 5420WAT     H216503   9.477   5.756   7.901
 5421WAT      O16504   6.023   0.114   9.563
 5421WAT     H116505   5.976   0.158   9.640
 5421WAT     H216506   6.111   0.079   9.595
 5422WAT      O16507   2.255   9.546   5.427
 5422WAT     H116508   2.344   9.582   5.400
 5422WAT     H216509   2.206   9.614   5.482
 5423WAT      O16510   0.704   9.107   2.537
 5423WAT     H116511   0.686   9.009   2.533
 5423WAT     H216512   0.630   9.153   2.586
 5424WAT      O16513   6.093   6.939   7.815
 5424WAT     H116514   6.033   6.863   7.840
 5424WAT     H216515   6.145   6.915   7.732
 5425WAT      O16516   8.390   6.144   7.079
 5425WAT     H116517   8.341   6.175   7.161
 5425WAT     H216518   8.413   6.048   7.088
 5426WAT      O16519   5.474   5.085   3.197
 5426WAT     H116520   5.469   5.089   3.297
 5426WAT     H216521   5.567   5.108   3.168
 5427WAT      O16522   1.235   4.683   3.839
 5427WAT     H116523   1.289   4.602   3.817
 5427WAT     H216524   1.263   4.719   3.928
 5428WAT      O16525   6.566   5.635   3.982
 5428WAT     H116526   6.546   5.720   4.031
 5428WAT     H216527   6.665   5.627   3.969
 5429WAT      O16528   3.658   7.721   8.009
 5429WAT     H116529   3.595   7.792   8.038
 5429WAT     H216530   3.623   7.632   8.037
 5430WAT      O16531   1.810   0.878   5.677
 5430WAT     H116532   1.713   0.858   5.691
 5430WAT     H216533   1.821   0.972   5.644
 5431WAT      O16534   5.257   2.696   6.817
 5431WAT     H116535   5.164   2.670   6.843
 5431WAT     H216536   5.310   2.613   6.797
 5432WAT      O16537   3.757   5.088   7.048
 5432WAT     H116538   3.668   5.073   7.006
 5432WAT     H216539   3.800   5.169   7.008
 5433WAT      O16540   0.536   8.460   1.541
 5433WAT     H116541   0.560   8.403   1.619
 5433WAT     H216542   0.605   8.531   1.528
 5434WAT      O16543   8.036   4.206   0.892
 5434WAT     H116544   8.066   4.131   0.832
 5434WAT     H216545   8.117   4.250   0.932
 5435WAT      O16546   3.391   4.804   0.276
 5435WAT     H116547   3.415   4.717   0.231
 5435WAT     H216548   3.358   4.869   0.207
 5436WAT      O16549   6.757   1.715   3.752
 5436WAT     H116550   6.830   1.647   3.765
 5436WAT     H216551   6.791   1.805   3.779
 5437WAT      O16552   4.617   2.534   6.963
 5437WAT     H116553   4.677   2.481   6.903
 5437WAT     H216554   4.533   2.557   6.914
 5438WAT      O16555   3.656   0.591   8.004
 5438WAT     H116556   3.572   0.629   8.042
 5438WAT     H216557   3.650   0.492   7.999
 5439WAT      O16558   3.725   0.130   2.684
 5439WAT     H116559   3.642   0.086   2.650
 5439WAT     H216560   3.700   0.205   2.745
 5440WAT      O16561   4.354   7.245   4.532
 5440WAT     H116562   4.430   7.216   4.475
 5440WAT     H216563   4.286   7.292   4.476
 5441WAT      O16564   1.527   0.832   8.456
 5441WAT     H116565   1.481   0.789   8.534
 5441WAT     H216566   1.596   0.896   8.489
 5442WAT      O16567   0.032   2.722   6.699
 5442WAT     H116568   0.073   2.655   6.637
 5442WAT     H216569   0.028   2.683   6.792
 5443WAT      O16570   0.261   0.488   6.123
 5443WAT     H116571   0.334   0.552   6.099
 5443WAT     H216572   0.269   0.406   6.065
 5444WAT      O16573   2.557   3.904   5.494
 5444WAT     H116574   2.482   3.845   5.523
 5444WAT     H216575   2.534   3.947   5.407
 5445WAT      O16576   3.391   8.666   9.103
 5445WAT     H116577   3.383   8.597   9.032
 5445WAT     H216578   3.470   8.725   9.082
 5446WAT      O16579   8.969   3.432   2.301
 5446WAT     H116580   8.923   3.466   2.382
 5446WAT     H216581   9.026   3.353   2.325
 5447WAT      O16582   5.562   4.583   8.922
 5447WAT     H116583   5.622   4.522   8.871
 5447WAT     H216584   5.586   4.579   9.019
 5448WAT      O16585   7.600   9.750   9.836
 5448WAT     H116586   7.641   9.794   9.756
 5448WAT     H216587   7.533   9.812   9.877
 5449WAT      O16588   3.868   7.498   7.187
 5449WAT     H116589   3.820   7.578   7.152
 5449WAT     H216590   3.850   7.488   7.285
 5450WAT      O16591   5.678   0.245   2.058
 5450WAT     H116592   5.630   0.171   2.009
 5450WAT     H216593   5.739   0.205   2.126
 5451WAT      O16594   5.457   0.697   9.508
 5451WAT     H116595   5.518   0.654   9.442
 5451WAT     H216596   5.509   0.725   9.588
 5452WAT      O16597   7.998   5.104   6.276
 5452WAT     H116598   8.036   5.164   6.346
 5452WAT     H216599   7.939   5.157   6.215
 5453WAT      O16600   5.399   8.622   1.295
 5453WAT     H116601   5.386   8.549   1.362
 5453WAT     H216602   5.475   8.599   1.235
 5454WAT      O16603   9.144   0.878   3.980
 5454WAT     H116604   9.231   0.837   3.954
 5454WAT     H216605   9.138   0.883   4.079
 5455WAT      O16606   7.545   0.629   9.367
 5455WAT     H116607   7.539   0.659   9.271
 5455WAT     H216608   7.594   0.543   9.372
 5456WAT      O16609   8.877   1.115   7.583
 5456WAT     H116610   8.825   1.108   7.498
 5456WAT     H216611   8.974   1.102   7.565
 5457WAT      O16612   7.056   8.012   6.455
 5457WAT     H116613   7.031   7.917   6.435
 5457WAT     H216614   6.999   8.074   6.400
 5458WAT      O16615   8.728   3.915   2.243
 5458WAT     H116616   8.818   3.898   2.202
 5458WAT     H216617   8.729   4.005   2.287
 5459WAT      O16618   4.990   8.863   2.313
 5459WAT     H116619   5.011   8.770   2.344
 5459WAT     H216620   4.893   8.870   2.291
 5460WAT      O16621   4.374   7.745   8.234
 5460WAT     H116622   4.348   7.678   8.165
 5460WAT     H216623   4.379   7.836   8.193
 5461WAT      O16624   9.033   9.239   9.190
 5461WAT     H116625   9.085   9.324   9.200
 5461WAT     H216626   8.940   9.252   9.223
 5462WAT      O16627   6.626   0.860   0.847
 5462WAT     H116628   6.558   0.790   0.867
 5462WAT     H216629   6.660   0.899   0.932
 5463WAT      O16630   4.482   8.899   0.742
 5463WAT     H116631   4.408   8.958   0.710
 5463WAT     H216632   4.517   8.932   0.830
 5464WAT      O16633   8.812   5.193   2.150
 5464WAT     H116634   8.726   5.145   2.166
 5464WAT     H216635   8.871   5.138   2.091
 5465WAT      O16636   6.663   5.230   6.102
 5465WAT     H116637   6.664   5.196   6.196
 5465WAT     H216638   6.572   5.265   6.080
 5466WAT      O16639   7.145   8.316   6.104
 5466WAT     H116640   7.224   8.257   6.120
 5466WAT     H216641   7.092   8.282   6.027
 5467WAT      O16642   8.845   1.763   3.069
 5467WAT     H116643   8.811   1.790   2.979
 5467WAT     H216644   8.945   1.752   3.065
 5468WAT      O16645   1.687   1.607   8.149
 5468WAT     H116646   1.725   1.571   8.235
 5468WAT     H216647   1.616   1.546   8.116
 5469WAT      O16648   5.099   5.412   4.577
 5469WAT     H116649   5.128   5.382   4.668
 5469WAT     H216650   5.013   5.463   4.585
 5470WAT      O16651   8.495   9.053   4.543
 5470WAT     H116652   8.416   9.028   4.487
 5470WAT     H216653   8.575   9.066   4.484
 5471WAT      O16654   8.614   0.069   8.258
 5471WAT     H116655   8.538   0.134   8.263
 5471WAT     H216656   8.680   0.090   8.330
 5472WAT      O16657   3.597   3.982   9.249
 5472WAT     H116658   3.600   3.888   9.215
 5472WAT     H216659   3.689   4.021   9.246
 5473WAT      O16660   3.527   4.618   2.854
 5473WAT     H116661   3.467   4.635   2.933
 5473WAT     H216662   3.613   4.666   2.867
 5474WAT      O16663   7.710   3.611   7.989
 5474WAT     H116664   7.690   3.515   7.969
 5474WAT     H216665   7.785   3.616   8.054
 5475WAT      O16666   5.029   9.460   8.428
 5475WAT     H116667   5.049   9.548   8.471
 5475WAT     H216668   5.100   9.394   8.454
 5476WAT      O16669   2.200   2.054   3.895
 5476WAT     H116670   2.229   1.983   3.830
 5476WAT     H216671   2.125   2.018   3.951
 5477WAT      O16672   6.353   7.362   5.765
 5477WAT     H116673   6.438   7.326   5.727
 5477WAT     H216674   6.370   7.451   5.808
 5478WAT      O16675   2.074   4.653   6.342
 5478WAT     H116676   2.025   4.677   6.258
 5478WAT     H216677   2.163   4.699   6.343
 5479WAT      O16678   7.193   0.033   0.955
 5479WAT     H116679   7.199   0.132   0.941
 5479WAT     H216680   7.277   0.000   0.997
 5480WAT      O16681   3.818   8.799   8.672
 5480WAT     H116682   3.726   8.822   8.639
 5480WAT     H216683   3.855   8.877   8.723
 5481WAT      O16684   0.516   4.236   6.347
 5481WAT     H116685   0.616   4.231   6.339
 5481WAT     H216686   0.474   4.169   6.286
 5482WAT      O16687   0.421   1.957   4.158
 5482WAT     H116688   0.435   1.867   4.117
 5482WAT     H216689   0.370   2.015   4.095
 5483WAT      O16690   8.741   7.202   2.620
 5483WAT     H116691   8.712   7.247   2.535
 5483WAT     H216692   8.675   7.224   2.692
 5484WAT      O16693   4.667   7.148   2.997
 5484WAT     H116694   4.740   7.157   3.065
 5484WAT     H216695   4.653   7.236   2.952
 5485WAT      O16696   5.038   0.517   3.031
 5485WAT     H116697   4.972   0.443   3.038
 5485WAT     H216698   5.002   0.598   3.079
 5486WAT      O16699   6.421   1.671   6.908
 5486WAT     H116700   6.411   1.624   6.996
 5486WAT     H216701   6.444   1.767   6.925
 5487WAT      O16702   0.869   1.487   2.993
 5487WAT     H116703   0.815   1.527   3.066
 5487WAT     H216704   0.909   1.560   2.937
 5488WAT      O16705   1.609   0.001   0.139
 5488WAT     H116706   1.531   0.052   0.103
 5488WAT     H216707   1.651   0.053   0.214
 5489WAT      O16708   2.534   4.446   5.928
 5489WAT     H116709   2.531   4.393   6.012
 5489WAT     H216710   2.455   4.422   5.871
 5490WAT      O16711   3.219   9.832   6.284
 5490WAT     H116712   3.224   9.920   6.332
 5490WAT     H216713   3.264   9.840   6.195
 5491WAT      O16714   2.862   0.530   3.026
 5491WAT     H116715   2.779   0.569   3.065
 5491WAT     H216716   2.916   0.602   2.984
 5492WAT      O16717   3.053   4.295   7.728
 5492WAT     H116718   3.045   4.369   7.795
 5492WAT     H216719   2.993   4.220   7.755
 5493WAT      O16720   4.197   8.194   7.719
 5493WAT     H116721   4.162   8.276   7.764
 5493WAT     H216722   4.172   8.113   7.773
 5494WAT      O16723   3.884   0.866   0.982
 5494WAT     H116724   3.863   0.834   1.075
 5494WAT     H216725   3.983   0.871   0.970
 5495WAT      O16726   1.483   8.671   9.176
 5495WAT     H116727   1.571   8.670   9.129
 5495WAT     H216728   1.422   8.737   9.132
 5496WAT      O16729   5.151   3.519   2.247
 5496WAT     H116730   5.203   3.434   2.256
 5496WAT     H216731   5.167   3.559   2.156
 5497WAT      O16732   3.598   8.831   5.298
 5497WAT     H116733   3.499   8.820   5.285
 5497WAT     H216734   3.616   8.917   5.345
 5498WAT      O16735   0.391   6.211   1.391
 5498WAT     H116736   0.354   6.272   1.321
 5498WAT     H216737   0.317   6.176   1.448
 5499WAT      O16738   2.893   3.344   0.740
 5499WAT     H116739   2.803   3.372   0.774
 5499WAT     H216740   2.964   3.373   0.803
 5500WAT      O16741   5.735   2.107   9.100
 5500WAT     H116742   5.746   2.206   9.104
 5500WAT     H216743   5.824   2.063   9.105
 5501WAT      O16744   5.100   8.659   3.161
 5501WAT     H116745   5.022   8.652   3.099
 5501WAT     H216746   5.149   8.744   3.143
 5502WAT      O16747   7.214   5.315   4.545
 5502WAT     H116748   7.261   5.278   4.465
 5502WAT     H216749   7.260   5.399   4.575
 5503WAT      O16750   8.169   8.813   0.799
 5503WAT     H116751   8.167   8.766   0.888
 5503WAT     H216752   8.200   8.750   0.729
 5504WAT      O16753   6.056   2.710   8.593
 5504WAT     H116754   5.980   2.691   8.530
 5504WAT     H216755   6.085   2.805   8.584
 5505WAT      O16756   1.874   0.400   1.453
 5505WAT     H116757   1.788   0.360   1.484
 5505WAT     H216758   1.884   0.492   1.490
 5506WAT      O16759   5.014   5.473   1.319
 5506WAT     H116760   5.108   5.479   1.286
 5506WAT     H216761   5.014   5.435   1.412
 5507WAT      O16762   4.957   2.246   3.935
 5507WAT     H116763   4.881   2.253   4.000
 5507WAT     H216764   4.953   2.158   3.888
 5508WAT      O16765   4.732   7.051   0.034
 5508WAT     H116766   4.672   7.065  -0.045
 5508WAT     H216767   4.763   7.140   0.067
 5509WAT      O16768   7.070   2.733   3.472
 5509WAT     H116769   7.068   2.662   3.401
 5509WAT     H216770   6.992   2.722   3.533
 5510WAT      O16771   5.946   8.592   9.553
 5510WAT     H116772   5.972   8.496   9.545
 5510WAT     H216773   5.958   8.623   9.647
 5511WAT      O16774   3.778   8.313   1.806
 5511WAT     H116775   3.778   8.388   1.872
 5511WAT     H216776   3.684   8.291   1.780
 5512WAT      O16777   1.911   9.589   1.458
 5512WAT     H116778   1.835   9.654   1.447
 5512WAT     H216779   1.977   9.603   1.385
 5513WAT      O16780   5.373   4.862   0.317
 5513WAT     H116781   5.374   4.962   0.329
 5513WAT     H216782   5.337   4.840   0.226
 5514WAT      O16783   4.288   1.166   6.474
 5514WAT     H116784   4.274   1.145   6.377
 5514WAT     H216785   4.349   1.097   6.514
 5515WAT      O16786   4.662   7.095   1.472
 5515WAT     H116787   4.656   7.183   1.520
 5515WAT     H216788   4.652   7.110   1.374
 5516WAT      O16789   9.370   2.402   3.285
 5516WAT     H116790   9.439   2.330   3.281
 5516WAT     H216791   9.365   2.439   3.378
 5517WAT      O16792   7.739   5.894   3.087
 5517WAT     H116793   7.644   5.888   3.115
 5517WAT     H216794   7.792   5.821   3.130
 5518WAT      O16795   7.094   2.114   8.083
 5518WAT     H116796   7.079   2.109   8.182
 5518WAT     H216797   7.029   2.177   8.042
 5519WAT      O16798   3.727   7.877   3.254
 5519WAT     H116799   3.632   7.891   3.225
 5519WAT     H216800   3.764   7.963   3.288
 5520WAT      O16801   8.704   6.635   9.582
 5520WAT     H116802   8.732   6.580   9.660
 5520WAT     H216803   8.618   6.601   9.545
 5521WAT      O16804   5.565   1.451   4.317
 5521WAT     H116805   5.581   1.358   4.285
 5521WAT     H216806   5.510   1.449   4.400
 5522WAT      O16807   1.282   4.403   8.322
 5522WAT     H116808   1.318   4.424   8.231
 5522WAT     H216809   1.191   4.444   8.332
 5523WAT      O16810   7.039   0.365   7.641
 5523WAT     H116811   7.048   0.369   7.741
 5523WAT     H216812   6.973   0.434   7.611
 5524WAT      O16813   3.346   2.839   3.089
 5524WAT     H116814   3.445   2.823   3.090
 5524WAT     H216815   3.325   2.914   3.027
 5525WAT      O16816   1.707   4.266   1.021
 5525WAT     H116817   1.764   4.257   0.939
 5525WAT     H216818   1.708   4.179   1.071
 5526WAT      O16819   6.868   7.297   9.387
 5526WAT     H116820   6.839   7.204   9.365
 5526WAT     H216821   6.839   7.360   9.315
 5527WAT      O16822   6.085   5.271   2.071
 5527WAT     H116823   6.160   5.319   2.025
 5527WAT     H216824   6.109   5.174   2.082
 5528WAT      O16825   7.952   7.301   2.203
 5528WAT     H116826   7.967   7.205   2.182
 5528WAT     H216827   7.887   7.340   2.138
 5529WAT      O16828   3.486   0.708   9.750
 5529WAT     H116829   3.543   0.762   9.813
 5529WAT     H216830   3.391   0.712   9.780
 5530WAT      O16831   5.725   0.068   2.577
 5530WAT     H116832   5.725   0.107   2.485
 5530WAT     H216833   5.777  -0.018   2.576
 5531WAT      O16834   1.763   5.764   8.819
 5531WAT     H116835   1.783   5.860   8.804
 5531WAT     H216836   1.670   5.754   8.854
 5532WAT      O16837   4.515   7.450   9.092
 5532WAT     H116838   4.555   7.530   9.048
 5532WAT     H216839   4.426   7.431   9.052
 5533WAT      O16840   9.590   6.633   6.404
 5533WAT     H116841   9.539   6.635   6.490
 5533WAT     H216842   9.669   6.572   6.413
 5534WAT      O16843   5.286   2.060   3.288
 5534WAT     H116844   5.379   2.054   3.253
 5534WAT     H216845   5.227   1.996   3.238
 5535WAT      O16846   1.365   9.532   7.805
 5535WAT     H116847   1.394   9.617   7.761
 5535WAT     H216848   1.380   9.538   7.904
 5536WAT      O16849   4.732   4.006   3.983
 5536WAT     H116850   4.764   4.033   4.074
 5536WAT     H216851   4.673   3.925   3.991
 5537WAT      O16852   2.208   6.628   7.018
 5537WAT     H116853   2.255   6.627   7.107
 5537WAT     H216854   2.220   6.718   6.976
 5538WAT      O16855   3.532   3.907   4.375
 5538WAT     H116856   3.581   3.920   4.461
 5538WAT     H216857   3.442   3.868   4.393
 5539WAT      O16858   0.198   9.688   0.665
 5539WAT     H116859   0.224   9.612   0.725
 5539WAT     H216860   0.113   9.665   0.618
 5540WAT      O16861   8.100   7.972   1.361
 5540WAT     H116862   8.113   7.982   1.262
 5540WAT     H216863   8.036   7.897   1.378
 5541WAT      O16864   9.664   5.782   7.429
 5541WAT     H116865   9.732   5.739   7.369
 5541WAT     H216866   9.580   5.729   7.428
 5542WAT      O16867   7.746   6.120   4.460
 5542WAT     H116868   7.803   6.199   4.436
 5542WAT     H216869   7.730   6.120   4.559
 5543WAT      O16870   8.485   0.293   0.194
 5543WAT     H116871   8.553   0.323   0.260
 5543WAT     H216872   8.434   0.372   0.160
 5544WAT      O16873   5.916   0.748   5.314
 5544WAT     H116874   6.008   0.717   5.336
 5544WAT     H216875   5.906   0.844   5.339
 5545WAT      O16876   0.632   6.401   5.429
 5545WAT     H116877   0.730   6.384   5.417
 5545WAT     H216878   0.604   6.475   5.368
 5546WAT      O16879   5.219   1.928   9.705
 5546WAT     H116880   5.219   1.841   9.655
 5546WAT     H216881   5.149   1.988   9.667
 5547WAT      O16882   7.342   5.389   3.656
 5547WAT     H116883   7.359   5.433   3.744
 5547WAT     H216884   7.244   5.379   3.642
 5548WAT      O16885   9.749   7.279   8.982
 5548WAT     H116886   9.656   7.245   8.969
 5548WAT     H216887   9.813   7.220   8.933
 5549WAT      O16888   9.873   3.612   8.198
 5549WAT     H116889   9.837   3.676   8.266
 5549WAT     H216890   9.829   3.630   8.110
 5550WAT      O16891   9.381   9.294   7.807
 5550WAT     H116892   9.292   9.257   7.779
 5550WAT     H216893   9.418   9.350   7.733
 5551WAT      O16894   0.297   1.858   1.844
 5551WAT     H116895   0.263   1.765   1.829
 5551WAT     H216896   0.290   1.881   1.941
 5552WAT      O16897   7.197   7.815   2.912
 5552WAT     H116898   7.228   7.882   2.845
 5552WAT     H216899   7.257   7.819   2.992
 5553WAT      O16900   3.063   0.737   2.208
 5553WAT     H116901   2.994   0.779   2.149
 5553WAT     H216902   3.129   0.687   2.151
 5554WAT      O16903   2.107   7.094   5.093
 5554WAT     H116904   2.171   7.074   5.019
 5554WAT     H216905   2.022   7.044   5.078
 5555WAT      O16906   8.828   7.083   2.194
 5555WAT     H116907   8.772   7.140   2.253
 5555WAT     H216908   8.925   7.099   2.214
 5556WAT      O16909   7.928   5.761   8.073
 5556WAT     H116910   7.987   5.772   8.153
 5556WAT     H216911   7.959   5.821   8.000
 5557WAT      O16912   7.257   1.689   7.824
 5557WAT     H116913   7.243   1.771   7.879
 5557WAT     H216914   7.256   1.714   7.727
 5558WAT      O16915   0.328   5.027   4.278
 5558WAT     H116916   0.367   5.089   4.210
 5558WAT     H216917   0.254   5.073   4.327
 5559WAT      O16918   0.949   1.050   2.242
 5559WAT     H116919   0.951   0.972   2.305
 5559WAT     H216920   1.036   1.055   2.192
 5560WAT      O16921   0.602   3.619   1.489
 5560WAT     H116922   0.530   3.599   1.555
 5560WAT     H216923   0.619   3.538   1.433
 5561WAT      O16924   5.890   2.013   8.468
 5561WAT     H116925   5.973   2.069   8.463
 5561WAT     H216926   5.905   1.927   8.420
 5562WAT      O16927   7.575   9.311   3.502
 5562WAT     H116928   7.593   9.282   3.596
 5562WAT     H216929   7.545   9.406   3.501
 5563WAT      O16930   1.977   2.257   7.134
 5563WAT     H116931   1.919   2.314   7.191
 5563WAT     H216932   1.933   2.168   7.120
 5564WAT      O16933   8.833   5.071   3.423
 5564WAT     H116934   8.764   5.138   3.397
 5564WAT     H216935   8.921   5.098   3.384
 5565WAT      O16936   5.203   8.818   2.757
 5565WAT     H116937   5.112   8.778   2.770
 5565WAT     H216938   5.249   8.774   2.680
 5566WAT      O16939   3.183   1.074   0.393
 5566WAT     H116940   3.190   1.152   0.456
 5566WAT     H216941   3.140   0.997   0.441
 5567WAT      O16942   8.992   6.896   0.842
 5567WAT     H116943   8.966   6.931   0.931
 5567WAT     H216944   8.910   6.874   0.789
 5568WAT      O16945   7.882   8.443   6.024
 5568WAT     H116946   7.959   8.409   5.969
 5568WAT     H216947   7.889   8.542   6.034
 5569WAT      O16948   4.374   1.765   7.447
 5569WAT     H116949   4.438   1.701   7.489
 5569WAT     H216950   4.382   1.854   7.492
 5570WAT      O16951   8.651   8.293   9.701
 5570WAT     H116952   8.696   8.205   9.713
 5570WAT     H216953   8.673   8.330   9.610
 5571WAT      O16954   4.553   6.687   1.466
 5571WAT     H116955   4.628   6.680   1.400
 5571WAT     H216956   4.579   6.750   1.540
 5572WAT      O16957   1.530   1.290   3.646
 5572WAT     H116958   1.506   1.330   3.558
 5572WAT     H216959   1.455   1.304   3.711
 5573WAT      O16960   7.343   1.571   4.546
 5573WAT     H116961   7.356   1.473   4.565
 5573WAT     H216962   7.258   1.602   4.589
 5574WAT      O16963   6.785   5.577   7.813
 5574WAT     H116964   6.748   5.670   7.824
 5574WAT     H216965   6.880   5.576   7.841
 5575WAT      O16966   4.468   5.269   8.968
 5575WAT     H116967   4.451   5.367   8.974
 5575WAT     H216968   4.463   5.240   8.872
 5576WAT      O16969   0.103   1.720   6.262
 5576WAT     H116970   0.076   1.799   6.207
 5576WAT     H216971   0.021   1.679   6.303
 5577WAT      O16972   8.991   7.150   0.611
 5577WAT     H116973   8.941   7.064   0.615
 5577WAT     H216974   8.956   7.212   0.681
 5578WAT      O16975   5.673   1.982   4.324
 5578WAT     H116976   5.742   2.009   4.257
 5578WAT     H216977   5.601   2.050   4.328
 5579WAT      O16978   1.446   5.587   4.503
 5579WAT     H116979   1.437   5.631   4.413
 5579WAT     H216980   1.450   5.488   4.491
 5580WAT      O16981   9.280   6.313   3.830
 5580WAT     H116982   9.340   6.392   3.825
 5580WAT     H216983   9.305   6.257   3.909
 5581WAT      O16984   9.230   5.220   7.425
 5581WAT     H116985   9.157   5.281   7.457
 5581WAT     H216986   9.241   5.230   7.326
 5582WAT      O16987   6.778   2.534   4.961
 5582WAT     H116988   6.751   2.440   4.982
 5582WAT     H216989   6.703   2.596   4.983
 5583WAT      O16990   6.531   8.707   3.583
 5583WAT     H116991   6.598   8.738   3.651
 5583WAT     H216992   6.564   8.727   3.491
 5584WAT      O16993   0.834   6.519   1.421
 5584WAT     H116994   0.784   6.524   1.508
 5584WAT     H216995   0.839   6.611   1.382
 5585WAT      O16996   8.457   6.344   8.288
 5585WAT     H116997   8.482   6.425   8.342
 5585WAT     H216998   8.410   6.278   8.347
 5586WAT      O16999   9.050   9.224   7.183
 5586WAT     H117000   8.981   9.293   7.205
 5586WAT     H217001   9.007   9.146   7.137
 5587WAT      O17002   6.811   2.926   5.546
 5587WAT     H117003   6.820   2.863   5.624
 5587WAT     H217004   6.764   3.009   5.576
 5588WAT      O17005   7.009   3.542   4.607
 5588WAT     H117006   7.034   3.620   4.664
 5588WAT     H217007   7.038   3.560   4.513
 5589WAT      O17008   4.726   5.195   2.487
 5589WAT     H117009   4.824   5.201   2.468
 5589WAT     H217010   4.711   5.207   2.585
 5590WAT      O17011   3.914   6.638   3.138
 5590WAT     H117012   3.855   6.680   3.207
 5590WAT     H217013   3.859   6.585   3.074
 5591WAT      O17014   1.803   3.509   0.144
 5591WAT     H117015   1.812   3.520   0.243
 5591WAT     H217016   1.892   3.489   0.104
 5592WAT      O17017   5.807   6.748   6.822
 5592WAT     H117018   5.720   6.746   6.774
 5592WAT     H217019   5.802   6.812   6.899
 5593WAT      O17020   2.678   7.033   0.799
 5593WAT     H117021   2.613   7.110   0.792
 5593WAT     H217022   2.709   7.024   0.893
 5594WAT      O17023   2.241   7.591   5.408
 5594WAT     H117024   2.148   7.586   5.444
 5594WAT     H217025   2.242   7.565   5.312
 5595WAT      O17026   3.414   5.283   0.286
 5595WAT     H117027   3.497   5.310   0.237
 5595WAT     H217028   3.430   5.287   0.384
 5596WAT      O17029   5.201   5.732   7.273
 5596WAT     H117030   5.234   5.682   7.193
 5596WAT     H217031   5.206   5.672   7.354
 5597WAT      O17032   6.105   4.287   4.683
 5597WAT     H117033   6.081   4.204   4.733
 5597WAT     H217034   6.198   4.279   4.648
 5598WAT      O17035   0.373   3.918   1.856
 5598WAT     H117036   0.322   3.918   1.942
 5598WAT     H217037   0.435   3.840   1.854
 5599WAT      O17038   2.032   6.213   9.298
 5599WAT     H117039   2.070   6.287   9.354
 5599WAT     H217040   1.999   6.250   9.211
 5600WAT      O17041   5.233   5.726   0.903
 5600WAT     H117042   5.175   5.646   0.886
 5600WAT     H217043   5.181   5.795   0.954
 5601WAT      O17044   8.681   7.040   1.689
 5601WAT     H117045   8.663   6.986   1.606
 5601WAT     H217046   8.651   7.134   1.674
 5602WAT      O17047   1.016   0.503   0.964
 5602WAT     H117048   1.064   0.424   1.001
 5602WAT     H217049   1.031   0.509   0.866
 5603WAT      O17050   7.642   7.899   5.666
 5603WAT     H117051   7.591   7.985   5.657
 5603WAT     H217052   7.733   7.909   5.626
 5604WAT      O17053   9.543   1.237   3.354
 5604WAT     H117054   9.498   1.191   3.277
 5604WAT     H217055   9.595   1.315   3.319
 5605WAT      O17056   3.380   4.886   2.021
 5605WAT     H117057   3.352   4.918   1.931
 5605WAT     H217058   3.478   4.864   2.020
 5606WAT      O17059   8.432   4.423   8.678
 5606WAT     H117060   8.486   4.454   8.757
 5606WAT     H217061   8.468   4.336   8.645
 5607WAT      O17062   8.299   2.960   8.370
 5607WAT     H117063   8.211   3.003   8.351
 5607WAT     H217064   8.324   2.901   8.293
 5608WAT      O17065   8.286   9.614   5.640
 5608WAT     H117066   8.315   9.563   5.559
 5608WAT     H217067   8.361   9.671   5.673
 5609WAT      O17068   1.706   9.659   6.961
 5609WAT     H117069   1.646   9.582   6.938
 5609WAT     H217070   1.777   9.668   6.892
 5610WAT      O17071   0.423   8.731   3.351
 5610WAT     H117072   0.352   8.677   3.306
 5610WAT     H217073   0.488   8.764   3.283
 5611WAT      O17074   1.211   4.785   5.284
 5611WAT     H117075   1.123   4.798   5.331
 5611WAT     H217076   1.194   4.752   5.192
 5612WAT      O17077   4.109   9.319   7.437
 5612WAT     H117078   4.137   9.327   7.341
 5612WAT     H217079   4.025   9.266   7.443
 5613WAT      O17080   1.803   7.167   6.600
 5613WAT     H117081   1.709   7.151   6.629
 5613WAT     H217082   1.834   7.089   6.546
 5614WAT      O17083   0.293   0.755   9.063
 5614WAT     H117084   0.281   0.682   8.996
 5614WAT     H217085   0.254   0.727   9.151
 5615WAT      O17086   4.099   2.939   6.381
 5615WAT     H117087   4.150   2.872   6.326
 5615WAT     H217088   4.162   2.986   6.442
 5616WAT      O17089   1.916   8.202   3.640
 5616WAT     H117090   1.980   8.126   3.649
 5616WAT     H217091   1.850   8.183   3.568
 5617WAT      O17092   0.379   2.254   8.395
 5617WAT     H117093   0.347   2.332   8.343
 5617WAT     H217094   0.467   2.276   8.438
 5618WAT      O17095   8.574   7.423   6.872
 5618WAT     H117096   8.629   7.376   6.803
 5618WAT     H217097   8.492   7.369   6.892
 5619WAT      O17098   8.757   4.736   0.850
 5619WAT     H117099   8.667   4.697   0.834
 5619WAT     H217100   8.782   4.795   0.773
 5620WAT      O17101   7.783   8.156   3.193
 5620WAT     H117102   7.877   8.130   3.171
 5620WAT     H217103   7.773   8.165   3.292
 5621WAT      O17104   8.933   6.489   5.468
 5621WAT     H117105   8.967   6.443   5.550
 5621WAT     H217106   8.988   6.461   5.389
 5622WAT      O17107   8.108   3.880   3.688
 5622WAT     H117108   8.135   3.809   3.623
 5622WAT     H217109   8.189   3.918   3.732
 5623WAT      O17110   3.523   9.485   2.964
 5623WAT     H117111   3.603   9.528   3.006
 5623WAT     H217112   3.520   9.509   2.867
 5624WAT      O17113   2.776   4.034   8.681
 5624WAT     H117114   2.876   4.033   8.684
 5624WAT     H217115   2.741   4.016   8.773
 5625WAT      O17116   9.754   7.918   9.826
 5625WAT     H117117   9.723   7.826   9.805
 5625WAT     H217118   9.824   7.945   9.759
 5626WAT      O17119   4.980   9.387   2.102
 5626WAT     H117120   5.079   9.376   2.116
 5626WAT     H217121   4.932   9.365   2.187
 5627WAT      O17122   2.057   5.740   7.926
 5627WAT     H117123   2.116   5.789   7.991
 5627WAT     H217124   1.964   5.775   7.932
 5628WAT      O17125   0.554   3.150   9.423
 5628WAT     H117126   0.473   3.195   9.384
 5628WAT     H217127   0.612   3.116   9.348
 5629WAT      O17128   3.827   3.173   3.265
 5629WAT     H117129   3.810   3.173   3.363
 5629WAT     H217130   3.786   3.091   3.225
 5630WAT      O17131   4.872   7.208   0.479
 5630WAT     H117132   4.815   7.126   0.484
 5630WAT     H217133   4.943   7.195   0.410
 5631WAT      O17134   8.974   9.637   9.164
 5631WAT     H117135   9.055   9.588   9.197
 5631WAT     H217136   8.965   9.723   9.213
 5632WAT      O17137   6.440   4.399   7.159
 5632WAT     H117138   6.342   4.376   7.163
 5632WAT     H217139   6.493   4.315   7.148
 5633WAT      O17140   8.575   1.135   2.860
 5633WAT     H117141   8.594   1.075   2.937
 5633WAT     H217142   8.486   1.178   2.872
 5634WAT      O17143   5.266   4.878   7.385
 5634WAT     H117144   5.351   4.918   7.352
 5634WAT     H217145   5.189   4.938   7.363
 5635WAT      O17146   5.288   8.706   4.996
 5635WAT     H117147   5.228   8.640   5.040
 5635WAT     H217148   5.264   8.798   5.026
 5636WAT      O17149   8.024   6.556   8.389
 5636WAT     H117150   7.994   6.461   8.398
 5636WAT     H217151   7.982   6.598   8.309
 5637WAT      O17152   4.067   2.143   8.922
 5637WAT     H117153   4.113   2.231   8.912
 5637WAT     H217154   4.084   2.107   9.014
 5638WAT      O17155   5.841   8.713   4.531
 5638WAT     H117156   5.829   8.616   4.510
 5638WAT     H217157   5.780   8.767   4.473
 5639WAT      O17158   8.949   7.135   8.119
 5639WAT     H117159   9.047   7.128   8.138
 5639WAT     H217160   8.935   7.143   8.020
 5640WAT      O17161   6.506   5.937   0.756
 5640WAT     H117162   6.522   5.839   0.749
 5640WAT     H217163   6.408   5.954   0.771
 5641WAT      O17164   3.810   3.689   6.532
 5641WAT     H117165   3.870   3.747   6.476
 5641WAT     H217166   3.735   3.654   6.475
 5642WAT      O17167   8.646   7.157   9.481
 5642WAT     H117168   8.725   7.181   9.425
 5642WAT     H217169   8.645   7.213   9.563
 5643WAT      O17170   2.751   5.377   3.253
 5643WAT     H117171   2.845   5.344   3.244
 5643WAT     H217172   2.750   5.477   3.256
 5644WAT      O17173   2.627   6.434   4.842
 5644WAT     H117174   2.607   6.490   4.922
 5644WAT     H217175   2.726   6.423   4.833
 5645WAT      O17176   2.434   2.724   1.412
 5645WAT     H117177   2.380   2.781   1.350
 5645WAT     H217178   2.378   2.694   1.489
 5646WAT      O17179   3.536   7.385   0.752
 5646WAT     H117180   3.624   7.430   0.741
 5646WAT     H217181   3.513   7.336   0.668
 5647WAT      O17182   8.938   3.022   2.877
 5647WAT     H117183   8.879   2.951   2.917
 5647WAT     H217184   9.021   2.979   2.841
 5648WAT      O17185   4.603   5.352   3.899
 5648WAT     H117186   4.620   5.405   3.982
 5648WAT     H217187   4.507   5.325   3.896
 5649WAT      O17188   9.407   3.473   7.459
 5649WAT     H117189   9.490   3.437   7.416
 5649WAT     H217190   9.392   3.427   7.547
 5650WAT      O17191   1.130   8.595   1.003
 5650WAT     H117192   1.110   8.678   0.952
 5650WAT     H217193   1.075   8.519   0.967
 5651WAT      O17194   7.946   8.905   6.008
 5651WAT     H117195   7.931   9.004   6.002
 5651WAT     H217196   8.043   8.886   6.021
 5652WAT      O17197   7.679   7.180   1.261
 5652WAT     H117198   7.668   7.204   1.358
 5652WAT     H217199   7.608   7.115   1.235
 5653WAT      O17200   6.140   0.495   1.591
 5653WAT     H117201   6.060   0.437   1.572
 5653WAT     H217202   6.206   0.442   1.644
 5654WAT      O17203   3.443   5.823   6.908
 5654WAT     H117204   3.375   5.837   6.980
 5654WAT     H217205   3.398   5.825   6.819
 5655WAT      O17206   8.219   1.606   0.699
 5655WAT     H117207   8.137   1.549   0.707
 5655WAT     H217208   8.204   1.694   0.742
 5656WAT      O17209   6.224   7.877   7.656
 5656WAT     H117210   6.168   7.924   7.588
 5656WAT     H217211   6.190   7.783   7.668
 5657WAT      O17212   6.372   6.618   8.602
 5657WAT     H117213   6.349   6.522   8.590
 5657WAT     H217214   6.408   6.655   8.516
 5658WAT      O17215   1.212   7.517   3.715
 5658WAT     H117216   1.287   7.518   3.781
 5658WAT     H217217   1.199   7.424   3.682
 5659WAT      O17218   0.909   2.983   2.627
 5659WAT     H117219   0.919   2.925   2.546
 5659WAT     H217220   0.961   2.945   2.703
 5660WAT      O17221   6.597   9.041   3.597
 5660WAT     H117222   6.621   9.049   3.500
 5660WAT     H217223   6.595   9.132   3.639
 5661WAT      O17224   4.238   8.388   5.428
 5661WAT     H117225   4.292   8.412   5.347
 5661WAT     H217226   4.155   8.443   5.430
 5662WAT      O17227   5.790   3.239   5.287
 5662WAT     H117228   5.795   3.145   5.319
 5662WAT     H217229   5.737   3.293   5.353
 5663WAT      O17230   6.437   2.746   9.407
 5663WAT     H117231   6.470   2.685   9.335
 5663WAT     H217232   6.514   2.773   9.465
 5664WAT      O17233   1.933   6.066   3.798
 5664WAT     H117234   1.847   6.114   3.813
 5664WAT     H217235   1.952   6.007   3.876
 5665WAT      O17236   5.716   7.022   6.644
 5665WAT     H117237   5.675   6.931   6.653
 5665WAT     H217238   5.654   7.090   6.682
 5666WAT      O17239   2.093   5.904   4.950
 5666WAT     H117240   2.001   5.872   4.927
 5666WAT     H217241   2.128   5.962   4.876
 5667WAT      O17242   9.798   4.506   3.577
 5667WAT     H117243   9.757   4.487   3.666
 5667WAT     H217244   9.879   4.564   3.589
 5668WAT      O17245   4.523   7.675   9.847
 5668WAT     H117246   4.428   7.693   9.873
 5668WAT     H217247   4.565   7.613   9.913
 5669WAT      O17248   0.879   7.606   2.140
 5669WAT     H117249   0.895   7.514   2.176
 5669WAT     H217250   0.787   7.610   2.100
 5670WAT      O17251   7.330   4.724   9.401
 5670WAT     H117252   7.283   4.796   9.349
 5670WAT     H217253   7.416   4.760   9.437
 5671WAT      O17254   5.095   9.470   1.450
 5671WAT     H117255   5.179   9.449   1.400
 5671WAT     H217256   5.116   9.531   1.526
 5672WAT      O17257   2.801   0.904   6.283
 5672WAT     H117258   2.839   0.818   6.250
 5672WAT     H217259   2.834   0.922   6.376
 5673WAT      O17260   4.486   8.556   3.192
 5673WAT     H117261   4.562   8.493   3.177
 5673WAT     H217262   4.403   8.504   3.212
 5674WAT      O17263   4.258   1.271   9.211
 5674WAT     H117264   4.308   1.217   9.144
 5674WAT     H217265   4.270   1.231   9.302
 5675WAT      O17266   4.490   5.971   6.311
 5675WAT     H117267   4.572   5.923   6.341
 5675WAT     H217268   4.516   6.058   6.269
 5676WAT      O17269   0.155   8.623   4.594
 5676WAT     H117270   0.251   8.648   4.585
 5676WAT     H217271   0.100   8.706   4.599
 5677WAT      O17272   4.597   8.261   7.092
 5677WAT     H117273   4.499   8.253   7.110
 5677WAT     H217274   4.636   8.169   7.084
 5678WAT      O17275   3.914   4.424   9.172
 5678WAT     H117276   3.857   4.430   9.254
 5678WAT     H217277   4.009   4.405   9.199
 5679WAT      O17278   1.256   7.184   0.981
 5679WAT     H117279   1.159   7.186   1.005
 5679WAT     H217280   1.306   7.246   1.040
 5680WAT      O17281   7.171   5.232   3.205
 5680WAT     H117282   7.216   5.317   3.176
 5680WAT     H217283   7.103   5.205   3.137
 5681WAT      O17284   9.137   1.328   6.048
 5681WAT     H117285   9.160   1.358   6.141
 5681WAT     H217286   9.219   1.333   5.991
 5682WAT      O17287   5.734   8.259   7.244
 5682WAT     H117288   5.794   8.180   7.263
 5682WAT     H217289   5.657   8.257   7.307
 5683WAT      O17290   0.493   9.583   4.362
 5683WAT     H117291   0.535   9.505   4.317
 5683WAT     H217292   0.406   9.555   4.403
 5684WAT      O17293   6.340   4.100   1.725
 5684WAT     H117294   6.362   4.100   1.823
 5684WAT     H217295   6.412   4.051   1.675
 5685WAT      O17296   3.083   7.343   7.973
 5685WAT     H117297   2.987   7.356   7.947
 5685WAT     H217298   3.141   7.357   7.893
 5686WAT      O17299   4.243   2.664   8.473
 5686WAT     H117300   4.230   2.648   8.375
 5686WAT     H217301   4.333   2.629   8.500
 5687WAT      O17302   0.343   7.252   1.205
 5687WAT     H117303   0.383   7.250   1.297
 5687WAT     H217304   0.398   7.310   1.145
 5688WAT      O17305   5.175   0.735   1.212
 5688WAT     H117306   5.123   0.655   1.242
 5688WAT     H217307   5.257   0.745   1.268
 5689WAT      O17308   8.734   4.089   0.787
 5689WAT     H117309   8.826   4.110   0.754
 5689WAT     H217310   8.710   4.150   0.863
 5690WAT      O17311   4.302   2.075   4.213
 5690WAT     H117312   4.205   2.078   4.234
 5690WAT     H217313   4.324   1.987   4.172
 5691WAT      O17314   7.465   1.551   0.127
 5691WAT     H117315   7.556   1.515   0.147
 5691WAT     H217316   7.439   1.524   0.034
 5692WAT      O17317   4.196   8.859   0.402
 5692WAT     H117318   4.253   8.905   0.334
 5692WAT     H217319   4.116   8.916   0.423
 5693WAT      O17320   5.906   7.563   6.549
 5693WAT     H117321   5.967   7.621   6.495
 5693WAT     H217322   5.831   7.619   6.585
 5694WAT      O17323   6.429   4.978   9.229
 5694WAT     H117324   6.371   4.994   9.309
 5694WAT     H217325   6.419   5.055   9.165
 5695WAT      O17326   8.505   5.272   7.470
 5695WAT     H117327   8.435   5.278   7.541
 5695WAT     H217328   8.546   5.362   7.457
 5696WAT      O17329   7.592   5.244   6.869
 5696WAT     H117330   7.542   5.258   6.783
 5696WAT     H217331   7.564   5.315   6.934
 5697WAT      O17332   8.714   3.515   9.896
 5697WAT     H117333   8.693   3.533   9.800
 5697WAT     H217334   8.690   3.421   9.919
 5698WAT      O17335   1.121   0.938   0.423
 5698WAT     H117336   1.116   0.911   0.327
 5698WAT     H217337   1.037   0.985   0.449
 5699WAT      O17338   4.342   3.978   3.896
 5699WAT     H117339   4.270   3.990   3.964
 5699WAT     H217340   4.301   3.960   3.807
 5700WAT      O17341   3.510   4.377   7.077
 5700WAT     H117342   3.467   4.365   7.167
 5700WAT     H217343   3.439   4.380   7.006
 5701WAT      O17344   2.963   1.358   1.279
 5701WAT     H117345   3.038   1.361   1.345
 5701WAT     H217346   2.970   1.274   1.225
 5702WAT      O17347   3.759   4.349   3.503
 5702WAT     H117348   3.767   4.259   3.460
 5702WAT     H217349   3.769   4.420   3.433
 5703WAT      O17350   4.166   8.695   5.702
 5703WAT     H117351   4.260   8.662   5.712
 5703WAT     H217352   4.103   8.624   5.733
 5704WAT      O17353   0.266   7.662   9.468
 5704WAT     H117354   0.303   7.585   9.521
 5704WAT     H217355   0.297   7.655   9.373
 5705WAT      O17356   8.238   7.048   4.668
 5705WAT     H117357   8.202   7.096   4.747
 5705WAT     H217358   8.164   7.030   4.603
 5706WAT      O17359   1.655   0.944   4.018
 5706WAT     H117360   1.740   0.896   4.038
 5706WAT     H217361   1.668   1.002   3.937
 5707WAT      O17362   5.710   5.894   2.239
 5707WAT     H117363   5.800   5.936   2.230
 5707WAT     H217364   5.678   5.904   2.333
 5708WAT      O17365   0.802   5.247   0.766
 5708WAT     H117366   0.793   5.338   0.726
 5708WAT     H217367   0.719   5.195   0.748
 5709WAT      O17368   9.010   5.436   2.343
 5709WAT     H117369   9.105   5.420   2.318
 5709WAT     H217370   8.999   5.427   2.442
 5710WAT      O17371   3.344   8.459   0.372
 5710WAT     H117372   3.380   8.416   0.455
 5710WAT     H217373   3.262   8.512   0.394
 5711WAT      O17374   4.034   6.630   9.030
 5711WAT     H117375   3.952   6.635   8.972
 5711WAT     H217376   4.050   6.535   9.056
 5712WAT      O17377   6.201   3.918   9.612
 5712WAT     H117378   6.201   3.862   9.529
 5712WAT     H217379   6.271   3.884   9.675
 5713WAT      O17380   7.333   1.296   2.065
 5713WAT     H117381   7.282   1.232   2.123
 5713WAT     H217382   7.333   1.262   1.971
 5714WAT      O17383   1.892   3.523   7.559
 5714WAT     H117384   1.947   3.440   7.550
 5714WAT     H217385   1.797   3.499   7.581
 5715WAT      O17386   4.480   6.214   5.812
 5715WAT     H117387   4.556   6.153   5.794
 5715WAT     H217388   4.503   6.306   5.781
 5716WAT      O17389   5.135   9.406   3.177
 5716WAT     H117390   5.056   9.450   3.135
 5716WAT     H217391   5.152   9.445   3.267
 5717WAT      O17392   8.835   4.917   9.028
 5717WAT     H117393   8.848   4.985   9.100
 5717WAT     H217394   8.741   4.881   9.033
 5718WAT      O17395   2.842   6.467   1.636
 5718WAT     H117396   2.771   6.406   1.670
 5718WAT     H217397   2.916   6.474   1.703
 5719WAT      O17398   0.978   7.624   5.952
 5719WAT     H117399   1.044   7.613   6.027
 5719WAT     H217400   0.929   7.538   5.938
 5720WAT      O17401   1.170   5.069   2.260
 5720WAT     H117402   1.240   5.067   2.332
 5720WAT     H217403   1.204   5.020   2.180
 5721WAT      O17404   5.305   5.157   0.245
 5721WAT     H117405   5.333   5.185   0.153
 5721WAT     H217406   5.216   5.197   0.266
 5722WAT      O17407   8.128   8.623   8.924
 5722WAT     H117408   8.101   8.716   8.950
 5722WAT     H217409   8.061   8.585   8.860
 5723WAT      O17410   3.141   3.505   1.455
 5723WAT     H117411   3.057   3.484   1.506
 5723WAT     H217412   3.119   3.516   1.358
 5724WAT      O17413   4.189   3.076   9.283
 5724WAT     H117414   4.104   3.093   9.332
 5724WAT     H217415   4.266   3.106   9.340
 5725WAT      O17416   5.382   6.307   6.348
 5725WAT     H117417   5.450   6.234   6.355
 5725WAT     H217418   5.292   6.271   6.374
 5726WAT      O17419   5.708   3.911   4.814
 5726WAT     H117420   5.788   3.854   4.799
 5726WAT     H217421   5.643   3.863   4.873
 5727WAT      O17422   1.960   7.368   8.990
 5727WAT     H117423   1.905   7.290   9.020
 5727WAT     H217424   1.900   7.436   8.946
 5728WAT      O17425   1.914   9.454   6.342
 5728WAT     H117426   1.981   9.524   6.318
 5728WAT     H217427   1.822   9.486   6.319
 5729WAT      O17428   7.399   0.977   8.204
 5729WAT     H117429   7.422   0.965   8.301
 5729WAT     H217430   7.358   0.893   8.169
 5730WAT      O17431   7.720   0.881   9.252
 5730WAT     H117432   7.763   0.969   9.231
 5730WAT     H217433   7.625   0.896   9.278
 5731WAT      O17434   1.167   5.085   0.307
 5731WAT     H117435   1.137   5.003   0.356
 5731WAT     H217436   1.258   5.112   0.339
 5732WAT      O17437   2.178   3.865   0.013
 5732WAT     H117438   2.119   3.919   0.073
 5732WAT     H217439   2.223   3.925  -0.053
 5733WAT      O17440   3.074   9.546   3.201
 5733WAT     H117441   3.032   9.622   3.152
 5733WAT     H217442   3.125   9.489   3.136
 5734WAT      O17443   6.899   4.895   7.081
 5734WAT     H117444   6.987   4.862   7.114
 5734WAT     H217445   6.891   4.993   7.101
 5735WAT      O17446   1.772   4.324   4.892
 5735WAT     H117447   1.724   4.288   4.971
 5735WAT     H217448   1.714   4.391   4.845
 5736WAT      O17449   2.595   8.641   0.200
 5736WAT     H117450   2.536   8.586   0.141
 5736WAT     H217451   2.586   8.610   0.295
 5737WAT      O17452   9.267   5.112   3.492
 5737WAT     H117453   9.337   5.048   3.525
 5737WAT     H217454   9.226   5.158   3.571
 5738WAT      O17455   0.453   5.582   2.184
 5738WAT     H117456   0.482   5.635   2.263
 5738WAT     H217457   0.375   5.627   2.140
 5739WAT      O17458   1.833   3.318   5.733
 5739WAT     H117459   1.835   3.395   5.670
 5739WAT     H217460   1.739   3.292   5.752
 5740WAT      O17461   9.797   8.586   8.060
 5740WAT     H117462   9.763   8.497   8.031
 5740WAT     H217463   9.776   8.601   8.156
 5741WAT      O17464   6.591   5.962   2.952
 5741WAT     H117465   6.559   5.976   2.858
 5741WAT     H217466   6.598   5.864   2.970
 5742WAT      O17467   0.211   7.657   3.388
 5742WAT     H117468   0.178   7.688   3.299
 5742WAT     H217469   0.149   7.690   3.459
 5743WAT      O17470   4.931   9.366   3.496
 5743WAT     H117471   4.980   9.440   3.452
 5743WAT     H217472   4.950   9.367   3.594
 5744WAT      O17473   6.246   4.195   5.059
 5744WAT     H117474   6.301   4.151   4.989
 5744WAT     H217475   6.288   4.282   5.086
 5745WAT      O17476   1.301   9.824   2.792
 5745WAT     H117477   1.321   9.727   2.803
 5745WAT     H217478   1.344   9.876   2.866
 5746WAT      O17479   8.451   1.720   9.141
 5746WAT     H117480   8.391   1.653   9.098
 5746WAT     H217481   8.453   1.803   9.085
 5747WAT      O17482   8.466   5.550   8.815
 5747WAT     H117483   8.565   5.555   8.822
 5747WAT     H217484   8.437   5.580   8.724
 5748WAT      O17485   8.788   8.082   0.753
 5748WAT     H117486   8.726   8.006   0.771
 5748WAT     H217487   8.808   8.086   0.655
 5749WAT      O17488   9.655   0.527   5.185
 5749WAT     H117489   9.693   0.479   5.106
 5749WAT     H217490   9.556   0.510   5.189
 5750WAT      O17491   1.236   4.743   4.378
 5750WAT     H117492   1.141   4.775   4.376
 5750WAT     H217493   1.245   4.667   4.443
 5751WAT      O17494   4.220   9.418   5.447
 5751WAT     H117495   4.180   9.383   5.531
 5751WAT     H217496   4.293   9.483   5.469
 5752WAT      O17497   3.723   8.612   9.202
 5752WAT     H117498   3.772   8.541   9.152
 5752WAT     H217499   3.709   8.691   9.142
 5753WAT      O17500   6.507   0.654   5.300
 5753WAT     H117501   6.492   0.561   5.264
 5753WAT     H217502   6.534   0.648   5.396
 5754WAT      O17503   4.934   5.400   4.005
 5754WAT     H117504   5.009   5.425   3.944
 5754WAT     H217505   4.923   5.471   4.075
 5755WAT      O17506   1.181   4.052   9.256
 5755WAT     H117507   1.238   4.087   9.182
 5755WAT     H217508   1.236   4.041   9.339
 5756WAT      O17509   5.515   2.158   7.593
 5756WAT     H117510   5.610   2.139   7.568
 5756WAT     H217511   5.503   2.144   7.691
 5757WAT      O17512   7.026   0.169   4.348
 5757WAT     H117513   7.098   0.109   4.314
 5757WAT     H217514   7.067   0.246   4.396
 5758WAT      O17515   3.752   8.739   8.918
 5758WAT     H117516   3.778   8.744   8.822
 5758WAT     H217517   3.834   8.742   8.975
 5759WAT      O17518   5.985   3.132   7.305
 5759WAT     H117519   5.918   3.123   7.379
 5759WAT     H217520   5.942   3.176   7.227
 5760WAT      O17521   7.782   6.389   8.130
 5760WAT     H117522   7.847   6.316   8.109
 5760WAT     H217523   7.761   6.388   8.227
 5761WAT      O17524   7.402   1.177   7.836
 5761WAT     H117525   7.326   1.159   7.898
 5761WAT     H217526   7.485   1.194   7.889
 5762WAT      O17527   0.507   2.800   9.266
 5762WAT     H117528   0.511   2.709   9.223
 5762WAT     H217529   0.590   2.851   9.243
 5763WAT      O17530   1.718   8.205   5.213
 5763WAT     H117531   1.735   8.145   5.291
 5763WAT     H217532   1.619   8.208   5.195
 5764WAT      O17533   3.817   2.812   1.301
 5764WAT     H117534   3.820   2.724   1.348
 5764WAT     H217535   3.833   2.799   1.203
 5765WAT      O17536   6.922   8.449   0.011
 5765WAT     H117537   6.883   8.370   0.057
 5765WAT     H217538   6.851   8.496  -0.042
 5766WAT      O17539   0.587   2.949   5.100
 5766WAT     H117540   0.677   2.909   5.082
 5766WAT     H217541   0.577   3.034   5.048
 5767WAT      O17542   0.607   7.266   2.266
 5767WAT     H117543   0.531   7.331   2.274
 5767WAT     H217544   0.573   7.179   2.232
 5768WAT      O17545   1.589   3.590   2.160
 5768WAT     H117546   1.571   3.659   2.231
 5768WAT     H217547   1.687   3.569   2.159
 5769WAT      O17548   1.489   6.820   0.781
 5769WAT     H117549   1.508   6.913   0.813
 5769WAT     H217550   1.563   6.790   0.722
 5770WAT      O17551   4.553   7.643   5.732
 5770WAT     H117552   4.499   7.595   5.663
 5770WAT     H217553   4.492   7.693   5.793
 5771WAT      O17554   4.241   9.751   3.459
 5771WAT     H117555   4.168   9.709   3.513
 5771WAT     H217556   4.286   9.681   3.403
 5772WAT      O17557   7.836   2.852   2.934
 5772WAT     H117558   7.810   2.759   2.961
 5772WAT     H217559   7.778   2.882   2.858
 5773WAT      O17560   2.790   0.569   1.245
 5773WAT     H117561   2.756   0.630   1.317
 5773WAT     H217562   2.862   0.614   1.193
 5774WAT      O17563   4.090   8.651   8.235
 5774WAT     H117564   4.014   8.623   8.294
 5774WAT     H217565   4.055   8.706   8.159
 5775WAT      O17566   0.754   6.666   2.618
 5775WAT     H117567   0.727   6.579   2.660
 5775WAT     H217568   0.672   6.719   2.595
 5776WAT      O17569   7.556   4.318   7.776
 5776WAT     H117570   7.565   4.378   7.856
 5776WAT     H217571   7.646   4.289   7.746
 5777WAT      O17572   5.049   7.370   7.976
 5777WAT     H117573   5.067   7.468   7.975
 5777WAT     H217574   4.962   7.351   7.930
 5778WAT      O17575   2.382   4.204   1.565
 5778WAT     H117576   2.454   4.137   1.581
 5778WAT     H217577   2.340   4.188   1.476
 5779WAT      O17578   0.734   1.220   5.888
 5779WAT     H117579   0.651   1.262   5.924
 5779WAT     H217580   0.748   1.250   5.794
 5780WAT      O17581   1.364   3.558   6.421
 5780WAT     H117582   1.357   3.545   6.520
 5780WAT     H217583   1.341   3.652   6.397
 5781WAT      O17584   8.944   1.286   5.373
 5781WAT     H117585   8.916   1.220   5.444
 5781WAT     H217586   8.868   1.348   5.354
 5782WAT      O17587   9.415   9.009   1.028
 5782WAT     H117588   9.349   9.083   1.021
 5782WAT     H217589   9.397   8.940   0.957
 5783WAT      O17590   5.548   1.874   2.203
 5783WAT     H117591   5.643   1.859   2.229
 5783WAT     H217592   5.507   1.787   2.175
 5784WAT      O17593   8.620   6.748   8.145
 5784WAT     H117594   8.699   6.722   8.200
 5784WAT     H217595   8.563   6.668   8.128
 5785WAT      O17596   9.594   0.037   7.818
 5785WAT     H117597   9.676  -0.001   7.775
 5785WAT     H217598   9.608   0.134   7.835
 5786WAT      O17599   3.348   8.916   2.687
 5786WAT     H117600   3.321   8.925   2.592
 5786WAT     H217601   3.442   8.948   2.698
 5787WAT      O17602   8.139   9.240   3.495
 5787WAT     H117603   8.183   9.261   3.583
 5787WAT     H217604   8.060   9.300   3.482
 5788WAT      O17605   4.977   9.019   1.302
 5788WAT     H117606   5.039   8.942   1.291
 5788WAT     H217607   4.959   9.034   1.400
 5789WAT      O17608   7.170   5.139   2.703
 5789WAT     H117609   7.184   5.224   2.755
 5789WAT     H217610   7.214   5.064   2.752
 5790WAT      O17611   3.178   8.653   5.456
 5790WAT     H117612   3.219   8.736   5.419
 5790WAT     H217613   3.079   8.667   5.468
 5791WAT      O17614   3.319   1.382   3.350
 5791WAT     H117615   3.237   1.326   3.360
 5791WAT     H217616   3.388   1.352   3.416
 5792WAT      O17617   6.696   5.761   4.487
 5792WAT     H117618   6.598   5.779   4.494
 5792WAT     H217619   6.737   5.819   4.417
 5793WAT      O17620   1.898   5.608   9.846
 5793WAT     H117621   1.870   5.681   9.908
 5793WAT     H217622   1.957   5.646   9.775
 5794WAT      O17623   8.231   6.269   2.450
 5794WAT     H117624   8.168   6.235   2.520
 5794WAT     H217625   8.181   6.283   2.365
 5795WAT      O17626   0.123   9.162   2.355
 5795WAT     H117627   0.167   9.245   2.392
 5795WAT     H217628   0.043   9.188   2.301
 5796WAT      O17629   2.069   3.553   9.532
 5796WAT     H117630   2.097   3.546   9.436
 5796WAT     H217631   2.129   3.616   9.581
 5797WAT      O17632   0.826   4.294   0.627
 5797WAT     H117633   0.753   4.254   0.683
 5797WAT     H217634   0.901   4.322   0.686
 5798WAT      O17635   8.953   1.131   2.144
 5798WAT     H117636   9.020   1.190   2.189
 5798WAT     H217637   8.934   1.053   2.203
 5799WAT      O17638   6.265   9.781   6.642
 5799WAT     H117639   6.320   9.838   6.703
 5799WAT     H217640   6.277   9.684   6.668
 5800WAT      O17641   6.470   7.203   0.907
 5800WAT     H117642   6.443   7.240   0.818
 5800WAT     H217643   6.426   7.255   0.980
 5801WAT      O17644   6.871   8.729   8.210
 5801WAT     H117645   6.801   8.688   8.152
 5801WAT     H217646   6.834   8.741   8.303
 5802WAT      O17647   3.403   3.296   6.728
 5802WAT     H117648   3.500   3.289   6.706
 5802WAT     H217649   3.354   3.332   6.649
 5803WAT      O17650   9.524   4.098   5.222
 5803WAT     H117651   9.460   4.079   5.296
 5803WAT     H217652   9.546   4.196   5.221
 5804WAT      O17653   9.692   9.309   3.784
 5804WAT     H117654   9.781   9.353   3.770
 5804WAT     H217655   9.677   9.242   3.712
 5805WAT      O17656   5.593   2.895   2.104
 5805WAT     H117657   5.505   2.865   2.140
 5805WAT     H217658   5.615   2.985   2.144
 5806WAT      O17659   5.604   4.944   1.412
 5806WAT     H117660   5.683   4.883   1.414
 5806WAT     H217661   5.588   4.974   1.318
 5807WAT      O17662   6.814   3.320   0.364
 5807WAT     H117663   6.722   3.359   0.356
 5807WAT     H217664   6.828   3.252   0.292
 5808WAT      O17665   4.669   8.643   8.545
 5808WAT     H117666   4.687   8.565   8.484
 5808WAT     H217667   4.662   8.610   8.639
 5809WAT      O17668   3.947   7.754   0.767
 5809WAT     H117669   4.029   7.697   0.769
 5809WAT     H217670   3.901   7.751   0.856
 5810WAT      O17671   2.777   0.095   2.022
 5810WAT     H117672   2.718   0.172   1.999
 5810WAT     H217673   2.868   0.110   1.982
 5811WAT      O17674   9.712   6.596   2.209
 5811WAT     H117675   9.669   6.551   2.130
 5811WAT     H217676   9.713   6.533   2.287
 5812WAT      O17677   3.560   3.156   5.873
 5812WAT     H117678   3.478   3.103   5.849
 5812WAT     H217679   3.537   3.223   5.943
 5813WAT      O17680   2.657   2.716   1.081
 5813WAT     H117681   2.708   2.787   1.129
 5813WAT     H217682   2.692   2.626   1.108
 5814WAT      O17683   1.850   4.541   7.880
 5814WAT     H117684   1.803   4.554   7.968
 5814WAT     H217685   1.878   4.445   7.872
 5815WAT      O17686   0.045   1.059   1.165
 5815WAT     H117687   0.017   0.996   1.238
 5815WAT     H217688   0.133   1.101   1.188
 5816WAT      O17689   3.814   3.504   9.665
 5816WAT     H117690   3.867   3.548   9.593
 5816WAT     H217691   3.718   3.527   9.654
 5817WAT      O17692   5.547   5.420   9.515
 5817WAT     H117693   5.593   5.332   9.506
 5817WAT     H217694   5.511   5.447   9.426
 5818WAT      O17695   0.377   2.572   6.742
 5818WAT     H117696   0.473   2.542   6.749
 5818WAT     H217697   0.335   2.571   6.833
 5819WAT      O17698   1.163   9.560   4.087
 5819WAT     H117699   1.201   9.518   4.005
 5819WAT     H217700   1.064   9.571   4.076
 5820WAT      O17701   4.357   1.673   0.328
 5820WAT     H117702   4.291   1.657   0.255
 5820WAT     H217703   4.448   1.649   0.296
 5821WAT      O17704   3.579   8.839   8.270
 5821WAT     H117705   3.610   8.748   8.243
 5821WAT     H217706   3.565   8.895   8.188
 5822WAT      O17707   8.949   1.253   1.322
 5822WAT     H117708   8.855   1.281   1.299
 5822WAT     H217709   9.002   1.334   1.348
 5823WAT      O17710   9.203   3.228   3.232
 5823WAT     H117711   9.202   3.194   3.138
 5823WAT     H217712   9.141   3.306   3.240
 5824WAT      O17713   2.288   7.965   2.453
 5824WAT     H117714   2.262   7.877   2.413
 5824WAT     H217715   2.243   7.976   2.541
 5825WAT      O17716   4.972   3.882   3.500
 5825WAT     H117717   4.995   3.787   3.478
 5825WAT     H217718   4.945   3.888   3.596
 5826WAT      O17719   4.698   9.104   2.045
 5826WAT     H117720   4.782   9.088   1.995
 5826WAT     H217721   4.619   9.092   1.984
 5827WAT      O17722   9.256   0.407   2.100
 5827WAT     H117723   9.178   0.420   2.161
 5827WAT     H217724   9.264   0.486   2.040
 5828WAT      O17725   7.266   4.382   2.478
 5828WAT     H117726   7.249   4.370   2.380
 5828WAT     H217727   7.353   4.339   2.502
 5829WAT      O17728   4.102   2.412   3.679
 5829WAT     H117729   4.118   2.499   3.632
 5829WAT     H217730   4.132   2.420   3.775
 5830WAT      O17731   4.829   3.554   5.272
 5830WAT     H117732   4.817   3.457   5.250
 5830WAT     H217733   4.739   3.597   5.282
 5831WAT      O17734   7.835   3.953   2.501
 5831WAT     H117735   7.751   3.922   2.456
 5831WAT     H217736   7.902   3.981   2.433
 5832WAT      O17737   3.522   9.350   3.491
 5832WAT     H117738   3.527   9.401   3.577
 5832WAT     H217739   3.501   9.413   3.416
 5833WAT      O17740   3.481   3.511   1.162
 5833WAT     H117741   3.434   3.424   1.177
 5833WAT     H217742   3.423   3.572   1.109
 5834WAT      O17743   9.076   3.165   1.478
 5834WAT     H117744   9.161   3.202   1.517
 5834WAT     H217745   9.017   3.241   1.450
 5835WAT      O17746   5.578   0.235   7.677
 5835WAT     H117747   5.506   0.181   7.632
 5835WAT     H217748   5.667   0.193   7.658
 5836WAT      O17749   6.032   2.118   7.569
 5836WAT     H117750   6.005   2.057   7.643
 5836WAT     H217751   6.097   2.185   7.603
 5837WAT      O17752   6.000   4.914   5.498
 5837WAT     H117753   6.100   4.919   5.502
 5837WAT     H217754   5.961   4.989   5.552
 5838WAT      O17755   5.015   1.050   0.355
 5838WAT     H117756   5.073   1.039   0.436
 5838WAT     H217757   4.955   1.129   0.368
 5839WAT      O17758   7.165   9.293   3.853
 5839WAT     H117759   7.111   9.269   3.934
 5839WAT     H217760   7.127   9.248   3.773
 5840WAT      O17761   7.220   1.995   9.268
 5840WAT     H117762   7.143   2.000   9.331
 5840WAT     H217763   7.259   2.087   9.256
 5841WAT      O17764   6.061   5.851   3.478
 5841WAT     H117765   6.144   5.905   3.486
 5841WAT     H217766   5.983   5.904   3.513
 5842WAT      O17767   8.267   8.324   7.818
 5842WAT     H117768   8.238   8.309   7.912
 5842WAT     H217769   8.230   8.251   7.760
 5843WAT      O17770   2.337   2.232   0.248
 5843WAT     H117771   2.289   2.201   0.331
 5843WAT     H217772   2.271   2.274   0.186
 5844WAT      O17773   3.512   8.585   5.904
 5844WAT     H117774   3.593   8.638   5.881
 5844WAT     H217775   3.431   8.628   5.864
 5845WAT      O17776   2.104   0.766   8.176
 5845WAT     H117777   2.195   0.807   8.188
 5845WAT     H217778   2.035   0.839   8.180
 5846WAT      O17779   2.712   6.768   7.956
 5846WAT     H117780   2.783   6.731   8.015
 5846WAT     H217781   2.691   6.862   7.983
 5847WAT      O17782   3.852   9.072   5.152
 5847WAT     H117783   3.879   8.976   5.145
 5847WAT     H217784   3.924   9.123   5.199
 5848WAT      O17785   0.697   4.989   2.610
 5848WAT     H117786   0.755   5.070   2.615
 5848WAT     H217787   0.745   4.911   2.648
 5849WAT      O17788   3.761   9.204   3.485
 5849WAT     H117789   3.678   9.259   3.481
 5849WAT     H217790   3.739   9.113   3.521
 5850WAT      O17791   6.419   2.932   6.094
 5850WAT     H117792   6.455   2.840   6.109
 5850WAT     H217793   6.319   2.929   6.099
 5851WAT      O17794   5.355   7.202   7.584
 5851WAT     H117795   5.320   7.203   7.678
 5851WAT     H217796   5.338   7.113   7.543
 5852WAT      O17797   3.657   1.311   9.796
 5852WAT     H117798   3.688   1.269   9.711
 5852WAT     H217799   3.586   1.255   9.837
 5853WAT      O17800   4.719   7.966   8.507
 5853WAT     H117801   4.695   8.018   8.425
 5853WAT     H217802   4.761   7.879   8.481
 5854WAT      O17803   2.536   2.574   0.154
 5854WAT     H117804   2.578   2.563   0.064
 5854WAT     H217805   2.437   2.587   0.144
 5855WAT      O17806   0.983   8.072   9.585
 5855WAT     H117807   1.064   8.014   9.592
 5855WAT     H217808   1.009   8.167   9.604
 5856WAT      O17809   1.336   7.758   1.028
 5856WAT     H117810   1.252   7.776   0.977
 5856WAT     H217811   1.354   7.834   1.091
 5857WAT      O17812   4.985   5.142   7.883
 5857WAT     H117813   5.063   5.091   7.849
 5857WAT     H217814   5.008   5.184   7.971
 5858WAT      O17815   2.962   1.996   0.792
 5858WAT     H117816   3.058   2.024   0.795
 5858WAT     H217817   2.921   2.024   0.705
 5859WAT      O17818   8.655   4.871   1.095
 5859WAT     H117819   8.628   4.813   1.171
 5859WAT     H217820   8.704   4.816   1.027
 5860WAT      O17821   3.222   4.357   1.166
 5860WAT     H117822   3.285   4.280   1.152
 5860WAT     H217823   3.185   4.352   1.259
 5861WAT      O17824   9.593   9.128   3.526
 5861WAT     H117825   9.613   9.199   3.459
 5861WAT     H217826   9.678   9.095   3.566
 5862WAT      O17827   4.477   0.702   3.507
 5862WAT     H117828   4.475   0.778   3.571
 5862WAT     H217829   4.554   0.642   3.529
 5863WAT      O17830   1.741   0.863   6.278
 5863WAT     H117831   1.737   0.821   6.187
 5863WAT     H217832   1.648   0.870   6.315
 5864WAT      O17833   5.571   8.649   7.986
 5864WAT     H117834   5.653   8.613   7.942
 5864WAT     H217835   5.509   8.686   7.917
 5865WAT      O17836   9.779   3.818   9.720
 5865WAT     H117837   9.826   3.804   9.632
 5865WAT     H217838   9.698   3.761   9.725
 5866WAT      O17839   9.736   2.847   5.751
 5866WAT     H117840   9.719   2.935   5.794
 5866WAT     H217841   9.654   2.790   5.758
 5867WAT      O17842   8.710   2.964   7.701
 5867WAT     H117843   8.791   2.947   7.644
 5867WAT     H217844   8.717   3.055   7.742
 5868WAT      O17845   4.226   6.812   5.813
 5868WAT     H117846   4.149   6.871   5.838
 5868WAT     H217847   4.192   6.719   5.795
 5869WAT      O17848   5.522   1.301   2.646
 5869WAT     H117849   5.594   1.316   2.579
 5869WAT     H217850   5.549   1.341   2.734
 5870WAT      O17851   2.393   1.152   8.104
 5870WAT     H117852   2.320   1.220   8.108
 5870WAT     H217853   2.476   1.190   8.147
 5871WAT      O17854   6.618   5.959   5.484
 5871WAT     H117855   6.707   5.915   5.494
 5871WAT     H217856   6.562   5.941   5.564
 5872WAT      O17857   4.553   9.703   0.975
 5872WAT     H117858   4.540   9.669   1.069
 5872WAT     H217859   4.469   9.691   0.923
 5873WAT      O17860   7.076   3.854   2.449
 5873WAT     H117861   7.078   3.943   2.404
 5873WAT     H217862   6.995   3.848   2.507
 5874WAT      O17863   2.850   5.143   5.134
 5874WAT     H117864   2.870   5.210   5.063
 5874WAT     H217865   2.751   5.131   5.141
 5875WAT      O17866   3.368   8.434   3.696
 5875WAT     H117867   3.340   8.415   3.790
 5875WAT     H217868   3.430   8.362   3.665
 5876WAT      O17869   2.966   4.500   0.693
 5876WAT     H117870   3.056   4.496   0.649
 5876WAT     H217871   2.972   4.553   0.777
 5877WAT      O17872   7.368   2.998   4.378
 5877WAT     H117873   7.403   3.053   4.302
 5877WAT     H217874   7.391   3.042   4.464
 5878WAT      O17875   1.190   4.982   8.352
 5878WAT     H117876   1.156   5.068   8.314
 5878WAT     H217877   1.119   4.938   8.406
 5879WAT      O17878   7.631   8.328   6.595
 5879WAT     H117879   7.623   8.329   6.695
 5879WAT     H217880   7.542   8.347   6.554
 5880WAT      O17881   7.106   1.011   1.118
 5880WAT     H117882   7.058   1.021   1.031
 5880WAT     H217883   7.045   0.968   1.185
 5881WAT      O17884   9.661   1.709   6.159
 5881WAT     H117885   9.722   1.642   6.201
 5881WAT     H217886   9.708   1.754   6.083
 5882WAT      O17887   6.649   7.000   5.262
 5882WAT     H117888   6.666   7.007   5.361
 5882WAT     H217889   6.631   7.092   5.226
 5883WAT      O17890   1.316   2.930   3.787
 5883WAT     H117891   1.398   2.982   3.763
 5883WAT     H217892   1.248   2.991   3.826
 5884WAT      O17893   3.719   1.743   0.969
 5884WAT     H117894   3.637   1.686   0.964
 5884WAT     H217895   3.693   1.837   0.992
 5885WAT      O17896   4.490   1.787   5.497
 5885WAT     H117897   4.538   1.874   5.486
 5885WAT     H217898   4.555   1.715   5.523
 5886WAT      O17899   5.855   9.630   9.758
 5886WAT     H117900   5.818   9.552   9.808
 5886WAT     H217901   5.955   9.628   9.763
 5887WAT      O17902   7.021   7.814   1.837
 5887WAT     H117903   7.001   7.801   1.740
 5887WAT     H217904   7.029   7.912   1.856
 5888WAT      O17905   7.676   6.710   5.496
 5888WAT     H117906   7.617   6.711   5.577
 5888WAT     H217907   7.628   6.752   5.419
 5889WAT      O17908   1.349   5.635   3.072
 5889WAT     H117909   1.449   5.627   3.070
 5889WAT     H217910   1.320   5.706   3.007
 5890WAT      O17911   9.168   0.151   7.863
 5890WAT     H117912   9.219   0.077   7.909
 5890WAT     H217913   9.163   0.132   7.765
 5891WAT      O17914   8.339   6.759   2.933
 5891WAT     H117915   8.429   6.787   2.901
 5891WAT     H217916   8.312   6.674   2.887
 5892WAT      O17917   3.834   6.890   4.884
 5892WAT     H117918   3.920   6.857   4.924
 5892WAT     H217919   3.846   6.906   4.786
 5893WAT      O17920   2.358   8.122   1.201
 5893WAT     H117921   2.428   8.110   1.132
 5893WAT     H217922   2.400   8.124   1.292
 5894WAT      O17923   1.419   9.522   2.379
 5894WAT     H117924   1.510   9.519   2.422
 5894WAT     H217925   1.349   9.513   2.450
 5895WAT      O17926   6.148   7.377   8.050
 5895WAT     H117927   6.144   7.352   7.953
 5895WAT     H217928   6.124   7.474   8.060
 5896WAT      O17929   5.596   1.305   3.507
 5896WAT     H117930   5.664   1.267   3.570
 5896WAT     H217931   5.515   1.334   3.558
 5897WAT      O17932   0.817   3.521   7.182
 5897WAT     H117933   0.749   3.529   7.109
 5897WAT     H217934   0.902   3.563   7.153
 5898WAT      O17935   8.868   3.202   0.482
 5898WAT     H117936   8.914   3.225   0.397
 5898WAT     H217937   8.936   3.169   0.548
 5899WAT      O17938   9.722   7.482   0.468
 5899WAT     H117939   9.677   7.463   0.555
 5899WAT     H217940   9.800   7.543   0.483
 5900WAT      O17941   1.152   3.787   2.324
 5900WAT     H117942   1.200   3.723   2.263
 5900WAT     H217943   1.159   3.755   2.418
 5901WAT      O17944   7.312   5.525   2.517
 5901WAT     H117945   7.407   5.544   2.492
 5901WAT     H217946   7.278   5.596   2.577
 5902WAT      O17947   9.124   1.126   6.599
 5902WAT     H117948   9.204   1.145   6.541
 5902WAT     H217949   9.055   1.077   6.546
 5903WAT      O17950   3.842   3.951   5.539
 5903WAT     H117951   3.879   3.918   5.626
 5903WAT     H217952   3.780   4.028   5.555
 5904WAT      O17953   1.730   7.904   6.717
 5904WAT     H117954   1.802   7.835   6.709
 5904WAT     H217955   1.726   7.936   6.812
 5905WAT      O17956   4.501   9.438   7.352
 5905WAT     H117957   4.509   9.346   7.389
 5905WAT     H217958   4.470   9.500   7.424
 5906WAT      O17959   0.683   9.572   9.283
 5906WAT     H117960   0.752   9.546   9.351
 5906WAT     H217961   0.728   9.589   9.195
 5907WAT      O17962   4.274   1.160   6.847
 5907WAT     H117963   4.302   1.174   6.942
 5907WAT     H217964   4.262   1.248   6.802
 5908WAT      O17965   8.117   8.867   0.047
 5908WAT     H117966   8.034   8.895   0.096
 5908WAT     H217967   8.101   8.779   0.003
 5909WAT      O17968   7.031   5.917   2.602
 5909WAT     H117969   7.047   5.994   2.664
 5909WAT     H217970   7.118   5.886   2.564
 5910WAT      O17971   4.693   9.157   4.000
 5910WAT     H117972   4.661   9.164   3.905
 5910WAT     H217973   4.615   9.145   4.061
 5911WAT      O17974   8.760   7.148   3.789
 5911WAT     H117975   8.706   7.065   3.774
 5911WAT     H217976   8.819   7.164   3.711
 5912WAT      O17977   5.680   6.418   5.526
 5912WAT     H117978   5.741   6.448   5.453
 5912WAT     H217979   5.593   6.469   5.520
 5913WAT      O17980   0.430   5.182   0.060
 5913WAT     H117981   0.396   5.241  -0.014
 5913WAT     H217982   0.356   5.165   0.125
 5914WAT      O17983   8.813   9.453   5.166
 5914WAT     H117984   8.898   9.474   5.117
 5914WAT     H217985   8.775   9.368   5.128
 5915WAT      O17986   1.118   4.091   0.639
 5915WAT     H117987   1.174   4.025   0.689
 5915WAT     H217988   1.122   4.070   0.541
 5916WAT      O17989   2.502   8.787   3.565
 5916WAT     H117990   2.591   8.742   3.559
 5916WAT     H217991   2.454   8.756   3.647
 5917WAT      O17992   1.160   7.615   4.834
 5917WAT     H117993   1.086   7.579   4.777
 5917WAT     H217994   1.246   7.570   4.810
 5918WAT      O17995   2.274   5.122   9.663
 5918WAT     H117996   2.183   5.138   9.624
 5918WAT     H217997   2.338   5.189   9.626
 5919WAT      O17998   0.361   4.006   1.408
 5919WAT     H117999   0.427   3.949   1.359
 5919WAT     H218000   0.318   3.952   1.480
 5920WAT      O18001   0.847   8.769   8.889
 5920WAT     H118002   0.758   8.763   8.932
 5920WAT     H218003   0.882   8.677   8.871
 5921WAT      O18004   5.625   4.208   0.283
 5921WAT     H118005   5.676   4.246   0.206
 5921WAT     H218006   5.689   4.175   0.353
 5922WAT      O18007   2.763   0.875   5.342
 5922WAT     H118008   2.701   0.919   5.406
 5922WAT     H218009   2.834   0.940   5.315
 5923WAT      O18010   2.586   1.440   0.770
 5923WAT     H118011   2.494   1.401   0.771
 5923WAT     H218012   2.584   1.531   0.729
 5924WAT      O18013   4.292   1.130   6.208
 5924WAT     H118014   4.378   1.171   6.176
 5924WAT     H218015   4.266   1.055   6.147
 5925WAT      O18016   4.473   0.550   1.243
 5925WAT     H118017   4.430   0.531   1.155
 5925WAT     H218018   4.476   0.648   1.258
 5926WAT      O18019   3.553   7.445   6.880
 5926WAT     H118020   3.476   7.410   6.827
 5926WAT     H218021   3.519   7.503   6.955
 5927WAT      O18022   7.261   8.462   1.755
 5927WAT     H118023   7.359   8.461   1.738
 5927WAT     H218024   7.236   8.547   1.801
 5928WAT      O18025   0.160   1.113   0.269
 5928WAT     H118026   0.102   1.194   0.278
 5928WAT     H218027   0.111   1.033   0.302
 5929WAT      O18028   8.020   0.309   8.055
 5929WAT     H118029   7.946   0.348   8.110
 5929WAT     H218030   7.993   0.306   7.959
 5930WAT      O18031   2.913   3.531   3.021
 5930WAT     H118032   2.938   3.440   2.986
 5930WAT     H218033   2.848   3.573   2.959
 5931WAT      O18034   0.022   4.221   0.625
 5931WAT     H118035   0.086   4.284   0.581
 5931WAT     H218036   0.017   4.241   0.723
 5932WAT      O18037   5.754   3.489   4.280
 5932WAT     H118038   5.812   3.568   4.303
 5932WAT     H218039   5.679   3.483   4.346
 5933WAT      O18040   5.376   2.993   0.069
 5933WAT     H118041   5.319   2.982   0.151
 5933WAT     H218042   5.365   3.086   0.033
 5934WAT      O18043   9.691   8.686   6.919
 5934WAT     H118044   9.778   8.720   6.884
 5934WAT     H218045   9.682   8.588   6.898
 5935WAT      O18046   3.657   6.115   7.049
 5935WAT     H118047   3.659   6.056   6.968
 5935WAT     H218048   3.697   6.067   7.126
 5936WAT      O18049   7.645   5.167   7.426
 5936WAT     H118050   7.639   5.067   7.425
 5936WAT     H218051   7.741   5.194   7.423
 5937WAT      O18052   1.632   4.808   6.585
 5937WAT     H118053   1.719   4.760   6.571
 5937WAT     H218054   1.564   4.745   6.622
 5938WAT      O18055   6.699   5.660   9.440
 5938WAT     H118056   6.751   5.605   9.506
 5938WAT     H218057   6.666   5.743   9.485
 5939WAT      O18058   4.940   0.068   3.267
 5939WAT     H118059   4.854   0.062   3.318
 5939WAT     H218060   5.015   0.089   3.331
 5940WAT      O18061   5.255   9.555   2.922
 5940WAT     H118062   5.217   9.518   3.007
 5940WAT     H218063   5.293   9.481   2.866
 5941WAT      O18064   7.151   3.232   2.398
 5941WAT     H118065   7.219   3.182   2.451
 5941WAT     H218066   7.184   3.245   2.304
 5942WAT      O18067   0.055   1.898   7.289
 5942WAT     H118068   0.125   1.935   7.350
 5942WAT     H218069  -0.021   1.860   7.343
 5943WAT      O18070   5.671   9.128   4.188
 5943WAT     H118071   5.693   9.099   4.095
 5943WAT     H218072   5.584   9.088   4.216
 5944WAT      O18073   4.249   7.781   5.675
 5944WAT     H118074   4.299   7.790   5.761
 5944WAT     H218075   4.295   7.715   5.616
 5945WAT      O18076   7.538   2.612   9.739
 5945WAT     H118077   7.446   2.642   9.765
 5945WAT     H218078   7.547   2.618   9.639
 5946WAT      O18079   1.977   8.521   6.372
 5946WAT     H118080   1.968   8.617   6.398
 5946WAT     H218081   2.068   8.506   6.332
 5947WAT      O18082   5.244   8.433   2.140
 5947WAT     H118083   5.204   8.512   2.093
 5947WAT     H218084   5.343   8.433   2.125
 5948WAT      O18085   8.360   5.374   0.672
 5948WAT     H118086   8.401   5.307   0.610
 5948WAT     H218087   8.262   5.355   0.681
 5949WAT      O18088   3.799   6.123   0.647
 5949WAT     H118089   3.751   6.057   0.589
 5949WAT     H218090   3.734   6.169   0.708
 5950WAT      O18091   7.064   0.427   6.900
 5950WAT     H118092   7.092   0.475   6.984
 5950WAT     H218093   7.106   0.337   6.897
 5951WAT      O18094   9.855   7.666   4.969
 5951WAT     H118095   9.940   7.649   5.019
 5951WAT     H218096   9.778   7.660   5.033
 5952WAT      O18097   8.299   1.920   0.617
 5952WAT     H118098   8.358   1.918   0.537
 5952WAT     H218099   8.210   1.960   0.593
 5953WAT      O18100   0.724   6.861   4.689
 5953WAT     H118101   0.773   6.844   4.775
 5953WAT     H218102   0.775   6.819   4.613
 5954WAT      O18103   4.271   9.381   4.022
 5954WAT     H118104   4.334   9.404   4.096
 5954WAT     H218105   4.278   9.451   3.950
 5955WAT      O18106   7.559   4.265   6.272
 5955WAT     H118107   7.603   4.263   6.182
 5955WAT     H218108   7.594   4.189   6.327
 5956WAT      O18109   7.823   7.707   6.671
 5956WAT     H118110   7.801   7.799   6.702
 5956WAT     H218111   7.906   7.675   6.717
 5957WAT      O18112   1.887   0.102   4.104
 5957WAT     H118113   1.883   0.102   4.204
 5957WAT     H218114   1.976   0.136   4.073
 5958WAT      O18115   3.827   6.835   9.540
 5958WAT     H118116   3.897   6.906   9.528
 5958WAT     H218117   3.791   6.839   9.633
 5959WAT      O18118   7.390   6.401   2.280
 5959WAT     H118119   7.435   6.318   2.248
 5959WAT     H218120   7.318   6.426   2.215
 5960WAT      O18121   8.753   8.068   2.243
 5960WAT     H118122   8.822   8.133   2.210
 5960WAT     H218123   8.667   8.116   2.258
 5961WAT      O18124   2.625   4.384   5.613
 5961WAT     H118125   2.643   4.318   5.686
 5961WAT     H218126   2.631   4.338   5.524
 5962WAT      O18127   2.510   8.401   7.840
 5962WAT     H118128   2.573   8.367   7.770
 5962WAT     H218129   2.459   8.479   7.803
 5963WAT      O18130   3.868   8.200   3.220
 5963WAT     H118131   3.962   8.232   3.234
 5963WAT     H218132   3.810   8.278   3.197
 5964WAT      O18133   8.102   2.625   5.222
 5964WAT     H118134   8.078   2.566   5.299
 5964WAT     H218135   8.099   2.571   5.137
 5965WAT      O18136   3.366   1.403   9.525
 5965WAT     H118137   3.353   1.435   9.618
 5965WAT     H218138   3.306   1.325   9.507
 5966WAT      O18139   6.744   5.902   6.167
 5966WAT     H118140   6.804   5.863   6.097
 5966WAT     H218141   6.664   5.843   6.180
 5967WAT      O18142   6.799   5.648   0.597
 5967WAT     H118143   6.756   5.678   0.511
 5967WAT     H218144   6.790   5.720   0.665
 5968WAT      O18145   9.388   6.955   4.263
 5968WAT     H118146   9.464   6.942   4.199
 5968WAT     H218147   9.361   7.052   4.264
 5969WAT      O18148   0.887   0.761   9.755
 5969WAT     H118149   0.938   0.821   9.817
 5969WAT     H218150   0.870   0.808   9.668
 5970WAT      O18151   2.615   4.391   6.861
 5970WAT     H118152   2.594   4.306   6.813
 5970WAT     H218153   2.568   4.467   6.816
 5971WAT      O18154   0.345   7.492   4.794
 5971WAT     H118155   0.271   7.557   4.774
 5971WAT     H218156   0.346   7.472   4.892
 5972WAT      O18157   9.499   4.025   2.235
 5972WAT     H118158   9.516   4.041   2.332
 5972WAT     H218159   9.577   3.976   2.196
 5973WAT      O18160   9.085   6.898   6.194
 5973WAT     H118161   9.056   6.870   6.286
 5973WAT     H218162   9.083   6.818   6.133
 5974WAT      O18163   7.360   8.239   2.445
 5974WAT     H118164   7.294   8.288   2.503
 5974WAT     H218165   7.319   8.221   2.356
 5975WAT      O18166   7.160   2.880   3.813
 5975WAT     H118167   7.123   2.788   3.800
 5975WAT     H218168   7.099   2.933   3.872
 5976WAT      O18169   7.630   5.855   1.218
 5976WAT     H118170   7.605   5.780   1.156
 5976WAT     H218171   7.582   5.844   1.305
 5977WAT      O18172   0.582   6.214   2.796
 5977WAT     H118173   0.675   6.177   2.799
 5977WAT     H218174   0.582   6.296   2.739
 5978WAT      O18175   6.150   3.940   5.664
 5978WAT     H118176   6.194   3.877   5.727
 5978WAT     H218177   6.192   4.030   5.671
 5979WAT      O18178   0.060   0.264   6.809
 5979WAT     H118179   0.025   0.355   6.831
 5979WAT     H218180   0.110   0.227   6.887
 5980WAT      O18181   6.243   7.019   0.973
 5980WAT     H118182   6.202   7.098   1.019
 5980WAT     H218183   6.323   7.048   0.921
 5981WAT      O18184   6.039   0.277   3.346
 5981WAT     H118185   5.986   0.343   3.400
 5981WAT     H218186   6.029   0.186   3.387
 5982WAT      O18187   8.124   2.190   2.621
 5982WAT     H118188   8.173   2.212   2.537
 5982WAT     H218189   8.044   2.134   2.601
 5983WAT      O18190   2.348   8.105   4.081
 5983WAT     H118191   2.287   8.167   4.032
 5983WAT     H218192   2.341   8.121   4.179
 5984WAT      O18193   5.022   3.633   3.539
 5984WAT     H118194   5.073   3.626   3.453
 5984WAT     H218195   4.940   3.576   3.533
 5985WAT      O18196   4.265   7.267   6.195
 5985WAT     H118197   4.240   7.355   6.156
 5985WAT     H218198   4.250   7.195   6.127
 5986WAT      O18199   7.382   7.954   8.782
 5986WAT     H118200   7.446   7.878   8.794
 5986WAT     H218201   7.290   7.925   8.809
 5987WAT      O18202   4.921   8.574   2.785
 5987WAT     H118203   4.886   8.639   2.718
 5987WAT     H218204   4.899   8.607   2.877
 5988WAT      O18205   8.823   4.784   3.261
 5988WAT     H118206   8.729   4.799   3.292
 5988WAT     H218207   8.884   4.780   3.341
 5989WAT      O18208   7.945   5.742   0.369
 5989WAT     H118209   7.944   5.754   0.270
 5989WAT     H218210   7.964   5.830   0.413
 5990WAT      O18211   8.165   2.117   3.512
 5990WAT     H118212   8.217   2.034   3.489
 5990WAT     H218213   8.218   2.197   3.485
 5991WAT      O18214   7.954   4.069   3.532
 5991WAT     H118215   7.957   4.032   3.439
 5991WAT     H218216   7.985   4.000   3.597
 5992WAT      O18217   6.178   2.143   5.855
 5992WAT     H118218   6.223   2.120   5.942
 5992WAT     H218219   6.108   2.212   5.871
 5993WAT      O18220   6.109   4.812   7.813
 5993WAT     H118221   6.040   4.808   7.885
 5993WAT     H218222   6.177   4.741   7.827
 5994WAT      O18223   7.817   5.437   6.646
 5994WAT     H118224   7.900   5.474   6.604
 5994WAT     H218225   7.766   5.385   6.578
 5995WAT      O18226   3.489   7.227   5.626
 5995WAT     H118227   3.503   7.324   5.647
 5995WAT     H218228   3.558   7.196   5.561
 5996WAT      O18229   7.772   4.484   0.283
 5996WAT     H118230   7.821   4.536   0.213
 5996WAT     H218231   7.828   4.478   0.366
 5997WAT      O18232   2.089   9.367   7.364
 5997WAT     H118233   2.132   9.389   7.276
 5997WAT     H218234   2.033   9.285   7.355
 5998WAT      O18235   5.371   0.007   7.929
 5998WAT     H118236   5.339   0.003   7.834
 5998WAT     H218237   5.368  -0.084   7.969
 5999WAT      O18238   8.686   4.123   0.511
 5999WAT     H118239   8.695   4.117   0.610
 5999WAT     H218240   8.776   4.126   0.469
 6000WAT      O18241   1.085   9.629   7.775
 6000WAT     H118242   1.181   9.602   7.778
 6000WAT     H218243   1.029   9.548   7.758
 6001WAT      O18244   5.944   5.145   2.945
 6001WAT     H118245   6.039   5.149   2.975
 6001WAT     H218246   5.927   5.218   2.878
 6002WAT      O18247   0.644   0.396   3.421
 6002WAT     H118248   0.636   0.473   3.357
 6002WAT     H218249   0.582   0.411   3.498
 6003WAT      O18250   3.783   6.761   1.385
 6003WAT     H118251   3.771   6.662   1.393
 6003WAT     H218252   3.829   6.795   1.467
 6004WAT      O18253   6.685   9.195   0.806
 6004WAT     H118254   6.616   9.194   0.878
 6004WAT     H218255   6.641   9.203   0.717
 6005WAT      O18256   3.316   8.642   4.669
 6005WAT     H118257   3.384   8.702   4.626
 6005WAT     H218258   3.347   8.618   4.761
 6006WAT      O18259   3.452   2.728   7.805
 6006WAT     H118260   3.536   2.774   7.832
 6006WAT     H218261   3.428   2.659   7.874
 6007WAT      O18262   9.594   7.140   3.798
 6007WAT     H118263   9.608   7.203   3.722
 6007WAT     H218264   9.501   7.152   3.834
 6008WAT      O18265   8.447   6.870   1.379
 6008WAT     H118266   8.431   6.830   1.289
 6008WAT     H218267   8.386   6.828   1.446
 6009WAT      O18268   6.686   8.510   5.901
 6009WAT     H118269   6.699   8.511   5.802
 6009WAT     H218270   6.589   8.516   5.922
 6010WAT      O18271   5.916   4.320   9.293
 6010WAT     H118272   5.862   4.332   9.376
 6010WAT     H218273   6.006   4.361   9.305
 6011WAT      O18274   7.471   0.296   1.140
 6011WAT     H118275   7.499   0.204   1.170
 6011WAT     H218276   7.534   0.364   1.179
 6012WAT      O18277   9.225   1.575   0.556
 6012WAT     H118278   9.254   1.487   0.593
 6012WAT     H218279   9.302   1.620   0.512
 6013WAT      O18280   5.220   7.101   8.786
 6013WAT     H118281   5.199   7.138   8.695
 6013WAT     H218282   5.285   7.026   8.778
 6014WAT      O18283   6.790   2.836   7.807
 6014WAT     H118284   6.747   2.875   7.889
 6014WAT     H218285   6.785   2.736   7.812
 6015WAT      O18286   4.367   5.907   5.339
 6015WAT     H118287   4.443   5.849   5.309
 6015WAT     H218288   4.348   5.975   5.268
 6016WAT      O18289   9.459   5.248   3.954
 6016WAT     H118290   9.417   5.159   3.936
 6016WAT     H218291   9.552   5.235   3.988
 6017WAT      O18292   1.808   5.310   4.140
 6017WAT     H118293   1.774   5.352   4.225
 6017WAT     H218294   1.862   5.229   4.162
 6018WAT      O18295   3.642   5.009   8.333
 6018WAT     H118296   3.583   4.933   8.361
 6018WAT     H218297   3.693   5.042   8.412
 6019WAT      O18298   4.143   2.820   2.703
 6019WAT     H118299   4.143   2.920   2.707
 6019WAT     H218300   4.155   2.782   2.795
 6020WAT      O18301   6.179   1.111   2.524
 6020WAT     H118302   6.220   1.113   2.433
 6020WAT     H218303   6.084   1.140   2.518
 6021WAT      O18304   8.351   7.310   9.053
 6021WAT     H118305   8.291   7.377   9.009
 6021WAT     H218306   8.399   7.257   8.984
 6022WAT      O18307   9.070   2.235   7.417
 6022WAT     H118308   9.106   2.277   7.500
 6022WAT     H218309   8.994   2.290   7.382
 6023WAT      O18310   8.895   2.326   8.039
 6023WAT     H118311   8.965   2.258   8.056
 6023WAT     H218312   8.805   2.287   8.057
 6024WAT      O18313   1.573   8.018   7.838
 6024WAT     H118314   1.579   7.927   7.797
 6024WAT     H218315   1.660   8.041   7.882
 6025WAT      O18316   7.548   0.005   8.926
 6025WAT     H118317   7.574   0.037   8.834
 6025WAT     H218318   7.518  -0.090   8.921
 6026WAT      O18319   9.160   0.572   1.389
 6026WAT     H118320   9.066   0.597   1.366
 6026WAT     H218321   9.172   0.473   1.378
 6027WAT      O18322   3.626   6.972   8.222
 6027WAT     H118323   3.721   6.999   8.239
 6027WAT     H218324   3.623   6.899   8.155
 6028WAT      O18325   0.812   3.893   6.469
 6028WAT     H118326   0.718   3.862   6.487
 6028WAT     H218327   0.829   3.893   6.371
 6029WAT      O18328   5.816   0.635   5.985
 6029WAT     H118329   5.736   0.687   6.015
 6029WAT     H218330   5.882   0.627   6.059
 6030WAT      O18331   8.870   0.298   8.196
 6030WAT     H118332   8.836   0.390   8.218
 6030WAT     H218333   8.881   0.245   8.279
 6031WAT      O18334   0.516   2.139   8.677
 6031WAT     H118335   0.583   2.130   8.751
 6031WAT     H218336   0.561   2.175   8.596
 6032WAT      O18337   6.044   1.713   3.645
 6032WAT     H118338   6.114   1.774   3.608
 6032WAT     H218339   6.000   1.757   3.724
 6033WAT      O18340   8.860   9.082   8.336
 6033WAT     H118341   8.864   9.012   8.407
 6033WAT     H218342   8.766   9.093   8.305
 6034WAT      O18343   7.018   7.139   6.631
 6034WAT     H118344   7.013   7.106   6.726
 6034WAT     H218345   6.933   7.185   6.607
 6035WAT      O18346   6.093   9.510   2.347
 6035WAT     H118347   6.106   9.518   2.446
 6035WAT     H218348   6.181   9.490   2.303
 6036WAT      O18349   5.714   0.375   8.808
 6036WAT     H118350   5.620   0.362   8.777
 6036WAT     H218351   5.717   0.375   8.908
 6037WAT      O18352   1.284   7.075   4.462
 6037WAT     H118353   1.291   7.114   4.370
 6037WAT     H218354   1.276   7.148   4.529
 6038WAT      O18355   7.215   2.276   6.060
 6038WAT     H118356   7.262   2.317   5.982
 6038WAT     H218357   7.126   2.240   6.030
 6039WAT      O18358   0.913   4.680   1.966
 6039WAT     H118359   0.966   4.595   1.969
 6039WAT     H218360   0.892   4.711   2.059
 6040WAT      O18361   8.040   4.745   5.892
 6040WAT     H118362   8.082   4.807   5.959
 6040WAT     H218363   7.940   4.756   5.896
 6041WAT      O18364   8.904   1.442   0.326
 6041WAT     H118365   8.843   1.485   0.392
 6041WAT     H218366   8.855   1.429   0.239
 6042WAT      O18367   1.653   7.809   5.539
 6042WAT     H118368   1.616   7.783   5.628
 6042WAT     H218369   1.682   7.727   5.490
 6043WAT      O18370   7.499   6.260   1.608
 6043WAT     H118371   7.496   6.341   1.666
 6043WAT     H218372   7.433   6.270   1.533
 6044WAT      O18373   3.833   5.895   3.282
 6044WAT     H118374   3.850   5.898   3.380
 6044WAT     H218375   3.823   5.988   3.247
 6045WAT      O18376   7.129   8.858   5.997
 6045WAT     H118377   7.099   8.892   5.908
 6045WAT     H218378   7.124   8.758   5.999
 6046WAT      O18379   5.932   9.238   5.937
 6046WAT     H118380   5.848   9.195   5.971
 6046WAT     H218381   6.010   9.207   5.991
 6047WAT      O18382   8.765   3.306   4.878
 6047WAT     H118383   8.844   3.343   4.927
 6047WAT     H218384   8.796   3.232   4.818
 6048WAT      O18385   8.071   0.266   3.442
 6048WAT     H118386   8.030   0.225   3.523
 6048WAT     H218387   8.121   0.197   3.390
 6049WAT      O18388   7.069   7.797   3.559
 6049WAT     H118389   6.997   7.767   3.496
 6049WAT     H218390   7.029   7.814   3.649
 6050WAT      O18391   5.457   4.981   7.911
 6050WAT     H118392   5.518   4.916   7.866
 6050WAT     H218393   5.484   5.075   7.888
 6051WAT      O18394   8.309   7.894   7.791
 6051WAT     H118395   8.241   7.829   7.758
 6051WAT     H218396   8.317   7.969   7.725
 6052WAT      O18397   3.139   9.801   1.658
 6052WAT     H118398   3.174   9.883   1.614
 6052WAT     H218399   3.142   9.812   1.758
 6053WAT      O18400   4.386   0.333   4.999
 6053WAT     H118401   4.391   0.255   5.061
 6053WAT     H218402   4.394   0.418   5.052
 6054WAT      O18403   1.940   3.168   3.364
 6054WAT     H118404   1.989   3.246   3.325
 6054WAT     H218405   1.867   3.139   3.302
 6055WAT      O18406   0.078   8.211   7.570
 6055WAT     H118407   0.133   8.291   7.594
 6055WAT     H218408  -0.014   8.222   7.609
 6056WAT      O18409   0.799   5.635   3.925
 6056WAT     H118410   0.699   5.638   3.921
 6056WAT     H218411   0.833   5.560   3.868
 6057WAT      O18412   7.121   9.249   0.861
 6057WAT     H118413   7.077   9.253   0.771
 6057WAT     H218414   7.121   9.154   0.893
 6058WAT      O18415   3.181   8.871   8.305
 6058WAT     H118416   3.227   8.939   8.362
 6058WAT     H218417   3.190   8.896   8.208
 6059WAT      O18418   7.232   5.126   7.232
 6059WAT     H118419   7.310   5.185   7.254
 6059WAT     H218420   7.231   5.048   7.294
 6060WAT      O18421   3.021   6.419   5.634
 6060WAT     H118422   3.035   6.321   5.650
 6060WAT     H218423   3.083   6.472   5.691
 6061WAT      O18424   9.537   0.612   5.766
 6061WAT     H118425   9.572   0.695   5.722
 6061WAT     H218426   9.605   0.539   5.760
 6062WAT      O18427   9.669   7.045   0.814
 6062WAT     H118428   9.593   7.043   0.749
 6062WAT     H218429   9.635   7.019   0.904
 6063WAT      O18430   2.475   8.544   3.338
 6063WAT     H118431   2.515   8.596   3.414
 6063WAT     H218432   2.532   8.465   3.318
 6064WAT      O18433   5.539   2.879   9.162
 6064WAT     H118434   5.465   2.883   9.095
 6064WAT     H218435   5.501   2.887   9.254
 6065WAT      O18436   6.421   5.451   8.367
 6065WAT     H118437   6.507   5.500   8.378
 6065WAT     H218438   6.393   5.412   8.455
 6066WAT      O18439   5.760   2.086   7.520
 6066WAT     H118440   5.858   2.104   7.516
 6066WAT     H218441   5.742   1.994   7.486
 6067WAT      O18442   4.444   0.800   0.649
 6067WAT     H118443   4.454   0.701   0.636
 6067WAT     H218444   4.358   0.818   0.697
 6068WAT      O18445   9.013   8.777   5.862
 6068WAT     H118446   8.936   8.803   5.921
 6068WAT     H218447   9.081   8.849   5.862
 6069WAT      O18448   4.015   9.125   5.906
 6069WAT     H118449   4.058   9.203   5.950
 6069WAT     H218450   4.060   9.041   5.936
 6070WAT      O18451   4.677   3.405   8.385
 6070WAT     H118452   4.719   3.466   8.317
 6070WAT     H218453   4.580   3.427   8.394
 6071WAT      O18454   6.071   9.661   6.261
 6071WAT     H118455   6.037   9.716   6.337
 6071WAT     H218456   5.995   9.622   6.210
 6072WAT      O18457   7.419   2.842   6.870
 6072WAT     H118458   7.381   2.800   6.787
 6072WAT     H218459   7.346   2.882   6.924
 6073WAT      O18460   3.639   6.173   7.590
 6073WAT     H118461   3.549   6.200   7.557
 6073WAT     H218462   3.710   6.221   7.537
 6074WAT      O18463   6.166   8.982   6.854
 6074WAT     H118464   6.092   8.916   6.861
 6074WAT     H218465   6.231   8.968   6.928
 6075WAT      O18466   3.984   3.949   8.778
 6075WAT     H118467   3.972   3.905   8.689
 6075WAT     H218468   4.081   3.947   8.803
 6076WAT      O18469   8.501   4.591   6.179
 6076WAT     H118470   8.600   4.602   6.186
 6076WAT     H218471   8.464   4.657   6.114
 6077WAT      O18472   7.321   2.644   4.513
 6077WAT     H118473   7.301   2.679   4.605
 6077WAT     H218474   7.419   2.647   4.497
 6078WAT      O18475   5.678   2.992   6.179
 6078WAT     H118476   5.774   3.001   6.207
 6078WAT     H218477   5.649   3.076   6.135
 6079WAT      O18478   8.780   1.378   8.753
 6079WAT     H118479   8.800   1.458   8.809
 6079WAT     H218480   8.822   1.297   8.796
 6080WAT      O18481   4.632   4.724   7.116
 6080WAT     H118482   4.727   4.702   7.138
 6080WAT     H218483   4.629   4.785   7.037
 6081WAT      O18484   5.422   9.640   6.129
 6081WAT     H118485   5.473   9.709   6.076
 6081WAT     H218486   5.338   9.681   6.164
 6082WAT      O18487   0.918   3.760   7.644
 6082WAT     H118488   1.010   3.725   7.631
 6082WAT     H218489   0.855   3.711   7.584
 6083WAT      O18490   0.660   7.712   7.353
 6083WAT     H118491   0.653   7.807   7.321
 6083WAT     H218492   0.750   7.675   7.328
 6084WAT      O18493   0.356   0.729   2.213
 6084WAT     H118494   0.297   0.652   2.235
 6084WAT     H218495   0.336   0.805   2.276
 6085WAT      O18496   3.826   2.197   1.112
 6085WAT     H118497   3.923   2.179   1.093
 6085WAT     H218498   3.803   2.290   1.084
 6086WAT      O18499   7.117   4.848   2.413
 6086WAT     H118500   7.104   4.824   2.509
 6086WAT     H218501   7.214   4.862   2.394
 6087WAT      O18502   0.810   4.513   8.763
 6087WAT     H118503   0.830   4.535   8.859
 6087WAT     H218504   0.712   4.496   8.752
 6088WAT      O18505   8.143   3.998   6.554
 6088WAT     H118506   8.118   3.902   6.542
 6088WAT     H218507   8.070   4.057   6.519
 6089WAT      O18508   5.326   7.032   1.363
 6089WAT     H118509   5.372   7.106   1.313
 6089WAT     H218510   5.350   7.039   1.460
 6090WAT      O18511   0.002   3.739   2.271
 6090WAT     H118512   0.068   3.665   2.286
 6090WAT     H218513   0.045   3.827   2.289
 6091WAT      O18514   1.750   9.118   7.922
 6091WAT     H118515   1.807   9.070   7.856
 6091WAT     H218516   1.782   9.098   8.014
 6092WAT      O18517   1.028   0.658   1.179
 6092WAT     H118518   1.008   0.627   1.086
 6092WAT     H218519   1.099   0.728   1.177
 6093WAT      O18520   6.941   7.497   0.613
 6093WAT     H118521   7.036   7.474   0.636
 6093WAT     H218522   6.940   7.583   0.562
 6094WAT      O18523   2.135   3.275   4.428
 6094WAT     H118524   2.221   3.305   4.388
 6094WAT     H218525   2.105   3.340   4.498
 6095WAT      O18526   9.639   9.317   8.618
 6095WAT     H118527   9.706   9.320   8.692
 6095WAT     H218528   9.567   9.251   8.640
 6096WAT      O18529   3.037   0.401   4.580
 6096WAT     H118530   3.116   0.356   4.622
 6096WAT     H218531   3.061   0.494   4.555
 6097WAT      O18532   8.073   5.787   0.092
 6097WAT     H118533   8.141   5.849   0.130
 6097WAT     H218534   7.985   5.835   0.085
 6098WAT      O18535   4.808   0.791   8.188
 6098WAT     H118536   4.779   0.720   8.253
 6098WAT     H218537   4.738   0.861   8.181
 6099WAT      O18538   2.815   2.103   3.389
 6099WAT     H118539   2.740   2.043   3.364
 6099WAT     H218540   2.800   2.141   3.480
 6100WAT      O18541   5.562   6.585   3.661
 6100WAT     H118542   5.520   6.510   3.712
 6100WAT     H218543   5.491   6.632   3.608
 6101WAT      O18544   6.129   7.932   6.116
 6101WAT     H118545   6.042   7.978   6.135
 6101WAT     H218546   6.119   7.877   6.033
 6102WAT      O18547   0.134   4.980   9.402
 6102WAT     H118548   0.200   4.931   9.346
 6102WAT     H218549   0.046   4.932   9.398
 6103WAT      O18550   7.858   2.969   8.839
 6103WAT     H118551   7.953   2.987   8.816
 6103WAT     H218552   7.852   2.936   8.934
 6104WAT      O18553   0.914   9.011   5.469
 6104WAT     H118554   0.868   9.062   5.542
 6104WAT     H218555   1.007   8.988   5.499
 6105WAT      O18556   3.752   4.963   7.623
 6105WAT     H118557   3.839   4.967   7.671
 6105WAT     H218558   3.744   5.042   7.563
 6106WAT      O18559   4.499   6.492   9.322
 6106WAT     H118560   4.490   6.527   9.416
 6106WAT     H218561   4.504   6.570   9.259
 6107WAT      O18562   5.243   9.323   8.472
 6107WAT     H118563   5.323   9.312   8.412
 6107WAT     H218564   5.195   9.236   8.480
 6108WAT      O18565   3.020   1.484   9.245
 6108WAT     H118566   3.098   1.544   9.265
 6108WAT     H218567   2.946   1.538   9.204
 6109WAT      O18568   1.589   2.782   7.202
 6109WAT     H118569   1.603   2.880   7.182
 6109WAT     H218570   1.493   2.760   7.189
 6110WAT      O18571   5.168   4.381   8.667
 6110WAT     H118572   5.163   4.289   8.706
 6110WAT     H218573   5.216   4.441   8.730
 6111WAT      O18574   7.722   5.436   4.890
 6111WAT     H118575   7.784   5.478   4.824
 6111WAT     H218576   7.704   5.342   4.863
 6112WAT      O18577   1.575   4.858   5.432
 6112WAT     H118578   1.646   4.854   5.502
 6112WAT     H218579   1.612   4.904   5.350
 6113WAT      O18580   6.719   3.301   5.873
 6113WAT     H118581   6.684   3.248   5.950
 6113WAT     H218582   6.799   3.353   5.903
 6114WAT      O18583   6.439   1.885   3.662
 6114WAT     H118584   6.370   1.861   3.731
 6114WAT     H218585   6.530   1.860   3.695
 6115WAT      O18586   8.178   6.475   7.034
 6115WAT     H118587   8.248   6.543   7.010
 6115WAT     H218588   8.125   6.453   6.952
 6116WAT      O18589   2.492   8.889   5.047
 6116WAT     H118590   2.562   8.950   5.085
 6116WAT     H218591   2.402   8.920   5.076
 6117WAT      O18592   6.136   2.401   0.883
 6117WAT     H118593   6.068   2.371   0.816
 6117WAT     H218594   6.142   2.501   0.882
 6118WAT      O18595   1.633   2.785   3.538
 6118WAT     H118596   1.682   2.826   3.460
 6118WAT     H218597   1.674   2.817   3.623
 6119WAT      O18598   2.648   2.837   3.965
 6119WAT     H118599   2.666   2.863   4.059
 6119WAT     H218600   2.621   2.918   3.912
 6120WAT      O18601   4.472   5.095   3.894
 6120WAT     H118602   4.480   5.101   3.795
 6120WAT     H218603   4.402   5.028   3.918
 6121WAT      O18604   4.688   7.971   5.783
 6121WAT     H118605   4.781   7.978   5.745
 6121WAT     H218606   4.675   8.044   5.850
 6122WAT      O18607   7.352   2.374   6.705
 6122WAT     H118608   7.437   2.324   6.722
 6122WAT     H218609   7.292   2.366   6.784
 6123WAT      O18610   1.653   4.185   9.803
 6123WAT     H118611   1.623   4.112   9.864
 6123WAT     H218612   1.595   4.186   9.722
 6124WAT      O18613   5.071   2.799   8.113
 6124WAT     H118614   5.119   2.880   8.147
 6124WAT     H218615   5.009   2.766   8.184
 6125WAT      O18616   2.323   3.031   8.620
 6125WAT     H118617   2.391   2.972   8.663
 6125WAT     H218618   2.236   3.022   8.668
 6126WAT      O18619   2.142   2.572   5.516
 6126WAT     H118620   2.046   2.546   5.507
 6126WAT     H218621   2.161   2.597   5.611
 6127WAT      O18622   5.275   5.049   1.071
 6127WAT     H118623   5.203   5.017   1.134
 6127WAT     H218624   5.238   5.122   1.014
 6128WAT      O18625   6.696   3.179   9.242
 6128WAT     H118626   6.667   3.087   9.213
 6128WAT     H218627   6.621   3.223   9.292
 6129WAT      O18628   6.311   4.505   3.564
 6129WAT     H118629   6.383   4.436   3.575
 6129WAT     H218630   6.331   4.561   3.484
 6130WAT      O18631   3.824   2.349   6.841
 6130WAT     H118632   3.773   2.382   6.920
 6130WAT     H218633   3.796   2.399   6.759
 6131WAT      O18634   8.068   5.305   9.687
 6131WAT     H118635   8.081   5.404   9.684
 6131WAT     H218636   8.047   5.271   9.595
 6132WAT      O18637   5.678   3.704   5.742
 6132WAT     H118638   5.609   3.702   5.814
 6132WAT     H218639   5.634   3.692   5.653
 6133WAT      O18640   3.093   6.893   3.669
 6133WAT     H118641   3.059   6.849   3.752
 6133WAT     H218642   3.177   6.848   3.640
 6134WAT      O18643   7.711   9.708   2.476
 6134WAT     H118644   7.794   9.763   2.473
 6134WAT     H218645   7.631   9.768   2.478
 6135WAT      O18646   4.769   4.827   4.324
 6135WAT     H118647   4.704   4.901   4.308
 6135WAT     H218648   4.771   4.766   4.245
 6136WAT      O18649   8.425   1.424   8.862
 6136WAT     H118650   8.467   1.348   8.812
 6136WAT     H218651   8.325   1.415   8.857
 6137WAT      O18652   9.232   4.101   2.239
 6137WAT     H118653   9.177   4.177   2.203
 6137WAT     H218654   9.329   4.125   2.233
 6138WAT      O18655   9.317   1.952   8.320
 6138WAT     H118656   9.338   1.911   8.408
 6138WAT     H218657   9.285   2.046   8.333
 6139WAT      O18658   2.986   0.824   6.499
 6139WAT     H118659   2.970   0.922   6.512
 6139WAT     H218660   3.082   0.803   6.519
 6140WAT      O18661   6.263   3.357   3.996
 6140WAT     H118662   6.202   3.341   3.919
 6140WAT     H218663   6.209   3.380   4.077
 6141WAT      O18664   9.088   5.256   4.344
 6141WAT     H118665   9.074   5.347   4.383
 6141WAT     H218666   9.177   5.252   4.299
 6142WAT      O18667   0.400   8.577   7.341
 6142WAT     H118668   0.459   8.503   7.374
 6142WAT     H218669   0.429   8.604   7.249
 6143WAT      O18670   7.192   7.943   5.972
 6143WAT     H118671   7.277   7.965   5.923
 6143WAT     H218672   7.215   7.897   6.057
 6144WAT      O18673   8.010   2.484   5.421
 6144WAT     H118674   8.059   2.404   5.456
 6144WAT     H218675   7.912   2.462   5.413
 6145WAT      O18676   3.308   2.565   1.779
 6145WAT     H118677   3.289   2.663   1.788
 6145WAT     H218678   3.406   2.551   1.770
 6146WAT      O18679   7.039   3.778   6.678
 6146WAT     H118680   7.078   3.702   6.626
 6146WAT     H218681   7.072   3.864   6.641
 6147WAT      O18682   7.060   0.898   1.553
 6147WAT     H118683   7.043   0.964   1.626
 6147WAT     H218684   7.149   0.917   1.511
 6148WAT      O18685   9.410   6.124   7.932
 6148WAT     H118686   9.407   6.054   8.004
 6148WAT     H218687   9.504   6.132   7.898
 6149WAT      O18688   4.348   8.320   5.934
 6149WAT     H118689   4.292   8.253   5.886
 6149WAT     H218690   4.295   8.361   6.008
 6150WAT      O18691   6.944   9.318   6.642
 6150WAT     H118692   6.954   9.395   6.704
 6150WAT     H218693   6.848   9.289   6.639
 6151WAT      O18694   5.832   9.620   0.934
 6151WAT     H118695   5.795   9.529   0.953
 6151WAT     H218696   5.847   9.630   0.836
 6152WAT      O18697   6.425   3.892   7.067
 6152WAT     H118698   6.465   3.891   7.158
 6152WAT     H218699   6.330   3.922   7.072
 6153WAT      O18700   3.901   0.702   7.944
 6153WAT     H118701   3.965   0.632   7.976
 6153WAT     H218702   3.809   0.665   7.943
 6154WAT      O18703   4.106   9.645   6.728
 6154WAT     H118704   4.006   9.645   6.728
 6154WAT     H218705   4.140   9.635   6.635
 6155WAT      O18706   5.713   3.996   1.797
 6155WAT     H118707   5.805   3.970   1.826
 6155WAT     H218708   5.654   3.915   1.802
 6156WAT      O18709   7.814   4.493   6.455
 6156WAT     H118710   7.765   4.580   6.450
 6156WAT     H218711   7.906   4.504   6.417
 6157WAT      O18712   0.700   0.238   7.721
 6157WAT     H118713   0.744   0.221   7.809
 6157WAT     H218714   0.769   0.272   7.656
 6158WAT      O18715   3.662   6.719   3.892
 6158WAT     H118716   3.577   6.668   3.876
 6158WAT     H218717   3.726   6.663   3.944
 6159WAT      O18718   4.817   2.450   7.963
 6159WAT     H118719   4.804   2.403   8.050
 6159WAT     H218720   4.858   2.386   7.897
 6160WAT      O18721   0.290   3.292   1.830
 6160WAT     H118722   0.242   3.337   1.755
 6160WAT     H218723   0.386   3.319   1.830
 6161WAT      O18724   5.219   0.247   6.328
 6161WAT     H118725   5.275   0.173   6.365
 6161WAT     H218726   5.141   0.265   6.388
 6162WAT      O18727   0.390   8.121   7.619
 6162WAT     H118728   0.392   8.086   7.526
 6162WAT     H218729   0.349   8.212   7.619
 6163WAT      O18730   9.263   4.897   2.668
 6163WAT     H118731   9.262   4.954   2.750
 6163WAT     H218732   9.354   4.902   2.626
 6164WAT      O18733   7.141   2.456   7.581
 6164WAT     H118734   7.057   2.509   7.595
 6164WAT     H218735   7.212   2.516   7.542
 6165WAT      O18736   8.070   4.285   6.278
 6165WAT     H118737   8.153   4.336   6.257
 6165WAT     H218738   8.034   4.242   6.195
 6166WAT      O18739   8.570   9.791   3.483
 6166WAT     H118740   8.533   9.849   3.410
 6166WAT     H218741   8.591   9.701   3.447
 6167WAT      O18742   4.160   5.371   5.334
 6167WAT     H118743   4.123   5.390   5.425
 6167WAT     H218744   4.232   5.302   5.341
 6168WAT      O18745   2.238   9.221   8.509
 6168WAT     H118746   2.209   9.213   8.413
 6168WAT     H218747   2.334   9.251   8.512
 6169WAT      O18748   9.583   7.639   5.885
 6169WAT     H118749   9.642   7.569   5.845
 6169WAT     H218750   9.640   7.707   5.931
 6170WAT      O18751   8.439   5.882   5.796
 6170WAT     H118752   8.415   5.857   5.890
 6170WAT     H218753   8.537   5.868   5.782
 6171WAT      O18754   5.703   1.967   0.467
 6171WAT     H118755   5.604   1.952   0.464
 6171WAT     H218756   5.741   1.958   0.375
 6172WAT      O18757   8.022   0.552   0.478
 6172WAT     H118758   7.976   0.601   0.552
 6172WAT     H218759   8.119   0.543   0.499
 6173WAT      O18760   0.180   0.926   6.366
 6173WAT     H118761   0.248   0.942   6.295
 6173WAT     H218762   0.185   1.000   6.434
 6174WAT      O18763   8.467   7.623   2.758
 6174WAT     H118764   8.491   7.594   2.665
 6174WAT     H218765   8.386   7.682   2.754
 6175WAT      O18766   4.976   4.238   2.361
 6175WAT     H118767   4.939   4.306   2.298
 6175WAT     H218768   5.075   4.248   2.367
 6176WAT      O18769   2.165   4.118   3.276
 6176WAT     H118770   2.194   4.032   3.317
 6176WAT     H218771   2.242   4.162   3.230
 6177WAT      O18772   9.676   2.041   4.078
 6177WAT     H118773   9.602   2.099   4.043
 6177WAT     H218774   9.661   2.023   4.175
 6178WAT      O18775   1.143   0.073   1.121
 6178WAT     H118776   1.073   0.051   1.190
 6178WAT     H218777   1.143   0.003   1.050
 6179WAT      O18778   9.203   5.941   5.798
 6179WAT     H118779   9.162   5.858   5.836
 6179WAT     H218780   9.181   5.948   5.701
 6180WAT      O18781   7.892   7.409   5.173
 6180WAT     H118782   7.801   7.446   5.190
 6180WAT     H218783   7.954   7.483   5.146
 6181WAT      O18784   7.402   9.757   8.267
 6181WAT     H118785   7.381   9.851   8.241
 6181WAT     H218786   7.464   9.717   8.200
 6182WAT      O18787   2.079   8.830   9.729
 6182WAT     H118788   2.044   8.912   9.774
 6182WAT     H218789   2.141   8.782   9.791
 6183WAT      O18790   8.485   2.614   1.552
 6183WAT     H118791   8.387   2.633   1.540
 6183WAT     H218792   8.516   2.655   1.637
 6184WAT      O18793   4.552   8.611   5.143
 6184WAT     H118794   4.477   8.676   5.148
 6184WAT     H218795   4.516   8.519   5.160
 6185WAT      O18796   9.131   8.364   9.894
 6185WAT     H118797   9.225   8.370   9.860
 6185WAT     H218798   9.082   8.292   9.845
 6186WAT      O18799   4.422   5.560   8.999
 6186WAT     H118800   4.342   5.574   9.057
 6186WAT     H218801   4.401   5.592   8.906
 6187WAT      O18802   7.668   0.038   5.580
 6187WAT     H118803   7.741   0.020   5.513
 6187WAT     H218804   7.588  -0.018   5.558
 6188WAT      O18805   4.556   8.145   6.388
 6188WAT     H118806   4.498   8.172   6.465
 6188WAT     H218807   4.575   8.225   6.331
 6189WAT      O18808   3.735   2.148   2.965
 6189WAT     H118809   3.775   2.203   2.892
 6189WAT     H218810   3.643   2.181   2.986
 6190WAT      O18811   5.157   2.170   4.119
 6190WAT     H118812   5.191   2.076   4.120
 6190WAT     H218813   5.081   2.177   4.055
 6191WAT      O18814   3.412   5.438   4.145
 6191WAT     H118815   3.479   5.487   4.089
 6191WAT     H218816   3.321   5.451   4.106
 6192WAT      O18817   0.511   8.792   2.664
 6192WAT     H118818   0.422   8.829   2.636
 6192WAT     H218819   0.496   8.722   2.734
 6193WAT      O18820   7.151   0.823   8.333
 6193WAT     H118821   7.219   0.758   8.300
 6193WAT     H218822   7.059   0.790   8.310
 6194WAT      O18823   3.399   9.612   7.316
 6194WAT     H118824   3.426   9.558   7.396
 6194WAT     H218825   3.455   9.695   7.312
 6195WAT      O18826   0.534   5.135   2.975
 6195WAT     H118827   0.582   5.048   2.963
 6195WAT     H218828   0.577   5.205   2.918
 6196WAT      O18829   2.344   0.497   6.109
 6196WAT     H118830   2.254   0.471   6.075
 6196WAT     H218831   2.409   0.422   6.094
 6197WAT      O18832   5.207   6.042   5.102
 6197WAT     H118833   5.115   6.070   5.074
 6197WAT     H218834   5.200   5.963   5.163
 6198WAT      O18835   5.664   5.900   4.228
 6198WAT     H118836   5.612   5.849   4.297
 6198WAT     H218837   5.608   5.911   4.146
 6199WAT      O18838   8.477   2.553   4.989
 6199WAT     H118839   8.521   2.518   4.906
 6199WAT     H218840   8.415   2.484   5.026
 6200WAT      O18841   6.970   4.927   9.484
 6200WAT     H118842   6.982   4.959   9.578
 6200WAT     H218843   6.878   4.887   9.475
 6201WAT      O18844   5.503   5.401   7.185
 6201WAT     H118845   5.594   5.430   7.157
 6201WAT     H218846   5.480   5.441   7.273
 6202WAT      O18847   5.273   9.005   8.045
 6202WAT     H118848   5.269   9.103   8.027
 6202WAT     H218849   5.187   8.975   8.087
 6203WAT      O18850   2.424   4.565   5.481
 6203WAT     H118851   2.432   4.664   5.481
 6203WAT     H218852   2.515   4.524   5.487
 6204WAT      O18853   8.043   1.126   5.314
 6204WAT     H118854   8.056   1.066   5.393
 6204WAT     H218855   7.955   1.105   5.270
 6205WAT      O18856   7.311   4.107   5.750
 6205WAT     H118857   7.350   4.016   5.734
 6205WAT     H218858   7.374   4.177   5.717
 6206WAT      O18859   1.062   0.217   7.321
 6206WAT     H118860   0.997   0.165   7.377
 6206WAT     H218861   1.117   0.276   7.380
 6207WAT      O18862   3.935   2.517   9.726
 6207WAT     H118863   3.846   2.477   9.747
 6207WAT     H218864   3.985   2.455   9.665
 6208WAT      O18865   3.748   1.824   1.542
 6208WAT     H118866   3.666   1.857   1.496
 6208WAT     H218867   3.773   1.886   1.616
 6209WAT      O18868   6.069   1.347   8.347
 6209WAT     H118869   6.079   1.374   8.443
 6209WAT     H218870   6.094   1.424   8.288
 6210WAT      O18871   7.363   5.538   6.714
 6210WAT     H118872   7.420   5.612   6.678
 6210WAT     H218873   7.399   5.450   6.684
 6211WAT      O18874   1.282   3.240   7.420
 6211WAT     H118875   1.264   3.155   7.371
 6211WAT     H218876   1.218   3.248   7.497
 6212WAT      O18877   1.571   3.323   0.299
 6212WAT     H118878   1.550   3.250   0.364
 6212WAT     H218879   1.593   3.407   0.348
 6213WAT      O18880   5.868   6.084   6.128
 6213WAT     H118881   5.903   6.109   6.219
 6213WAT     H218882   5.879   5.986   6.114
 6214WAT      O18883   1.615   3.407   2.999
 6214WAT     H118884   1.694   3.439   2.945
 6214WAT     H218885   1.564   3.485   3.032
 6215WAT      O18886   3.164   2.844   1.436
 6215WAT     H118887   3.145   2.940   1.416
 6215WAT     H218888   3.254   2.836   1.479
 6216WAT      O18889   6.489   2.081   0.461
 6216WAT     H118890   6.547   2.035   0.394
 6216WAT     H218891   6.404   2.029   0.473
 6217WAT      O18892   4.113   2.005   5.347
 6217WAT     H118893   4.098   2.103   5.351
 6217WAT     H218894   4.036   1.957   5.389
 6218WAT      O18895   6.751   8.953   4.845
 6218WAT     H118896   6.664   8.975   4.801
 6218WAT     H218897   6.765   9.014   4.924
 6219WAT      O18898   8.007   1.900   2.557
 6219WAT     H118899   8.027   1.895   2.459
 6219WAT     H218900   8.041   1.817   2.602
 6220WAT      O18901   4.006   8.463   6.406
 6220WAT     H118902   4.062   8.534   6.449
 6220WAT     H218903   3.909   8.481   6.424
 6221WAT      O18904   1.285   2.717   2.057
 6221WAT     H118905   1.244   2.691   1.970
 6221WAT     H218906   1.229   2.683   2.132
 6222WAT      O18907   9.265   9.203   8.395
 6222WAT     H118908   9.296   9.173   8.485
 6222WAT     H218909   9.267   9.303   8.392
 6223WAT      O18910   7.571   9.270   7.153
 6223WAT     H118911   7.651   9.277   7.212
 6223WAT     H218912   7.488   9.274   7.208
 6224WAT      O18913   9.759   5.892   8.613
 6224WAT     H118914   9.758   5.966   8.546
 6224WAT     H218915   9.670   5.847   8.613
 6225WAT      O18916   0.801   7.082   4.451
 6225WAT     H118917   0.871   7.079   4.523
 6225WAT     H218918   0.844   7.104   4.364
 6226WAT      O18919   8.366   4.055   8.375
 6226WAT     H118920   8.398   3.967   8.409
 6226WAT     H218921   8.281   4.041   8.324
 6227WAT      O18922   6.094   0.055   4.978
 6227WAT     H118923   6.037   0.136   4.990
 6227WAT     H218924   6.190   0.081   4.985
 6228WAT      O18925   8.383   4.770   6.360
 6228WAT     H118926   8.376   4.738   6.455
 6228WAT     H218927   8.421   4.697   6.303
 6229WAT      O18928   4.362   3.213   3.727
 6229WAT     H118929   4.303   3.258   3.661
 6229WAT     H218930   4.307   3.180   3.804
 6230WAT      O18931   3.619   0.828   1.858
 6230WAT     H118932   3.588   0.745   1.811
 6230WAT     H218933   3.688   0.804   1.926
 6231WAT      O18934   6.438   6.558   9.381
 6231WAT     H118935   6.516   6.500   9.356
 6231WAT     H218936   6.455   6.598   9.471
 6232WAT      O18937   8.076   5.875   6.160
 6232WAT     H118938   8.100   5.859   6.064
 6232WAT     H218939   8.155   5.851   6.218
 6233WAT      O18940   8.374   7.269   6.802
 6233WAT     H118941   8.388   7.171   6.814
 6233WAT     H218942   8.391   7.294   6.707
 6234WAT      O18943   6.387   2.653   3.695
 6234WAT     H118944   6.319   2.677   3.625
 6234WAT     H218945   6.441   2.575   3.663
 6235WAT      O18946   7.895   6.780   3.164
 6235WAT     H118947   7.910   6.878   3.173
 6235WAT     H218948   7.797   6.761   3.173
 6236WAT      O18949   2.683   1.541   6.167
 6236WAT     H118950   2.611   1.547   6.098
 6236WAT     H218951   2.693   1.446   6.198
 6237WAT      O18952   6.843   1.780   2.149
 6237WAT     H118953   6.809   1.849   2.213
 6237WAT     H218954   6.805   1.798   2.058
 6238WAT      O18955   7.265   8.884   5.452
 6238WAT     H118956   7.267   8.784   5.441
 6238WAT     H218957   7.228   8.907   5.542
 6239WAT      O18958   0.024   9.064   4.464
 6239WAT     H118959   0.002   9.132   4.534
 6239WAT     H218960   0.117   9.079   4.431
 6240WAT      O18961   9.346   0.032   2.871
 6240WAT     H118962   9.372   0.120   2.830
 6240WAT     H218963   9.419   0.002   2.933
 6241WAT      O18964   9.074   5.290   7.999
 6241WAT     H118965   9.059   5.285   8.098
 6241WAT     H218966   9.054   5.200   7.958
 6242WAT      O18967   0.269   0.203   9.494
 6242WAT     H118968   0.329   0.139   9.444
 6242WAT     H218969   0.280   0.189   9.592
 6243WAT      O18970   0.924   5.991   2.510
 6243WAT     H118971   0.846   6.012   2.450
 6243WAT     H218972   1.009   6.017   2.464
 6244WAT      O18973   3.165   6.590   3.359
 6244WAT     H118974   3.086   6.630   3.405
 6244WAT     H218975   3.133   6.528   3.286
 6245WAT      O18976   5.277   5.218   7.682
 6245WAT     H118977   5.246   5.205   7.588
 6245WAT     H218978   5.274   5.131   7.731
 6246WAT      O18979   4.522   6.615   4.536
 6246WAT     H118980   4.594   6.676   4.571
 6246WAT     H218981   4.434   6.641   4.576
 6247WAT      O18982   6.950   3.086   7.782
 6247WAT     H118983   6.865   3.127   7.750
 6247WAT     H218984   6.968   3.002   7.731
 6248WAT      O18985   1.549   5.079   3.751
 6248WAT     H118986   1.645   5.085   3.727
 6248WAT     H218987   1.511   5.171   3.763
 6249WAT      O18988   9.681   7.831   6.038
 6249WAT     H118989   9.643   7.827   6.130
 6249WAT     H218990   9.642   7.909   5.989
 6250WAT      O18991   6.120   5.972   1.934
 6250WAT     H118992   6.198   5.913   1.958
 6250WAT     H218993   6.036   5.918   1.940
 6251WAT      O18994   4.662   6.971   2.787
 6251WAT     H118995   4.687   7.043   2.852
 6251WAT     H218996   4.569   6.939   2.807
 6252WAT      O18997   2.290   1.494   6.829
 6252WAT     H118998   2.322   1.498   6.923
 6252WAT     H218999   2.325   1.573   6.778
 6253WAT      O19000   7.468   5.828   1.477
 6253WAT     H119001   7.536   5.859   1.543
 6253WAT     H219002   7.397   5.897   1.466
 6254WAT      O19003   8.793   4.595   9.591
 6254WAT     H119004   8.794   4.496   9.598
 6254WAT     H219005   8.768   4.622   9.498
 6255WAT      O19006   3.348   1.484   9.776
 6255WAT     H119007   3.441   1.518   9.785
 6255WAT     H219008   3.336   1.404   9.835
 6256WAT      O19009   0.939   0.042   2.204
 6256WAT     H119010   0.854   0.014   2.249
 6256WAT     H219011   0.997  -0.039   2.191
 6257WAT      O19012   1.315   2.905   6.414
 6257WAT     H119013   1.394   2.903   6.352
 6257WAT     H219014   1.327   2.979   6.480
 6258WAT      O19015   3.174   4.957   9.466
 6258WAT     H119016   3.102   4.944   9.399
 6258WAT     H219017   3.207   4.868   9.498
 6259WAT      O19018   1.683   6.038   1.339
 6259WAT     H119019   1.628   6.112   1.300
 6259WAT     H219020   1.630   5.991   1.409
 6260WAT      O19021   7.261   2.379   8.436
 6260WAT     H119022   7.162   2.375   8.450
 6260WAT     H219023   7.306   2.395   8.524
 6261WAT      O19024   1.042   9.845   7.923
 6261WAT     H119025   0.952   9.888   7.919
 6261WAT     H219026   1.047   9.771   7.856
 6262WAT      O19027   5.428   9.031   4.224
 6262WAT     H119028   5.441   8.946   4.275
 6262WAT     H219029   5.342   9.074   4.251
 6263WAT      O19030   4.284   9.737   7.312
 6263WAT     H119031   4.357   9.699   7.256
 6263WAT     H219032   4.314   9.743   7.407
 6264WAT      O19033   8.840   1.749   4.795
 6264WAT     H119034   8.800   1.678   4.853
 6264WAT     H219035   8.935   1.727   4.777
 6265WAT      O19036   8.928   8.417   1.344
 6265WAT     H119037   8.933   8.470   1.428
 6265WAT     H219038   8.862   8.343   1.355
 6266WAT      O19039   1.311   6.037   4.803
 6266WAT     H119040   1.353   6.083   4.724
 6266WAT     H219041   1.372   5.966   4.837
 6267WAT      O19042   3.164   1.817   0.162
 6267WAT     H119043   3.136   1.725   0.189
 6267WAT     H219044   3.094   1.857   0.103
 6268WAT      O19045   1.996   6.849   9.074
 6268WAT     H119046   2.072   6.804   9.027
 6268WAT     H219047   1.952   6.783   9.136
 6269WAT      O19048   0.504   3.952   7.263
 6269WAT     H119049   0.465   3.992   7.345
 6269WAT     H219050   0.500   3.852   7.270
 6270WAT      O19051   5.035   9.008   7.360
 6270WAT     H119052   5.063   9.078   7.295
 6270WAT     H219053   5.024   8.921   7.312
 6271WAT      O19054   4.895   2.671   9.494
 6271WAT     H119055   4.901   2.769   9.475
 6271WAT     H219056   4.914   2.654   9.590
 6272WAT      O19057   6.606   1.478   2.106
 6272WAT     H119058   6.593   1.523   2.018
 6272WAT     H219059   6.704   1.461   2.121
 6273WAT      O19060   6.601   7.504   7.224
 6273WAT     H119061   6.641   7.596   7.223
 6273WAT     H219062   6.513   7.507   7.176
 6274WAT      O19063   7.402   6.916   6.866
 6274WAT     H119064   7.472   6.846   6.852
 6274WAT     H219065   7.362   6.941   6.778
 6275WAT      O19066   0.830   9.247   1.057
 6275WAT     H119067   0.902   9.317   1.051
 6275WAT     H219068   0.871   9.157   1.041
 6276WAT      O19069   2.279   4.650   2.555
 6276WAT     H119070   2.269   4.550   2.550
 6276WAT     H219071   2.349   4.673   2.623
 6277WAT      O19072   8.529   0.949   4.977
 6277WAT     H119073   8.584   1.022   4.936
 6277WAT     H219074   8.581   0.907   5.052
 6278WAT      O19075   6.571   2.101   2.273
 6278WAT     H119076   6.543   2.189   2.312
 6278WAT     H219077   6.660   2.074   2.309
 6279WAT      O19078   7.157   0.008   4.888
 6279WAT     H119079   7.143  -0.017   4.792
 6279WAT     H219080   7.075   0.053   4.923
 6280WAT      O19081   4.805   6.150   0.130
 6280WAT     H119082   4.859   6.228   0.164
 6280WAT     H219083   4.845   6.065   0.164
 6281WAT      O19084   5.242   7.679   0.982
 6281WAT     H119085   5.184   7.603   1.011
 6281WAT     H219086   5.228   7.757   1.043
 6282WAT      O19087   2.401   7.051   8.451
 6282WAT     H119088   2.424   7.131   8.506
 6282WAT     H219089   2.479   7.026   8.394
 6283WAT      O19090   3.714   6.128   1.125
 6283WAT     H119091   3.796   6.165   1.168
 6283WAT     H219092   3.668   6.200   1.073
 6284WAT      O19093   0.150   2.384   3.099
 6284WAT     H119094   0.215   2.427   3.037
 6284WAT     H219095   0.196   2.313   3.152
 6285WAT      O19096   2.225   5.674   9.779
 6285WAT     H119097   2.221   5.584   9.821
 6285WAT     H219098   2.240   5.743   9.849
 6286WAT      O19099   1.392   9.235   5.094
 6286WAT     H119100   1.391   9.328   5.059
 6286WAT     H219101   1.348   9.233   5.184
 6287WAT      O19102   7.368   4.904   1.657
 6287WAT     H119103   7.328   4.876   1.744
 6287WAT     H219104   7.301   4.895   1.583
 6288WAT      O19105   1.503   3.601   1.436
 6288WAT     H119106   1.542   3.529   1.493
 6288WAT     H219107   1.523   3.582   1.340
 6289WAT      O19108   7.110   1.471   7.806
 6289WAT     H119109   7.040   1.455   7.875
 6289WAT     H219110   7.170   1.545   7.836
 6290WAT      O19111   2.136   2.108   3.544
 6290WAT     H119112   2.102   2.089   3.636
 6290WAT     H219113   2.089   2.188   3.507
 6291WAT      O19114   8.559   6.026   3.296
 6291WAT     H119115   8.532   5.968   3.219
 6291WAT     H219116   8.623   5.976   3.354
 6292WAT      O19117   6.074   2.906   7.947
 6292WAT     H119118   6.062   2.825   7.889
 6292WAT     H219119   6.026   2.893   8.034
 6293WAT      O19120   8.637   5.190   5.945
 6293WAT     H119121   8.559   5.216   6.002
 6293WAT     H219122   8.614   5.107   5.894
 6294WAT      O19123   5.874   8.734   5.593
 6294WAT     H119124   5.866   8.714   5.496
 6294WAT     H219125   5.804   8.684   5.644
 6295WAT      O19126   2.116   6.563   1.403
 6295WAT     H119127   2.039   6.622   1.428
 6295WAT     H219128   2.087   6.500   1.331
 6296WAT      O19129   9.825   7.886   9.443
 6296WAT     H119130   9.878   7.839   9.514
 6296WAT     H219131   9.793   7.820   9.376
 6297WAT      O19132   6.686   0.264   5.702
 6297WAT     H119133   6.637   0.205   5.637
 6297WAT     H219134   6.765   0.214   5.739
 6298WAT      O19135   3.720   6.785   2.234
 6298WAT     H119136   3.622   6.787   2.212
 6298WAT     H219137   3.733   6.743   2.324
 6299WAT      O19138   7.595   6.580   2.250
 6299WAT     H119139   7.664   6.551   2.184
 6299WAT     H219140   7.528   6.507   2.263
 6300WAT      O19141   3.623   9.373   7.357
 6300WAT     H119142   3.672   9.437   7.297
 6300WAT     H219143   3.554   9.423   7.410
 6301WAT      O19144   1.019   2.084   0.282
 6301WAT     H119145   1.098   2.122   0.331
 6301WAT     H219146   0.950   2.155   0.271
 6302WAT      O19147   2.551   9.619   3.304
 6302WAT     H119148   2.603   9.541   3.270
 6302WAT     H219149   2.531   9.606   3.401
 6303WAT      O19150   9.286   3.158   0.218
 6303WAT     H119151   9.373   3.172   0.171
 6303WAT     H219152   9.302   3.148   0.317
 6304WAT      O19153   2.926   2.239   5.803
 6304WAT     H119154   2.833   2.244   5.839
 6304WAT     H219155   2.955   2.330   5.773
 6305WAT      O19156   6.024   5.081   6.695
 6305WAT     H119157   5.990   5.015   6.628
 6305WAT     H219158   6.023   5.040   6.786
 6306WAT      O19159   8.751   2.290   7.206
 6306WAT     H119160   8.668   2.235   7.196
 6306WAT     H219161   8.779   2.326   7.117
 6307WAT      O19162   9.836   0.668   6.003
 6307WAT     H119163   9.799   0.749   6.049
 6307WAT     H219164   9.815   0.673   5.905
 6308WAT      O19165   7.854   6.354   1.092
 6308WAT     H119166   7.761   6.328   1.120
 6308WAT     H219167   7.899   6.275   1.050
 6309WAT      O19168   7.455   4.461   4.114
 6309WAT     H119169   7.373   4.407   4.095
 6309WAT     H219170   7.481   4.449   4.210
 6310WAT      O19171   9.401   7.676   5.703
 6310WAT     H119172   9.321   7.658   5.760
 6310WAT     H219173   9.484   7.670   5.759
 6311WAT      O19174   1.686   3.668   7.188
 6311WAT     H119175   1.748   3.592   7.208
 6311WAT     H219176   1.728   3.754   7.218
 6312WAT      O19177   6.118   2.170   8.477
 6312WAT     H119178   6.095   2.263   8.505
 6312WAT     H219179   6.158   2.171   8.386
 6313WAT      O19180   6.287   1.463   2.635
 6313WAT     H119181   6.213   1.457   2.568
 6313WAT     H219182   6.268   1.403   2.712
 6314WAT      O19183   5.160   6.848   5.733
 6314WAT     H119184   5.224   6.809   5.800
 6314WAT     H219185   5.183   6.813   5.642
 6315WAT      O19186   4.793   2.761   1.154
 6315WAT     H119187   4.881   2.782   1.112
 6315WAT     H219188   4.784   2.812   1.240
 6316WAT      O19189   0.381   8.152   8.457
 6316WAT     H119190   0.411   8.138   8.552
 6316WAT     H219191   0.415   8.077   8.400
 6317WAT      O19192   5.799   5.357   7.529
 6317WAT     H119193   5.850   5.348   7.444
 6317WAT     H219194   5.835   5.433   7.582
 6318WAT      O19195   7.580   2.629   8.510
 6318WAT     H119196   7.492   2.595   8.545
 6318WAT     H219197   7.633   2.668   8.585
 6319WAT      O19198   9.606   8.624   5.037
 6319WAT     H119199   9.667   8.549   5.009
 6319WAT     H219200   9.597   8.622   5.137
 6320WAT      O19201   1.907   6.712   3.143
 6320WAT     H119202   1.880   6.683   3.235
 6320WAT     H219203   1.830   6.762   3.101
 6321WAT      O19204   8.132   2.434   1.334
 6321WAT     H119205   8.095   2.370   1.402
 6321WAT     H219206   8.058   2.466   1.275
 6322WAT      O19207   4.770   4.758   5.933
 6322WAT     H119208   4.834   4.830   5.959
 6322WAT     H219209   4.819   4.685   5.887
 6323WAT      O19210   9.763   9.590   9.481
 6323WAT     H119211   9.671   9.584   9.518
 6323WAT     H219212   9.826   9.620   9.553
 6324WAT      O19213   4.728   8.839   2.163
 6324WAT     H119214   4.705   8.772   2.092
 6324WAT     H219215   4.710   8.931   2.128
 6325WAT      O19216   2.876   6.190   1.462
 6325WAT     H119217   2.876   6.139   1.548
 6325WAT     H219218   2.786   6.231   1.448
 6326WAT      O19219   0.008   2.433   3.901
 6326WAT     H119220  -0.026   2.341   3.883
 6326WAT     H219221  -0.048   2.500   3.852
 6327WAT      O19222   2.167   8.760   4.017
 6327WAT     H119223   2.083   8.775   4.070
 6327WAT     H219224   2.148   8.695   3.943
 6328WAT      O19225   3.546   3.361   9.420
 6328WAT     H119226   3.470   3.320   9.471
 6328WAT     H219227   3.510   3.411   9.341
 6329WAT      O19228   1.659   9.131   6.413
 6329WAT     H119229   1.596   9.054   6.405
 6329WAT     H219230   1.746   9.107   6.369
 6330WAT      O19231   0.623   8.626   8.605
 6330WAT     H119232   0.679   8.708   8.611
 6330WAT     H219233   0.633   8.573   8.689
 6331WAT      O19234   9.001   9.416   8.070
 6331WAT     H119235   8.918   9.439   8.120
 6331WAT     H219236   9.037   9.328   8.101
 6332WAT      O19237   4.689   2.360   5.062
 6332WAT     H119238   4.636   2.373   5.146
 6332WAT     H219239   4.627   2.366   4.983
 6333WAT      O19240   8.092   1.701   3.888
 6333WAT     H119241   8.168   1.637   3.896
 6333WAT     H219242   8.089   1.738   3.796
 6334WAT      O19243   9.809   6.538   5.347
 6334WAT     H119244   9.725   6.576   5.387
 6334WAT     H219245   9.853   6.608   5.291
 6335WAT      O19246   9.440   5.914   2.037
 6335WAT     H119247   9.449   5.990   1.973
 6335WAT     H219248   9.350   5.873   2.029
 6336WAT      O19249   1.719   7.558   3.000
 6336WAT     H119250   1.719   7.635   2.937
 6336WAT     H219251   1.628   7.549   3.042
 6337WAT      O19252   8.109   6.886   6.949
 6337WAT     H119253   8.038   6.817   6.962
 6337WAT     H219254   8.121   6.904   6.852
 6338WAT      O19255   2.744   1.390   9.451
 6338WAT     H119256   2.728   1.346   9.540
 6338WAT     H219257   2.840   1.419   9.447
 6339WAT      O19258   6.092   8.772   3.397
 6339WAT     H119259   6.098   8.689   3.454
 6339WAT     H219260   6.097   8.746   3.301
 6340WAT      O19261   7.326   7.631   3.879
 6340WAT     H119262   7.323   7.699   3.951
 6340WAT     H219263   7.419   7.624   3.843
 6341WAT      O19264   7.936   8.558   7.839
 6341WAT     H119265   7.840   8.536   7.820
 6341WAT     H219266   7.991   8.545   7.756
 6342WAT      O19267   4.508   8.356   1.240
 6342WAT     H119268   4.451   8.311   1.309
 6342WAT     H219269   4.459   8.435   1.203
 6343WAT      O19270   7.776   4.765   6.453
 6343WAT     H119271   7.775   4.778   6.354
 6343WAT     H219272   7.823   4.842   6.496
 6344WAT      O19273   4.458   5.979   1.117
 6344WAT     H119274   4.372   5.947   1.078
 6344WAT     H219275   4.457   6.079   1.126
 6345WAT      O19276   3.649   7.707   6.728
 6345WAT     H119277   3.611   7.629   6.778
 6345WAT     H219278   3.575   7.762   6.690
 6346WAT      O19279   4.161   5.283   3.165
 6346WAT     H119280   4.121   5.315   3.080
 6346WAT     H219281   4.221   5.354   3.202
 6347WAT      O19282   5.020   1.976   0.080
 6347WAT     H119283   5.033   1.935  -0.011
 6347WAT     H219284   5.005   2.074   0.071
 6348WAT      O19285   5.162   1.842   0.272
 6348WAT     H119286   5.093   1.896   0.222
 6348WAT     H219287   5.178   1.884   0.361
 6349WAT      O19288   5.700   9.555   6.444
 6349WAT     H119289   5.669   9.529   6.352
 6349WAT     H219290   5.632   9.527   6.511
 6350WAT      O19291   9.248   0.174   4.921
 6350WAT     H119292   9.294   0.104   4.975
 6350WAT     H219293   9.164   0.202   4.967
 6351WAT      O19294   4.960   8.278   4.871
 6351WAT     H119295   4.995   8.370   4.889
 6351WAT     H219296   4.902   8.279   4.789
 6352WAT      O19297   4.907   5.014   8.427
 6352WAT     H119298   4.828   5.060   8.468
 6352WAT     H219299   4.929   5.059   8.340
 6353WAT      O19300   8.909   7.831   3.168
 6353WAT     H119301   8.892   7.790   3.079
 6353WAT     H219302   8.825   7.831   3.222
 6354WAT      O19303   2.693   3.004   7.609
 6354WAT     H119304   2.654   3.094   7.627
 6354WAT     H219305   2.788   3.002   7.640
 6355WAT      O19306   6.304   5.735   0.218
 6355WAT     H119307   6.218   5.708   0.259
 6355WAT     H219308   6.299   5.724   0.119
 6356WAT      O19309   6.953   2.250   1.253
 6356WAT     H119310   6.912   2.220   1.339
 6356WAT     H219311   6.971   2.170   1.196
 6357WAT      O19312   4.440   8.782   4.812
 6357WAT     H119313   4.368   8.852   4.813
 6357WAT     H219314   4.528   8.824   4.791
 6358WAT      O19315   9.133   2.380   4.163
 6358WAT     H119316   9.161   2.348   4.072
 6358WAT     H219317   9.035   2.364   4.175
 6359WAT      O19318   8.252   7.405   0.440
 6359WAT     H119319   8.243   7.336   0.367
 6359WAT     H219320   8.173   7.401   0.500
 6360WAT      O19321   2.924   1.984   4.246
 6360WAT     H119322   2.938   2.074   4.289
 6360WAT     H219323   2.947   1.912   4.311
 6361WAT      O19324   8.859   3.646   0.187
 6361WAT     H119325   8.915   3.712   0.137
 6361WAT     H219326   8.811   3.587   0.123
 6362WAT      O19327   2.240   4.532   5.957
 6362WAT     H119328   2.167   4.472   5.989
 6362WAT     H219329   2.249   4.523   5.857
 6363WAT      O19330   6.444   3.235   4.634
 6363WAT     H119331   6.543   3.249   4.625
 6363WAT     H219332   6.400   3.249   4.546
 6364WAT      O19333   1.354   7.918   8.699
 6364WAT     H119334   1.271   7.863   8.703
 6364WAT     H219335   1.434   7.858   8.705
 6365WAT      O19336   3.910   6.263   8.330
 6365WAT     H119337   3.819   6.223   8.315
 6365WAT     H219338   3.951   6.222   8.411
 6366WAT      O19339   1.720   3.602   0.874
 6366WAT     H119340   1.641   3.589   0.934
 6366WAT     H219341   1.749   3.698   0.878
 6367WAT      O19342   2.680   2.931   4.231
 6367WAT     H119343   2.628   2.891   4.307
 6367WAT     H219344   2.756   2.984   4.267
 6368WAT      O19345   5.756   3.545   9.267
 6368WAT     H119346   5.844   3.573   9.305
 6368WAT     H219347   5.767   3.524   9.170
 6369WAT      O19348   0.316   7.393   4.228
 6369WAT     H119349   0.257   7.422   4.303
 6369WAT     H219350   0.262   7.344   4.160
 6370WAT      O19351   6.998   9.745   9.781
 6370WAT     H119352   7.063   9.672   9.803
 6370WAT     H219353   6.987   9.804   9.861
 6371WAT      O19354   7.174   6.170   7.399
 6371WAT     H119355   7.117   6.231   7.454
 6371WAT     H219356   7.250   6.221   7.360
 6372WAT      O19357   8.392   7.177   9.312
 6372WAT     H119358   8.416   7.204   9.219
 6372WAT     H219359   8.474   7.153   9.362
 6373WAT      O19360   3.819   4.704   2.372
 6373WAT     H119361   3.806   4.648   2.454
 6373WAT     H219362   3.747   4.774   2.369
 6374WAT      O19363   0.796   5.722   4.237
 6374WAT     H119364   0.737   5.646   4.210
 6374WAT     H219365   0.740   5.803   4.255
 6375WAT      O19366   5.741   0.717   0.785
 6375WAT     H119367   5.805   0.693   0.712
 6375WAT     H219368   5.753   0.814   0.808
 6376WAT      O19369   1.827   2.888   3.350
 6376WAT     H119370   1.794   2.821   3.283
 6376WAT     H219371   1.923   2.869   3.372
 6377WAT      O19372   4.791   1.292   2.852
 6377WAT     H119373   4.890   1.294   2.864
 6377WAT     H219374   4.769   1.248   2.765
 6378WAT      O19375   9.208   7.885   3.607
 6378WAT     H119376   9.186   7.856   3.514
 6378WAT     H219377   9.298   7.930   3.608
 6379WAT      O19378   4.241   1.676   0.667
 6379WAT     H119379   4.148   1.710   0.678
 6379WAT     H219380   4.284   1.667   0.757
 6380WAT      O19381   2.081   4.196   8.206
 6380WAT     H119382   2.143   4.244   8.267
 6380WAT     H219383   2.077   4.099   8.232
 6381WAT      O19384   6.071   7.621   8.784
 6381WAT     H119385   6.129   7.554   8.739
 6381WAT     H219386   5.983   7.579   8.807
 6382WAT      O19387   9.200   7.605   5.888
 6382WAT     H119388   9.250   7.586   5.973
 6382WAT     H219389   9.112   7.559   5.890
 6383WAT      O19390   9.055   4.882   8.117
 6383WAT     H119391   9.069   4.903   8.214
 6383WAT     H219392   8.967   4.836   8.106
 6384WAT      O19393   2.659   2.469   1.881
 6384WAT     H119394   2.576   2.465   1.825
 6384WAT     H219395   2.672   2.381   1.928
 6385WAT      O19396   2.601   0.927   8.894
 6385WAT     H119397   2.522   0.889   8.845
 6385WAT     H219398   2.590   1.026   8.902
 6386WAT      O19399   4.462   5.761   7.499
 6386WAT     H119400   4.552   5.734   7.531
 6386WAT     H219401   4.394   5.694   7.529
 6387WAT      O19402   5.226   0.174   1.022
 6387WAT     H119403   5.249   0.260   1.068
 6387WAT     H219404   5.174   0.193   0.939
 6388WAT      O19405   7.062   5.089   3.437
 6388WAT     H119406   6.982   5.044   3.396
 6388WAT     H219407   7.118   5.129   3.365
 6389WAT      O19408   1.295   8.855   9.086
 6389WAT     H119409   1.330   8.934   9.137
 6389WAT     H219410   1.220   8.884   9.028
 6390WAT      O19411   2.279   3.089   5.666
 6390WAT     H119412   2.310   3.005   5.621
 6390WAT     H219413   2.266   3.072   5.763
 6391WAT      O19414   9.130   6.271   3.606
 6391WAT     H119415   9.154   6.278   3.703
 6391WAT     H219416   9.113   6.362   3.569
 6392WAT      O19417   3.752   7.611   3.310
 6392WAT     H119418   3.774   7.561   3.227
 6392WAT     H219419   3.749   7.709   3.291
 6393WAT      O19420   0.520   7.224   9.565
 6393WAT     H119421   0.494   7.311   9.608
 6393WAT     H219422   0.438   7.167   9.555
 6394WAT      O19423   1.396   4.824   8.249
 6394WAT     H119424   1.326   4.888   8.281
 6394WAT     H219425   1.458   4.802   8.324
 6395WAT      O19426   1.949   7.744   4.412
 6395WAT     H119427   1.973   7.684   4.488
 6395WAT     H219428   2.029   7.799   4.386
 6396WAT      O19429   7.297   1.848   7.320
 6396WAT     H119430   7.265   1.905   7.244
 6396WAT     H219431   7.313   1.906   7.400
 6397WAT      O19432   2.727   3.211   4.363
 6397WAT     H119433   2.669   3.269   4.306
 6397WAT     H219434   2.808   3.262   4.392
 6398WAT      O19435   3.349   7.773   2.935
 6398WAT     H119436   3.293   7.707   2.985
 6398WAT     H219437   3.290   7.835   2.884
 6399WAT      O19438   9.727   5.471   7.213
 6399WAT     H119439   9.659   5.535   7.175
 6399WAT     H219440   9.689   5.427   7.295
 6400WAT      O19441   1.319   0.445   4.387
 6400WAT     H119442   1.378   0.365   4.378
 6400WAT     H219443   1.262   0.454   4.306
 6401WAT      O19444   6.704   7.537   1.441
 6401WAT     H119445   6.678   7.573   1.531
 6401WAT     H219446   6.804   7.538   1.433
 6402WAT      O19447   1.106   0.334   8.708
 6402WAT     H119448   1.063   0.244   8.699
 6402WAT     H219449   1.040   0.405   8.683
 6403WAT      O19450   3.785   0.568   1.896
 6403WAT     H119451   3.821   0.475   1.898
 6403WAT     H219452   3.788   0.607   1.988
 6404WAT      O19453   4.614   4.161   0.284
 6404WAT     H119454   4.605   4.067   0.253
 6404WAT     H219455   4.523   4.197   0.307
 6405WAT      O19456   9.471   7.094   9.437
 6405WAT     H119457   9.556   7.144   9.454
 6405WAT     H219458   9.415   7.145   9.373
 6406WAT      O19459   6.718   5.768   4.945
 6406WAT     H119460   6.696   5.836   5.015
 6406WAT     H219461   6.786   5.704   4.981
 6407WAT      O19462   7.764   5.175   5.852
 6407WAT     H119463   7.697   5.197   5.923
 6407WAT     H219464   7.743   5.227   5.769
 6408WAT      O19465   7.570   7.178   8.760
 6408WAT     H119466   7.616   7.211   8.677
 6408WAT     H219467   7.519   7.253   8.802
 6409WAT      O19468   9.855   9.060   8.810
 6409WAT     H119469   9.836   9.158   8.809
 6409WAT     H219470   9.825   9.021   8.896
 6410WAT      O19471   6.334   0.247   0.643
 6410WAT     H119472   6.326   0.332   0.590
 6410WAT     H219473   6.326   0.169   0.581
 6411WAT      O19474   1.775   9.761   0.764
 6411WAT     H119475   1.717   9.777   0.844
 6411WAT     H219476   1.775   9.663   0.743
 6412WAT      O19477   8.898   9.393   3.703
 6412WAT     H119478   8.810   9.347   3.690
 6412WAT     H219479   8.922   9.442   3.619
 6413WAT      O19480   7.962   7.522   6.183
 6413WAT     H119481   8.049   7.508   6.231
 6413WAT     H219482   7.907   7.589   6.233
 6414WAT      O19483   5.760   2.924   1.467
 6414WAT     H119484   5.663   2.916   1.488
 6414WAT     H219485   5.773   2.937   1.369
 6415WAT      O19486   6.114   3.603   6.122
 6415WAT     H119487   6.136   3.584   6.026
 6415WAT     H219488   6.172   3.548   6.181
 6416WAT      O19489   8.178   2.538   4.917
 6416WAT     H119490   8.239   2.565   4.843
 6416WAT     H219491   8.218   2.459   4.965
 6417WAT      O19492   5.817   5.673   7.378
 6417WAT     H119493   5.792   5.613   7.302
 6417WAT     H219494   5.734   5.714   7.416
 6418WAT      O19495   0.771   6.518   7.479
 6418WAT     H119496   0.677   6.516   7.446
 6418WAT     H219497   0.809   6.609   7.464
 6419WAT      O19498   6.195   8.838   1.940
 6419WAT     H119499   6.130   8.813   2.012
 6419WAT     H219500   6.276   8.880   1.982
 6420WAT      O19501   9.625   4.311   7.135
 6420WAT     H119502   9.569   4.372   7.079
 6420WAT     H219503   9.618   4.337   7.231
 6421WAT      O19504   3.932   5.124   4.551
 6421WAT     H119505   3.939   5.215   4.511
 6421WAT     H219506   3.842   5.085   4.529
 6422WAT      O19507   1.867   9.514   7.397
 6422WAT     H119508   1.957   9.473   7.383
 6422WAT     H219509   1.862   9.553   7.490
 6423WAT      O19510   8.051   1.737   8.953
 6423WAT     H119511   8.128   1.773   8.900
 6423WAT     H219512   7.986   1.691   8.892
 6424WAT      O19513   6.721   6.986   2.858
 6424WAT     H119514   6.810   7.030   2.847
 6424WAT     H219515   6.704   6.926   2.780
 6425WAT      O19516   7.846   4.986   5.687
 6425WAT     H119517   7.831   5.043   5.768
 6425WAT     H219518   7.923   5.021   5.635
 6426WAT      O19519   1.425   4.639   7.787
 6426WAT     H119520   1.458   4.724   7.745
 6426WAT     H219521   1.468   4.561   7.743
 6427WAT      O19522   7.041   1.362   5.164
 6427WAT     H119523   7.077   1.440   5.113
 6427WAT     H219524   7.118   1.308   5.199
 6428WAT      O19525   8.400   9.345   3.993
 6428WAT     H119526   8.424   9.317   4.086
 6428WAT     H219527   8.416   9.443   3.982
 6429WAT      O19528   5.279   0.347   2.074
 6429WAT     H119529   5.272   0.277   2.002
 6429WAT     H219530   5.234   0.313   2.157
 6430WAT      O19531   1.089   1.905   5.100
 6430WAT     H119532   1.184   1.892   5.072
 6430WAT     H219533   1.082   1.985   5.159
 6431WAT      O19534   8.397   8.134   5.481
 6431WAT     H119535   8.379   8.036   5.481
 6431WAT     H219536   8.311   8.184   5.466
 6432WAT      O19537   8.583   9.712   6.881
 6432WAT     H119538   8.625   9.631   6.923
 6432WAT     H219539   8.533   9.763   6.951
 6433WAT      O19540   3.600   2.405   1.264
 6433WAT     H119541   3.567   2.317   1.299
 6433WAT     H219542   3.649   2.453   1.336
 6434WAT      O19543   4.768   1.083   3.440
 6434WAT     H119544   4.854   1.057   3.397
 6434WAT     H219545   4.782   1.098   3.538
 6435WAT      O19546   8.265   6.549   4.174
 6435WAT     H119547   8.275   6.624   4.239
 6435WAT     H219548   8.342   6.548   4.111
 6436WAT      O19549   4.700   6.363   6.479
 6436WAT     H119550   4.757   6.294   6.523
 6436WAT     H219551   4.685   6.338   6.383
 6437WAT      O19552   7.336   4.871   2.919
 6437WAT     H119553   7.253   4.921   2.943
 6437WAT     H219554   7.384   4.919   2.845
 6438WAT      O19555   6.716   1.957   9.478
 6438WAT     H119556   6.704   2.018   9.557
 6438WAT     H219557   6.675   2.000   9.397
 6439WAT      O19558   3.445   6.629   4.778
 6439WAT     H119559   3.464   6.551   4.837
 6439WAT     H219560   3.526   6.686   4.770
 6440WAT      O19561   3.143   0.262   2.153
 6440WAT     H119562   3.132   0.190   2.084
 6440WAT     H219563   3.054   0.284   2.193
 6441WAT      O19564   5.007   1.698   4.657
 6441WAT     H119565   5.038   1.747   4.575
 6441WAT     H219566   4.918   1.735   4.686
 6442WAT      O19567   1.931   5.990   6.470
 6442WAT     H119568   1.890   5.900   6.453
 6442WAT     H219569   1.858   6.059   6.476
 6443WAT      O19570   2.429   0.397   3.939
 6443WAT     H119571   2.492   0.466   3.904
 6443WAT     H219572   2.480   0.315   3.965
 6444WAT      O19573   0.689   3.146   2.545
 6444WAT     H119574   0.767   3.095   2.579
 6444WAT     H219575   0.710   3.183   2.454
 6445WAT      O19576   9.524   9.130   5.808
 6445WAT     H119577   9.579   9.176   5.878
 6445WAT     H219578   9.525   9.032   5.824
 6446WAT      O19579   2.169   0.821   9.476
 6446WAT     H119580   2.227   0.795   9.399
 6446WAT     H219581   2.117   0.741   9.506
 6447WAT      O19582   6.774   9.343   3.525
 6447WAT     H119583   6.719   9.417   3.485
 6447WAT     H219584   6.787   9.360   3.622
 6448WAT      O19585   8.024   5.326   4.711
 6448WAT     H119586   7.984   5.258   4.773
 6448WAT     H219587   7.955   5.396   4.689
 6449WAT      O19588   1.995   0.298   7.353
 6449WAT     H119589   1.952   0.294   7.443
 6449WAT     H219590   2.092   0.318   7.363
 6450WAT      O19591   6.460   5.967   0.261
 6450WAT     H119592   6.409   6.016   0.332
 6450WAT     H219593   6.411   5.883   0.237
 6451WAT      O19594   8.527   9.769   1.820
 6451WAT     H119595   8.538   9.834   1.895
 6451WAT     H219596   8.431   9.739   1.816
 6452WAT      O19597   0.602   1.875   8.495
 6452WAT     H119598   0.636   1.930   8.419
 6452WAT     H219599   0.610   1.778   8.472
 6453WAT      O19600   9.281   5.466   8.699
 6453WAT     H119601   9.354   5.431   8.640
 6453WAT     H219602   9.277   5.412   8.783
 6454WAT      O19603   7.843   0.201   8.723
 6454WAT     H119604   7.815   0.197   8.819
 6454WAT     H219605   7.918   0.136   8.708
 6455WAT      O19606   4.526   0.643   7.771
 6455WAT     H119607   4.573   0.562   7.807
 6455WAT     H219608   4.538   0.719   7.835
 6456WAT      O19609   5.761   4.968   4.586
 6456WAT     H119610   5.786   4.907   4.661
 6456WAT     H219611   5.774   5.063   4.615
 6457WAT      O19612   3.221   0.131   8.170
 6457WAT     H119613   3.146   0.066   8.159
 6457WAT     H219614   3.305   0.082   8.191
 6458WAT      O19615   8.580   9.414   2.809
 6458WAT     H119616   8.537   9.471   2.738
 6458WAT     H219617   8.516   9.402   2.885
 6459WAT      O19618   2.336   7.545   0.560
 6459WAT     H119619   2.415   7.559   0.501
 6459WAT     H219620   2.265   7.494   0.510
 6460WAT      O19621   6.598   6.146   3.902
 6460WAT     H119622   6.601   6.062   3.957
 6460WAT     H219623   6.689   6.168   3.869
 6461WAT      O19624   1.662   5.554   9.336
 6461WAT     H119625   1.643   5.483   9.268
 6461WAT     H219626   1.615   5.638   9.311
 6462WAT      O19627   1.530   4.997   4.962
 6462WAT     H119628   1.447   4.947   4.938
 6462WAT     H219629   1.511   5.057   5.040
 6463WAT      O19630   1.669   1.335   9.457
 6463WAT     H119631   1.755   1.285   9.442
 6463WAT     H219632   1.653   1.398   9.381
 6464WAT      O19633   3.468   3.296   2.746
 6464WAT     H119634   3.443   3.312   2.651
 6464WAT     H219635   3.401   3.235   2.788
 6465WAT      O19636   2.467   4.388   2.267
 6465WAT     H119637   2.539   4.429   2.212
 6465WAT     H219638   2.489   4.291   2.283
 6466WAT      O19639   4.570   1.629   2.867
 6466WAT     H119640   4.567   1.551   2.805
 6466WAT     H219641   4.505   1.615   2.942
 6467WAT      O19642   6.489   2.303   5.347
 6467WAT     H119643   6.396   2.278   5.376
 6467WAT     H219644   6.520   2.382   5.400
 6468WAT      O19645   9.154   4.026   1.015
 6468WAT     H119646   9.180   4.071   0.930
 6468WAT     H219647   9.223   3.959   1.040
 6469WAT      O19648   6.397   2.844   2.185
 6469WAT     H119649   6.311   2.839   2.134
 6469WAT     H219650   6.413   2.939   2.214
 6470WAT      O19651   1.644   6.987   4.735
 6470WAT     H119652   1.625   7.067   4.679
 6470WAT     H219653   1.663   6.909   4.676
 6471WAT      O19654   5.132   6.420   3.704
 6471WAT     H119655   5.117   6.460   3.794
 6471WAT     H219656   5.192   6.340   3.713
 6472WAT      O19657   0.189   4.452   6.790
 6472WAT     H119658   0.223   4.455   6.884
 6472WAT     H219659   0.136   4.368   6.777
 6473WAT      O19660   1.519   6.810   6.801
 6473WAT     H119661   1.498   6.770   6.890
 6473WAT     H219662   1.547   6.737   6.738
 6474WAT      O19663   3.376   7.058   0.603
 6474WAT     H119664   3.410   7.137   0.553
 6474WAT     H219665   3.436   7.041   0.682
 6475WAT      O19666   6.082   4.145   3.790
 6475WAT     H119667   6.110   4.094   3.871
 6475WAT     H219668   6.162   4.169   3.736
 6476WAT      O19669   8.681   1.864   4.551
 6476WAT     H119670   8.734   1.941   4.516
 6476WAT     H219671   8.741   1.800   4.598
 6477WAT      O19672   2.689   1.565   9.835
 6477WAT     H119673   2.620   1.493   9.835
 6477WAT     H219674   2.774   1.529   9.797
 6478WAT      O19675   6.268   3.460   6.292
 6478WAT     H119676   6.213   3.490   6.370
 6478WAT     H219677   6.359   3.435   6.324
 6479WAT      O19678   4.088   9.334   4.524
 6479WAT     H119679   4.174   9.374   4.491
 6479WAT     H219680   4.029   9.407   4.558
 6480WAT      O19681   1.625   4.795   2.737
 6480WAT     H119682   1.626   4.817   2.834
 6480WAT     H219683   1.660   4.873   2.685
 6481WAT      O19684   2.754   1.666   8.918
 6481WAT     H119685   2.686   1.734   8.942
 6481WAT     H219686   2.846   1.704   8.929
 6482WAT      O19687   7.323   2.824   5.078
 6482WAT     H119688   7.358   2.772   5.001
 6482WAT     H219689   7.338   2.922   5.062
 6483WAT      O19690   8.296   6.438   5.746
 6483WAT     H119691   8.368   6.405   5.807
 6483WAT     H219692   8.295   6.383   5.662
 6484WAT      O19693   2.951   3.282   7.877
 6484WAT     H119694   2.929   3.243   7.966
 6484WAT     H219695   2.975   3.209   7.813
 6485WAT      O19696   7.286   5.760   9.632
 6485WAT     H119697   7.305   5.670   9.594
 6485WAT     H219698   7.357   5.824   9.603
 6486WAT      O19699   0.811   6.612   2.193
 6486WAT     H119700   0.881   6.607   2.264
 6486WAT     H219701   0.818   6.699   2.145
 6487WAT      O19702   8.478   2.030   7.904
 6487WAT     H119703   8.379   2.032   7.920
 6487WAT     H219704   8.516   1.946   7.942
 6488WAT      O19705   9.517   8.008   6.892
 6488WAT     H119706   9.533   8.003   6.990
 6488WAT     H219707   9.427   8.049   6.875
 6489WAT      O19708   3.259   9.055   4.911
 6489WAT     H119709   3.216   8.990   4.973
 6489WAT     H219710   3.263   9.145   4.955
 6490WAT      O19711   8.936   1.068   6.845
 6490WAT     H119712   8.988   1.050   6.761
 6490WAT     H219713   8.923   1.166   6.855
 6491WAT      O19714   7.790   0.075   7.696
 6491WAT     H119715   7.818   0.098   7.603
 6491WAT     H219716   7.713   0.011   7.693
 6492WAT      O19717   0.415   2.486   5.943
 6492WAT     H119718   0.354   2.471   5.866
 6492WAT     H219719   0.508   2.459   5.918
 6493WAT      O19720   6.208   0.167   2.872
 6493WAT     H119721   6.181   0.170   2.968
 6493WAT     H219722   6.157   0.096   2.825
 6494WAT      O19723   4.747   0.138   8.669
 6494WAT     H119724   4.790   0.130   8.758
 6494WAT     H219725   4.731   0.234   8.648
 6495WAT      O19726   4.451   8.952   7.794
 6495WAT     H119727   4.515   9.018   7.833
 6495WAT     H219728   4.358   8.986   7.802
 6496WAT      O19729   4.008   7.529   5.061
 6496WAT     H119730   3.946   7.463   5.019
 6496WAT     H219731   3.956   7.599   5.108
 6497WAT      O19732   4.990   3.640   9.301
 6497WAT     H119733   4.953   3.719   9.251
 6497WAT     H219734   4.915   3.576   9.319
 6498WAT      O19735   6.409   3.617   2.773
 6498WAT     H119736   6.450   3.637   2.862
 6498WAT     H219737   6.481   3.593   2.707
 6499WAT      O19738   8.566   9.706   9.295
 6499WAT     H119739   8.656   9.702   9.250
 6499WAT     H219740   8.578   9.737   9.389
 6500WAT      O19741   9.035   4.973   7.357
 6500WAT     H119742   8.976   5.045   7.393
 6500WAT     H219743   9.115   4.962   7.416
 6501WAT      O19744   0.365   9.811   4.297
 6501WAT     H119745   0.404   9.720   4.314
 6501WAT     H219746   0.273   9.815   4.335
 6502WAT      O19747   7.763   0.340   7.254
 6502WAT     H119748   7.672   0.344   7.294
 6502WAT     H219749   7.756   0.326   7.155
 6503WAT      O19750   9.756   0.721   7.569
 6503WAT     H119751   9.766   0.632   7.614
 6503WAT     H219752   9.668   0.761   7.593
 6504WAT      O19753   0.276   6.602   5.666
 6504WAT     H119754   0.188   6.557   5.678
 6504WAT     H219755   0.345   6.556   5.722
 6505WAT      O19756   8.605   6.580   6.088
 6505WAT     H119757   8.652   6.493   6.104
 6505WAT     H219758   8.506   6.566   6.092
 6506WAT      O19759   4.639   9.248   1.524
 6506WAT     H119760   4.738   9.232   1.530
 6506WAT     H219761   4.602   9.204   1.442
 6507WAT      O19762   1.139   2.225   2.999
 6507WAT     H119763   1.093   2.218   2.911
 6507WAT     H219764   1.143   2.135   3.042
 6508WAT      O19765   7.900   9.199   1.540
 6508WAT     H119766   7.889   9.281   1.597
 6508WAT     H219767   7.832   9.200   1.466
 6509WAT      O19768   2.175   4.906   9.860
 6509WAT     H119769   2.203   4.980   9.799
 6509WAT     H219770   2.152   4.943   9.950
 6510WAT      O19771   9.314   3.730   1.787
 6510WAT     H119772   9.240   3.767   1.731
 6510WAT     H219773   9.402   3.749   1.742
 6511WAT      O19774   7.782   5.925   3.933
 6511WAT     H119775   7.851   5.987   3.897
 6511WAT     H219776   7.753   5.956   4.024
 6512WAT      O19777   9.020   9.536   6.750
 6512WAT     H119778   8.921   9.527   6.738
 6512WAT     H219779   9.039   9.588   6.833
 6513WAT      O19780   7.876   4.532   9.284
 6513WAT     H119781   7.808   4.504   9.353
 6513WAT     H219782   7.912   4.622   9.306
 6514WAT      O19783   2.455   6.488   0.827
 6514WAT     H119784   2.388   6.460   0.759
 6514WAT     H219785   2.544   6.498   0.784
 6515WAT      O19786   7.707   9.482   4.769
 6515WAT     H119787   7.782   9.430   4.809
 6515WAT     H219788   7.743   9.552   4.708
 6516WAT      O19789   2.247   8.345   2.256
 6516WAT     H119790   2.320   8.356   2.325
 6516WAT     H219791   2.247   8.251   2.222
 6517WAT      O19792   3.890   8.817   3.800
 6517WAT     H119793   3.877   8.794   3.896
 6517WAT     H219794   3.905   8.734   3.747
 6518WAT      O19795   0.559   9.208   8.266
 6518WAT     H119796   0.594   9.248   8.182
 6518WAT     H219797   0.460   9.221   8.270
 6519WAT      O19798   1.022   9.693   9.723
 6519WAT     H119799   1.103   9.719   9.670
 6519WAT     H219800   0.981   9.774   9.764
 6520WAT      O19801   9.612   8.666   7.848
 6520WAT     H119802   9.663   8.705   7.771
 6520WAT     H219803   9.677   8.633   7.917
 6521WAT      O19804   8.603   2.375   8.339
 6521WAT     H119805   8.660   2.435   8.283
 6521WAT     H219806   8.662   2.319   8.397
 6522WAT      O19807   6.225   4.624   5.760
 6522WAT     H119808   6.231   4.724   5.768
 6522WAT     H219809   6.150   4.591   5.818
 6523WAT      O19810   8.304   5.622   7.321
 6523WAT     H119811   8.397   5.658   7.317
 6523WAT     H219812   8.260   5.633   7.232
 6524WAT      O19813   6.328   6.222   6.480
 6524WAT     H119814   6.369   6.313   6.484
 6524WAT     H219815   6.399   6.155   6.458
 6525WAT      O19816   9.235   4.717   8.808
 6525WAT     H119817   9.326   4.721   8.848
 6525WAT     H219818   9.168   4.756   8.871
 6526WAT      O19819   4.685   4.483   7.739
 6526WAT     H119820   4.679   4.576   7.774
 6526WAT     H219821   4.743   4.428   7.799
 6527WAT      O19822   8.962   5.245   0.912
 6527WAT     H119823   9.038   5.200   0.864
 6527WAT     H219824   8.876   5.219   0.869
 6528WAT      O19825   7.727   3.462   3.909
 6528WAT     H119826   7.774   3.495   3.828
 6528WAT     H219827   7.648   3.407   3.881
 6529WAT      O19828   0.112   9.785   2.846
 6529WAT     H119829   0.074   9.871   2.878
 6529WAT     H219830   0.041   9.715   2.844
 6530WAT      O19831   1.203   0.035   5.869
 6530WAT     H119832   1.116   0.074   5.900
 6530WAT     H219833   1.195   0.009   5.772
 6531WAT      O19834   4.822   8.720   0.821
 6531WAT     H119835   4.866   8.808   0.803
 6531WAT     H219836   4.830   8.662   0.740
 6532WAT      O19837   5.074   5.938   1.759
 6532WAT     H119838   5.086   5.980   1.849
 6532WAT     H219839   5.112   5.999   1.689
 6533WAT      O19840   9.502   7.750   6.568
 6533WAT     H119841   9.551   7.743   6.481
 6533WAT     H219842   9.519   7.840   6.609
 6534WAT      O19843   0.101   4.848   5.566
 6534WAT     H119844   0.154   4.882   5.488
 6534WAT     H219845   0.159   4.788   5.621
 6535WAT      O19846   9.301   9.085   4.939
 6535WAT     H119847   9.234   9.099   4.866
 6535WAT     H219848   9.268   9.015   5.001
 6536WAT      O19849   4.530   2.383   8.653
 6536WAT     H119850   4.553   2.324   8.730
 6536WAT     H219851   4.445   2.432   8.672
 6537WAT      O19852   5.559   3.972   9.782
 6537WAT     H119853   5.545   4.001   9.687
 6537WAT     H219854   5.645   3.921   9.789
 6538WAT      O19855   1.311   6.097   1.092
 6538WAT     H119856   1.211   6.095   1.092
 6538WAT     H219857   1.345   6.034   1.022
 6539WAT      O19858   8.580   8.823   8.191
 6539WAT     H119859   8.586   8.825   8.092
 6539WAT     H219860   8.500   8.875   8.221
 6540WAT      O19861   6.204   7.487   8.466
 6540WAT     H119862   6.269   7.452   8.399
 6540WAT     H219863   6.191   7.585   8.451
 6541WAT      O19864   3.162   3.259   8.609
 6541WAT     H119865   3.259   3.236   8.615
 6541WAT     H219866   3.151   3.359   8.607
 6542WAT      O19867   7.641   7.097   5.500
 6542WAT     H119868   7.640   7.046   5.414
 6542WAT     H219869   7.735   7.107   5.532
 6543WAT      O19870   3.630   4.891   8.899
 6543WAT     H119871   3.561   4.836   8.946
 6543WAT     H219872   3.692   4.931   8.967
 6544WAT      O19873   5.240   7.419   5.082
 6544WAT     H119874   5.315   7.405   5.017
 6544WAT     H219875   5.203   7.331   5.111
 6545WAT      O19876   0.094   9.805   9.354
 6545WAT     H119877   0.184   9.765   9.373
 6545WAT     H219878   0.087   9.826   9.256
 6546WAT      O19879   7.857   6.271   8.697
 6546WAT     H119880   7.784   6.333   8.669
 6546WAT     H219881   7.905   6.309   8.776
 6547WAT      O19882   6.426   8.595   9.493
 6547WAT     H119883   6.348   8.561   9.441
 6547WAT     H219884   6.439   8.538   9.575
 6548WAT      O19885   6.702   2.881   0.154
 6548WAT     H119886   6.710   2.838   0.244
 6548WAT     H219887   6.613   2.926   0.146
 6549WAT      O19888   6.876   8.960   0.328
 6549WAT     H119889   6.975   8.942   0.328
 6549WAT     H219890   6.828   8.880   0.363
 6550WAT      O19891   7.982   5.718   4.356
 6550WAT     H119892   7.978   5.818   4.359
 6550WAT     H219893   8.076   5.688   4.371
 6551WAT      O19894   6.411   3.953   4.457
 6551WAT     H119895   6.400   3.914   4.365
 6551WAT     H219896   6.355   3.901   4.522
 6552WAT      O19897   1.096   5.290   9.240
 6552WAT     H119898   1.145   5.258   9.159
 6552WAT     H219899   0.999   5.302   9.217
 6553WAT      O19900   6.241   5.230   4.694
 6553WAT     H119901   6.187   5.312   4.679
 6553WAT     H219902   6.314   5.226   4.626
 6554WAT      O19903   1.700   4.467   3.344
 6554WAT     H119904   1.690   4.547   3.284
 6554WAT     H219905   1.789   4.471   3.389
 6555WAT      O19906   3.445   8.046   1.352
 6555WAT     H119907   3.483   8.082   1.437
 6555WAT     H219908   3.515   7.995   1.302
 6556WAT      O19909   7.014   9.439   7.782
 6556WAT     H119910   7.052   9.433   7.690
 6556WAT     H219911   7.082   9.478   7.844
 6557WAT      O19912   1.552   7.400   0.775
 6557WAT     H119913   1.483   7.472   0.762
 6557WAT     H219914   1.573   7.391   0.872
 6558WAT      O19915   0.820   1.909   2.882
 6558WAT     H119916   0.743   1.850   2.857
 6558WAT     H219917   0.838   1.901   2.981
 6559WAT      O19918   3.379   0.949   4.692
 6559WAT     H119919   3.324   0.866   4.701
 6559WAT     H219920   3.476   0.926   4.701
 6560WAT      O19921   8.209   8.962   1.618
 6560WAT     H119922   8.172   9.011   1.539
 6560WAT     H219923   8.269   8.888   1.587
 6561WAT      O19924   3.452   9.822   8.222
 6561WAT     H119925   3.500   9.851   8.305
 6561WAT     H219926   3.491   9.870   8.143
 6562WAT      O19927   2.819   5.544   9.471
 6562WAT     H119928   2.749   5.602   9.511
 6562WAT     H219929   2.829   5.566   9.374
 6563WAT      O19930   7.579   2.241   6.121
 6563WAT     H119931   7.583   2.177   6.197
 6563WAT     H219932   7.650   2.220   6.055
 6564WAT      O19933   2.883   1.928   7.525
 6564WAT     H119934   2.825   1.873   7.585
 6564WAT     H219935   2.830   1.955   7.444
 6565WAT      O19936   7.930   8.024   9.844
 6565WAT     H119937   7.940   8.114   9.887
 6565WAT     H219938   7.861   8.029   9.772
 6566WAT      O19939   3.519   9.135   9.817
 6566WAT     H119940   3.527   9.135   9.917
 6566WAT     H219941   3.577   9.064   9.779
 6567WAT      O19942   1.462   2.459   0.411
 6567WAT     H119943   1.474   2.388   0.481
 6567WAT     H219944   1.394   2.427   0.345
 6568WAT      O19945   6.903   1.323   8.578
 6568WAT     H119946   6.906   1.261   8.657
 6568WAT     H219947   6.982   1.307   8.520
 6569WAT      O19948   6.729   5.069   9.180
 6569WAT     H119949   6.716   5.168   9.186
 6569WAT     H219950   6.742   5.032   9.272
 6570WAT      O19951   3.630   8.754   6.747
 6570WAT     H119952   3.530   8.758   6.756
 6570WAT     H219953   3.666   8.846   6.737
 6571WAT      O19954   5.392   8.308   5.648
 6571WAT     H119955   5.358   8.355   5.729
 6571WAT     H219956   5.317   8.288   5.586
 6572WAT      O19957   6.741   4.256   1.839
 6572WAT     H119958   6.775   4.213   1.923
 6572WAT     H219959   6.689   4.189   1.786
 6573WAT      O19960   6.564   7.416   4.325
 6573WAT     H119961   6.614   7.457   4.249
 6573WAT     H219962   6.478   7.465   4.340
 6574WAT      O19963   4.473   8.722   7.989
 6574WAT     H119964   4.560   8.690   7.952
 6574WAT     H219965   4.449   8.810   7.949
 6575WAT      O19966   3.551   3.205   3.709
 6575WAT     H119967   3.516   3.112   3.712
 6575WAT     H219968   3.476   3.269   3.694
 6576WAT      O19969   1.383   6.008   8.581
 6576WAT     H119970   1.342   5.917   8.574
 6576WAT     H219971   1.443   6.024   8.502
 6577WAT      O19972   7.725   9.559   6.348
 6577WAT     H119973   7.730   9.462   6.325
 6577WAT     H219974   7.768   9.613   6.275
 6578WAT      O19975   6.069   3.861   2.718
 6578WAT     H119976   6.123   3.819   2.645
 6578WAT     H219977   5.999   3.920   2.678
 6579WAT      O19978   1.530   3.058   3.678
 6579WAT     H119979   1.508   3.060   3.580
 6579WAT     H219980   1.608   2.999   3.694
 6580WAT      O19981   7.481   9.113   7.796
 6580WAT     H119982   7.468   9.057   7.878
 6580WAT     H219983   7.511   9.055   7.720
 6581WAT      O19984   3.582   1.752   5.511
 6581WAT     H119985   3.644   1.742   5.589
 6581WAT     H219986   3.629   1.798   5.436
 6582WAT      O19987   0.197   8.094   1.821
 6582WAT     H119988   0.134   8.119   1.747
 6582WAT     H219989   0.276   8.155   1.819
 6583WAT      O19990   2.493   4.635   6.767
 6583WAT     H119991   2.416   4.608   6.710
 6583WAT     H219992   2.513   4.731   6.753
 6584WAT      O19993   6.633   8.019   2.989
 6584WAT     H119994   6.646   7.925   3.021
 6584WAT     H219995   6.549   8.057   3.028
 6585WAT      O19996   7.926   7.095   3.248
 6585WAT     H119997   7.957   7.189   3.242
 6585WAT     H219998   7.835   7.092   3.290
 6586WAT      O19999   4.164   0.904   6.814
 6586WAT     H120000   4.190   1.000   6.808
 6586WAT     H220001   4.096   0.883   6.744
 6587WAT      O20002   7.881   3.614   1.898
 6587WAT     H120003   7.948   3.667   1.950
 6587WAT     H220004   7.813   3.577   1.962
 6588WAT      O20005   8.517   3.040   2.677
 6588WAT     H120006   8.417   3.047   2.685
 6588WAT     H220007   8.553   2.988   2.754
 6589WAT      O20008   6.271   8.794   0.870
 6589WAT     H120009   6.283   8.874   0.929
 6589WAT     H220010   6.206   8.817   0.797
 6590WAT      O20011   4.305   4.080   5.906
 6590WAT     H120012   4.316   4.178   5.924
 6590WAT     H220013   4.269   4.034   5.987
 6591WAT      O20014   3.298   8.341   3.956
 6591WAT     H120015   3.226   8.275   3.935
 6591WAT     H220016   3.376   8.294   3.997
 6592WAT      O20017   0.085   1.687   2.479
 6592WAT     H120018   0.184   1.694   2.485
 6592WAT     H220019   0.052   1.738   2.399
 6593WAT      O20020   6.626   7.974   8.939
 6593WAT     H120021   6.534   7.979   8.975
 6593WAT     H220022   6.626   7.920   8.855
 6594WAT      O20023   4.136   4.370   6.219
 6594WAT     H120024   4.128   4.464   6.253
 6594WAT     H220025   4.232   4.344   6.215
 6595WAT      O20026   3.098   2.376   1.714
 6595WAT     H120027   3.033   2.430   1.661
 6595WAT     H220028   3.174   2.434   1.743
 6596WAT      O20029   9.739   3.656   7.160
 6596WAT     H120030   9.777   3.748   7.153
 6596WAT     H220031   9.747   3.610   7.072
 6597WAT      O20032   5.979   2.332   0.651
 6597WAT     H120033   6.055   2.326   0.586
 6597WAT     H220034   5.966   2.427   0.680
 6598WAT      O20035   3.892   8.185   8.025
 6598WAT     H120036   3.873   8.160   7.930
 6598WAT     H220037   3.986   8.220   8.032
 6599WAT      O20038   2.192   7.519   5.146
 6599WAT     H120039   2.229   7.469   5.068
 6599WAT     H220040   2.167   7.611   5.119
 6600WAT      O20041   3.188   4.053   3.528
 6600WAT     H120042   3.176   4.115   3.450
 6600WAT     H220043   3.278   4.011   3.525
 6601WAT      O20044   5.921   1.109   5.888
 6601WAT     H120045   5.937   1.157   5.974
 6601WAT     H220046   5.879   1.171   5.822
 6602WAT      O20047   1.253   2.471   9.507
 6602WAT     H120048   1.297   2.410   9.573
 6602WAT     H220049   1.305   2.556   9.501
 6603WAT      O20050   3.698   4.930   2.611
 6603WAT     H120051   3.629   4.858   2.609
 6603WAT     H220052   3.670   5.002   2.674
 6604WAT      O20053   0.883   4.348   9.853
 6604WAT     H120054   0.834   4.281   9.797
 6604WAT     H220055   0.911   4.425   9.795
 6605WAT      O20056   6.842   3.956   7.034
 6605WAT     H120057   6.939   3.969   7.017
 6605WAT     H220058   6.807   3.883   6.975
 6606WAT      O20059   8.504   0.917   3.838
 6606WAT     H120060   8.534   0.957   3.925
 6606WAT     H220061   8.408   0.938   3.824
 6607WAT      O20062   0.043   7.311   8.124
 6607WAT     H120063   0.030   7.345   8.031
 6607WAT     H220064   0.100   7.375   8.175
 6608WAT      O20065   4.780   9.054   9.026
 6608WAT     H120066   4.812   8.959   9.032
 6608WAT     H220067   4.724   9.065   8.944
 6609WAT      O20068   6.590   8.955   9.206
 6609WAT     H120069   6.589   8.857   9.223
 6609WAT     H220070   6.508   8.997   9.247
 6610WAT      O20071   1.837   7.744   5.047
 6610WAT     H120072   1.797   7.795   4.970
 6610WAT     H220073   1.782   7.662   5.063
 6611WAT      O20074   8.535   7.636   7.711
 6611WAT     H120075   8.453   7.678   7.671
 6611WAT     H220076   8.573   7.697   7.780
 6612WAT      O20077   2.511   0.193   0.059
 6612WAT     H120078   2.512   0.126   0.134
 6612WAT     H220079   2.447   0.162  -0.011
 6613WAT      O20080   5.824   8.022   0.502
 6613WAT     H120081   5.919   8.047   0.520
 6613WAT     H220082   5.814   7.923   0.504
 6614WAT      O20083   3.422   8.799   7.764
 6614WAT     H120084   3.507   8.851   7.776
 6614WAT     H220085   3.380   8.784   7.853
 6615WAT      O20086   2.276   1.713   2.488
 6615WAT     H120087   2.349   1.663   2.535
 6615WAT     H220088   2.188   1.682   2.522
 6616WAT      O20089   5.981   3.087   8.472
 6616WAT     H120090   6.063   3.117   8.522
 6616WAT     H220091   5.955   3.156   8.405
 6617WAT      O20092   9.287   9.526   2.514
 6617WAT     H120093   9.231   9.560   2.438
 6617WAT     H220094   9.257   9.434   2.540
 6618WAT      O20095   6.915   8.287   8.187
 6618WAT     H120096   6.837   8.337   8.225
 6618WAT     H220097   6.998   8.342   8.199
 6619WAT      O20098   6.659   8.419   7.656
 6619WAT     H120099   6.652   8.319   7.666
 6619WAT     H220100   6.756   8.445   7.655
 6620WAT      O20101   1.679   8.647   7.842
 6620WAT     H120102   1.728   8.699   7.911
 6620WAT     H220103   1.635   8.710   7.778
 6621WAT      O20104   1.736   2.331   8.479
 6621WAT     H120105   1.797   2.271   8.532
 6621WAT     H220106   1.739   2.305   8.383
 6622WAT      O20107   1.026   2.063   1.446
 6622WAT     H120108   1.095   2.018   1.389
 6622WAT     H220109   0.985   2.139   1.394
 6623WAT      O20110   6.849   7.197   2.012
 6623WAT     H120111   6.900   7.282   2.024
 6623WAT     H220112   6.886   7.146   1.935
 6624WAT      O20113   0.055   8.818   9.478
 6624WAT     H120114   0.137   8.818   9.421
 6624WAT     H220115   0.064   8.888   9.548
 6625WAT      O20116   3.044   9.176   5.790
 6625WAT     H120117   3.126   9.180   5.734
 6625WAT     H220118   3.028   9.265   5.833
 6626WAT      O20119   4.378   9.293   2.987
 6626WAT     H120120   4.366   9.198   3.017
 6626WAT     H220121   4.467   9.326   3.019
 6627WAT      O20122   0.984   4.558   8.052
 6627WAT     H120123   0.902   4.505   8.073
 6627WAT     H220124   1.056   4.497   8.019
 6628WAT      O20125   0.510   6.136   8.771
 6628WAT     H120126   0.504   6.233   8.747
 6628WAT     H220127   0.512   6.126   8.870
 6629WAT      O20128   5.879   0.407   4.769
 6629WAT     H120129   5.925   0.495   4.763
 6629WAT     H220130   5.810   0.400   4.697
 6630WAT      O20131   9.620   3.235   4.070
 6630WAT     H120132   9.643   3.143   4.037
 6630WAT     H220133   9.522   3.239   4.092
 6631WAT      O20134   9.844   8.274   3.196
 6631WAT     H120135   9.859   8.261   3.098
 6631WAT     H220136   9.824   8.185   3.238
 6632WAT      O20137   2.644   1.601   4.914
 6632WAT     H120138   2.692   1.658   4.980
 6632WAT     H220139   2.600   1.658   4.845
 6633WAT      O20140   2.916   9.701   2.839
 6633WAT     H120141   2.900   9.750   2.754
 6633WAT     H220142   2.940   9.606   2.818
 6634WAT      O20143   1.346   8.491   5.404
 6634WAT     H120144   1.295   8.406   5.399
 6634WAT     H220145   1.412   8.486   5.479
 6635WAT      O20146   6.055   9.236   2.633
 6635WAT     H120147   6.054   9.150   2.582
 6635WAT     H220148   6.084   9.310   2.572
 6636WAT      O20149   2.302   8.528   0.237
 6636WAT     H120150   2.345   8.522   0.327
 6636WAT     H220151   2.292   8.436   0.199
 6637WAT      O20152   5.656   3.061   8.325
 6637WAT     H120153   5.568   3.025   8.356
 6637WAT     H220154   5.693   3.123   8.394
 6638WAT      O20155   5.202   1.265   3.722
 6638WAT     H120156   5.182   1.169   3.702
 6638WAT     H220157   5.186   1.283   3.819
 6639WAT      O20158   5.396   0.279   9.022
 6639WAT     H120159   5.366   0.228   9.103
 6639WAT     H220160   5.404   0.376   9.046
 6640WAT      O20161   1.888   7.703   7.735
 6640WAT     H120162   1.877   7.604   7.728
 6640WAT     H220163   1.805   7.748   7.701
 6641WAT      O20164   3.476   8.862   9.454
 6641WAT     H120165   3.478   8.878   9.553
 6641WAT     H220166   3.387   8.888   9.417
 6642WAT      O20167   3.295   2.313   0.971
 6642WAT     H120168   3.314   2.333   0.874
 6642WAT     H220169   3.354   2.238   1.001
 6643WAT      O20170   0.916   9.463   9.357
 6643WAT     H120171   0.959   9.552   9.337
 6643WAT     H220172   0.918   9.406   9.275
 6644WAT      O20173   0.788   4.395   8.108
 6644WAT     H120174   0.799   4.309   8.157
 6644WAT     H220175   0.726   4.455   8.159
 6645WAT      O20176   8.125   1.649   1.924
 6645WAT     H120177   8.134   1.728   1.864
 6645WAT     H220178   8.029   1.623   1.930
 6646WAT      O20179   9.488   0.847   4.999
 6646WAT     H120180   9.561   0.821   5.062
 6646WAT     H220181   9.483   0.780   4.925
 6647WAT      O20182   4.694   9.177   5.327
 6647WAT     H120183   4.631   9.110   5.288
 6647WAT     H220184   4.692   9.260   5.272
 6648WAT      O20185   2.640   9.504   3.726
 6648WAT     H120186   2.565   9.514   3.791
 6648WAT     H220187   2.603   9.480   3.636
 6649WAT      O20188   9.846   7.527   8.321
 6649WAT     H120189   9.814   7.449   8.375
 6649WAT     H220190   9.941   7.511   8.292
 6650WAT      O20191   4.201   7.346   7.982
 6650WAT     H120192   4.171   7.375   7.891
 6650WAT     H220193   4.123   7.346   8.044
 6651WAT      O20194   5.841   6.481   2.760
 6651WAT     H120195   5.771   6.513   2.824
 6651WAT     H220196   5.930   6.481   2.806
 6652WAT      O20197   3.070   7.014   5.444
 6652WAT     H120198   3.057   7.110   5.470
 6652WAT     H220199   2.982   6.966   5.448
 6653WAT      O20200   7.172   1.318   4.809
 6653WAT     H120201   7.153   1.397   4.867
 6653WAT     H220202   7.240   1.260   4.853
 6654WAT      O20203   7.755   2.322   0.900
 6654WAT     H120204   7.851   2.328   0.871
 6654WAT     H220205   7.751   2.306   0.999
 6655WAT      O20206   6.352   5.934   8.930
 6655WAT     H120207   6.447   5.909   8.948
 6655WAT     H220208   6.291   5.877   8.985
 6656WAT      O20209   6.293   7.981   6.605
 6656WAT     H120210   6.218   7.987   6.539
 6656WAT     H220211   6.296   8.064   6.660
 6657WAT      O20212   0.614   7.647   1.092
 6657WAT     H120213   0.691   7.634   1.029
 6657WAT     H220214   0.617   7.740   1.129
 6658WAT      O20215   8.079   5.843   8.271
 6658WAT     H120216   8.177   5.857   8.282
 6658WAT     H220217   8.041   5.807   8.356
 6659WAT      O20218   9.614   6.778   2.599
 6659WAT     H120219   9.580   6.686   2.577
 6659WAT     H220220   9.714   6.777   2.600
 6660WAT      O20221   9.449   4.643   5.235
 6660WAT     H120222   9.493   4.554   5.225
 6660WAT     H220223   9.410   4.671   5.147
 6661WAT      O20224   2.714   8.721   9.847
 6661WAT     H120225   2.664   8.726   9.933
 6661WAT     H220226   2.812   8.710   9.865
 6662WAT      O20227   4.420   9.325   0.153
 6662WAT     H120228   4.446   9.376   0.071
 6662WAT     H220229   4.334   9.361   0.189
 6663WAT      O20230   6.729   7.584   9.739
 6663WAT     H120231   6.689   7.672   9.762
 6663WAT     H220232   6.657   7.516   9.727
 6664WAT      O20233   2.628   3.572   1.025
 6664WAT     H120234   2.708   3.593   0.968
 6664WAT     H220235   2.655   3.574   1.122
 6665WAT      O20236   2.126   0.425   2.620
 6665WAT     H120237   2.144   0.517   2.584
 6665WAT     H220238   2.075   0.432   2.706
 6666WAT      O20239   7.267   7.266   2.890
 6666WAT     H120240   7.346   7.321   2.917
 6666WAT     H220241   7.214   7.316   2.821
 6667WAT      O20242   4.461   4.898   0.998
 6667WAT     H120243   4.396   4.823   0.995
 6667WAT     H220244   4.522   4.887   1.076
 6668WAT      O20245   0.656   6.374   4.477
 6668WAT     H120246   0.604   6.305   4.426
 6668WAT     H220247   0.642   6.360   4.575
 6669WAT      O20248   9.339   5.144   4.714
 6669WAT     H120249   9.346   5.150   4.813
 6669WAT     H220250   9.409   5.081   4.680
 6670WAT      O20251   5.774   8.636   0.238
 6670WAT     H120252   5.684   8.663   0.272
 6670WAT     H220253   5.775   8.639   0.138
 6671WAT      O20254   5.983   2.487   1.666
 6671WAT     H120255   6.045   2.563   1.646
 6671WAT     H220256   5.904   2.492   1.605
 6672WAT      O20257   4.456   7.796   7.019
 6672WAT     H120258   4.400   7.873   6.987
 6672WAT     H220259   4.431   7.714   6.968
 6673WAT      O20260   6.538   8.376   8.877
 6673WAT     H120261   6.458   8.331   8.837
 6673WAT     H220262   6.613   8.376   8.811
 6674WAT      O20263   1.445   2.042   3.534
 6674WAT     H120264   1.524   2.098   3.509
 6674WAT     H220265   1.466   1.991   3.618
 6675WAT      O20266   4.547   2.704   0.080
 6675WAT     H120267   4.507   2.663   0.163
 6675WAT     H220268   4.574   2.632   0.017
 6676WAT      O20269   6.749   9.751   4.122
 6676WAT     H120270   6.734   9.677   4.187
 6676WAT     H220271   6.685   9.742   4.046
 6677WAT      O20272   4.132   6.976   6.686
 6677WAT     H120273   4.038   6.988   6.655
 6677WAT     H220274   4.133   6.970   6.786
 6678WAT      O20275   8.301   3.753   4.633
 6678WAT     H120276   8.308   3.687   4.558
 6678WAT     H220277   8.233   3.822   4.610
 6679WAT      O20278   9.784   0.895   8.993
 6679WAT     H120279   9.744   0.975   8.950
 6679WAT     H220280   9.878   0.914   9.021
 6680WAT      O20281   0.245   6.431   5.211
 6680WAT     H120282   0.223   6.516   5.259
 6680WAT     H220283   0.248   6.447   5.113
 6681WAT      O20284   0.044   5.616   6.062
 6681WAT     H120285   0.134   5.621   6.105
 6681WAT     H220286  -0.022   5.668   6.116
 6682WAT      O20287   0.695   6.610   6.929
 6682WAT     H120288   0.735   6.557   6.855
 6682WAT     H220289   0.713   6.564   7.016
 6683WAT      O20290   2.781   4.314   7.059
 6683WAT     H120291   2.710   4.351   6.999
 6683WAT     H220292   2.741   4.294   7.148
 6684WAT      O20293   1.871   4.663   6.536
 6684WAT     H120294   1.939   4.670   6.463
 6684WAT     H220295   1.898   4.591   6.599
 6685WAT      O20296   9.350   7.870   8.864
 6685WAT     H120297   9.294   7.908   8.938
 6685WAT     H220298   9.445   7.865   8.893
 6686WAT      O20299   8.394   3.415   9.604
 6686WAT     H120300   8.483   3.440   9.640
 6686WAT     H220301   8.366   3.481   9.534
 6687WAT      O20302   0.738   8.124   6.595
 6687WAT     H120303   0.765   8.100   6.501
 6687WAT     H220304   0.669   8.196   6.592
 6688WAT      O20305   8.636   1.146   9.207
 6688WAT     H120306   8.659   1.167   9.302
 6688WAT     H220307   8.550   1.095   9.204
 6689WAT      O20308   0.826   3.592   9.054
 6689WAT     H120309   0.900   3.660   9.050
 6689WAT     H220310   0.746   3.626   9.005
 6690WAT      O20311   6.974   1.536   3.744
 6690WAT     H120312   6.986   1.437   3.730
 6690WAT     H220313   7.058   1.576   3.778
 6691WAT      O20314   7.662   9.489   5.783
 6691WAT     H120315   7.693   9.411   5.838
 6691WAT     H220316   7.737   9.519   5.724
 6692WAT      O20317   2.393   1.214   5.439
 6692WAT     H120318   2.375   1.172   5.528
 6692WAT     H220319   2.484   1.254   5.439
 6693WAT      O20320   8.114   0.271   2.991
 6693WAT     H120321   8.195   0.244   3.043
 6693WAT     H220322   8.050   0.319   3.052
 6694WAT      O20323   8.981   0.191   3.729
 6694WAT     H120324   8.975   0.182   3.630
 6694WAT     H220325   9.073   0.164   3.759
 6695WAT      O20326   4.669   0.241   6.430
 6695WAT     H120327   4.696   0.337   6.417
 6695WAT     H220328   4.570   0.236   6.442
 6696WAT      O20329   8.387   8.658   9.625
 6696WAT     H120330   8.429   8.634   9.713
 6696WAT     H220331   8.449   8.634   9.551
 6697WAT      O20332   2.805   0.018   4.347
 6697WAT     H120333   2.829   0.016   4.444
 6697WAT     H220334   2.769  -0.071   4.320
 6698WAT      O20335   6.951   1.112   0.906
 6698WAT     H120336   6.930   1.064   0.821
 6698WAT     H220337   6.894   1.194   0.912
 6699WAT      O20338   7.245   5.535   2.030
 6699WAT     H120339   7.322   5.471   2.035
 6699WAT     H220340   7.280   5.629   2.035
 6700WAT      O20341   1.129   0.451   6.244
 6700WAT     H120342   1.071   0.441   6.163
 6700WAT     H220343   1.151   0.548   6.257
 6701WAT      O20344   0.905   2.687   8.280
 6701WAT     H120345   0.823   2.741   8.296
 6701WAT     H220346   0.879   2.595   8.251
 6702WAT      O20347   7.640   4.682   4.412
 6702WAT     H120348   7.640   4.712   4.507
 6702WAT     H220349   7.603   4.755   4.354
 6703WAT      O20350   4.920   1.164   5.438
 6703WAT     H120351   4.964   1.246   5.400
 6703WAT     H220352   4.947   1.154   5.534
 6704WAT      O20353   5.971   7.001   6.469
 6704WAT     H120354   5.880   7.021   6.433
 6704WAT     H220355   5.976   7.031   6.565
 6705WAT      O20356   0.258   5.862   7.532
 6705WAT     H120357   0.356   5.879   7.523
 6705WAT     H220358   0.209   5.911   7.461
 6706WAT      O20359   8.694   5.183   3.919
 6706WAT     H120360   8.721   5.279   3.919
 6706WAT     H220361   8.722   5.140   3.833
 6707WAT      O20362   1.483   5.094   1.285
 6707WAT     H120363   1.582   5.105   1.286
 6707WAT     H220364   1.444   5.135   1.367
 6708WAT      O20365   0.654   2.448   0.769
 6708WAT     H120366   0.659   2.361   0.819
 6708WAT     H220367   0.732   2.456   0.708
 6709WAT      O20368   1.589   8.700   8.819
 6709WAT     H120369   1.494   8.669   8.814
 6709WAT     H220370   1.649   8.620   8.819
 6710WAT      O20371   8.470   3.752   5.285
 6710WAT     H120372   8.390   3.782   5.233
 6710WAT     H220373   8.545   3.817   5.274
 6711WAT      O20374   9.628   5.005   0.833
 6711WAT     H120375   9.635   5.100   0.862
 6711WAT     H220376   9.546   4.964   0.873
 6712WAT      O20377   7.485   7.231   6.861
 6712WAT     H120378   7.393   7.268   6.876
 6712WAT     H220379   7.511   7.174   6.939
 6713WAT      O20380   0.277   5.594   6.227
 6713WAT     H120381   0.310   5.503   6.252
 6713WAT     H220382   0.336   5.664   6.268
 6714WAT      O20383   3.312   2.526   9.597
 6714WAT     H120384   3.326   2.488   9.506
 6714WAT     H220385   3.318   2.453   9.665
 6715WAT      O20386   7.496   8.134   4.978
 6715WAT     H120387   7.427   8.175   5.038
 6715WAT     H220388   7.576   8.195   4.973
 6716WAT      O20389   7.427   2.267   4.758
 6716WAT     H120390   7.445   2.173   4.788
 6716WAT     H220391   7.329   2.283   4.755
 6717WAT      O20392   9.229   0.049   3.988
 6717WAT     H120393   9.244   0.071   3.891
 6717WAT     H220394   9.220   0.134   4.040
 6718WAT      O20395   5.949   5.393   7.298
 6718WAT     H120396   6.019   5.454   7.336
 6718WAT     H220397   5.986   5.345   7.218
 6719WAT      O20398   2.791   5.697   2.690
 6719WAT     H120399   2.870   5.640   2.665
 6719WAT     H220400   2.785   5.775   2.627
 6720WAT      O20401   5.407   0.219   4.484
 6720WAT     H120402   5.377   0.236   4.578
 6720WAT     H220403   5.391   0.301   4.429
 6721WAT      O20404   2.754   7.074   3.574
 6721WAT     H120405   2.833   7.057   3.515
 6721WAT     H220406   2.785   7.118   3.658
 6722WAT      O20407   2.405   2.129   8.977
 6722WAT     H120408   2.401   2.214   9.029
 6722WAT     H220409   2.321   2.076   8.992
 6723WAT      O20410   8.893   3.433   7.638
 6723WAT     H120411   8.978   3.476   7.669
 6723WAT     H220412   8.817   3.496   7.653
 6724WAT      O20413   7.717   6.447   9.756
 6724WAT     H120414   7.773   6.364   9.762
 6724WAT     H220415   7.770   6.524   9.790
 6725WAT      O20416   8.089   3.672   9.160
 6725WAT     H120417   8.084   3.677   9.260
 6725WAT     H220418   8.035   3.746   9.120
 6726WAT      O20419   4.846   9.532   9.699
 6726WAT     H120420   4.826   9.622   9.661
 6726WAT     H220421   4.835   9.534   9.798
 6727WAT      O20422   9.714   6.426   1.965
 6727WAT     H120423   9.786   6.398   1.902
 6727WAT     H220424   9.654   6.349   1.984
 6728WAT      O20425   7.833   3.112   8.269
 6728WAT     H120426   7.809   3.052   8.345
 6728WAT     H220427   7.756   3.172   8.248
 6729WAT      O20428   4.408   7.064   2.143
 6729WAT     H120429   4.420   7.120   2.225
 6729WAT     H220430   4.493   7.014   2.124
 6730WAT      O20431   1.361   2.415   2.960
 6730WAT     H120432   1.292   2.343   2.962
 6730WAT     H220433   1.401   2.421   2.869
 6731WAT      O20434   4.387   1.087   8.252
 6731WAT     H120435   4.287   1.089   8.247
 6731WAT     H220436   4.423   1.180   8.246
 6732WAT      O20437   6.621   0.839   6.910
 6732WAT     H120438   6.557   0.916   6.912
 6732WAT     H220439   6.574   0.758   6.874
 6733WAT      O20440   0.038   3.090   9.843
 6733WAT     H120441   0.067   3.096   9.748
 6733WAT     H220442   0.026   3.182   9.880
 6734WAT      O20443   5.097   6.688   2.648
 6734WAT     H120444   5.181   6.717   2.695
 6734WAT     H220445   5.022   6.747   2.674
 6735WAT      O20446   5.738   7.687   8.093
 6735WAT     H120447   5.835   7.671   8.111
 6735WAT     H220448   5.714   7.654   8.002
 6736WAT      O20449   0.812   4.720   4.061
 6736WAT     H120450   0.814   4.696   4.158
 6736WAT     H220451   0.798   4.819   4.052
 6737WAT      O20452   3.772   8.945   6.041
 6737WAT     H120453   3.860   8.968   6.083
 6737WAT     H220454   3.783   8.864   5.983
 6738WAT      O20455   1.571   8.633   6.424
 6738WAT     H120456   1.561   8.549   6.478
 6738WAT     H220457   1.562   8.610   6.327
 6739WAT      O20458   7.830   2.564   6.781
 6739WAT     H120459   7.921   2.538   6.749
 6739WAT     H220460   7.776   2.600   6.705
 6740WAT      O20461   2.100   7.746   7.918
 6740WAT     H120462   2.076   7.711   8.009
 6740WAT     H220463   2.024   7.728   7.855
 6741WAT      O20464   8.283   5.725   0.609
 6741WAT     H120465   8.281   5.633   0.649
 6741WAT     H220466   8.374   5.743   0.572
 6742WAT      O20467   2.154   6.257   6.779
 6742WAT     H120468   2.188   6.189   6.843
 6742WAT     H220469   2.054   6.254   6.776
 6743WAT      O20470   3.878   4.828   8.386
 6743WAT     H120471   3.791   4.783   8.369
 6743WAT     H220472   3.896   4.829   8.485
 6744WAT      O20473   1.213   2.312   1.651
 6744WAT     H120474   1.130   2.359   1.624
 6744WAT     H220475   1.190   2.227   1.699
 6745WAT      O20476   4.322   3.425   7.647
 6745WAT     H120477   4.416   3.394   7.632
 6745WAT     H220478   4.267   3.407   7.566
 6746WAT      O20479   0.020   4.046   2.448
 6746WAT     H120480  -0.054   4.103   2.410
 6746WAT     H220481  -0.015   3.996   2.527
 6747WAT      O20482   1.760   9.706   8.578
 6747WAT     H120483   1.812   9.708   8.664
 6747WAT     H220484   1.792   9.778   8.518
 6748WAT      O20485   7.319   1.814   2.502
 6748WAT     H120486   7.417   1.827   2.491
 6748WAT     H220487   7.294   1.821   2.598
 6749WAT      O20488   4.559   2.445   9.174
 6749WAT     H120489   4.515   2.522   9.222
 6749WAT     H220490   4.489   2.387   9.134
 6750WAT      O20491   9.525   0.821   1.602
 6750WAT     H120492   9.539   0.739   1.659
 6750WAT     H220493   9.549   0.800   1.508
 6751WAT      O20494   3.192   1.012   8.659
 6751WAT     H120495   3.189   1.031   8.561
 6751WAT     H220496   3.114   1.056   8.704
 6752WAT      O20497   3.984   0.648   5.888
 6752WAT     H120498   4.054   0.580   5.865
 6752WAT     H220499   4.002   0.733   5.837
 6753WAT      O20500   1.135   8.365   5.604
 6753WAT     H120501   1.150   8.298   5.532
 6753WAT     H220502   1.180   8.334   5.688
 6754WAT      O20503   4.301   2.056   6.760
 6754WAT     H120504   4.303   2.078   6.857
 6754WAT     H220505   4.376   2.104   6.713
 6755WAT      O20506   7.638   8.335   2.382
 6755WAT     H120507   7.685   8.258   2.424
 6755WAT     H220508   7.540   8.317   2.380
 6756WAT      O20509   3.169   2.091   6.712
 6756WAT     H120510   3.156   2.048   6.622
 6756WAT     H220511   3.081   2.097   6.759
 6757WAT      O20512   1.002   6.594   7.071
 6757WAT     H120513   1.094   6.590   7.031
 6757WAT     H220514   0.936   6.556   7.008
 6758WAT      O20515   2.852   7.675   9.046
 6758WAT     H120516   2.774   7.701   9.103
 6758WAT     H220517   2.927   7.739   9.061
 6759WAT      O20518   6.163   2.730   4.295
 6759WAT     H120519   6.202   2.650   4.340
 6759WAT     H220520   6.231   2.769   4.232
 6760WAT      O20521   5.097   4.070   5.391
 6760WAT     H120522   5.188   4.053   5.428
 6760WAT     H220523   5.101   4.150   5.330
 6761WAT      O20524   9.684   6.638   5.735
 6761WAT     H120525   9.589   6.607   5.724
 6761WAT     H220526   9.707   6.701   5.660
 6762WAT      O20527   3.970   0.669   4.438
 6762WAT     H120528   3.905   0.596   4.414
 6762WAT     H220529   3.981   0.730   4.360
 6763WAT      O20530   4.605   6.265   1.140
 6763WAT     H120531   4.687   6.299   1.094
 6763WAT     H220532   4.621   6.260   1.238
 6764WAT      O20533   8.525   9.057   0.250
 6764WAT     H120534   8.545   9.122   0.323
 6764WAT     H220535   8.598   8.989   0.245
 6765WAT      O20536   7.005   4.492   0.162
 6765WAT     H120537   7.031   4.433   0.238
 6765WAT     H220538   6.908   4.482   0.142
 6766WAT      O20539   3.592   1.122   3.980
 6766WAT     H120540   3.492   1.127   3.985
 6766WAT     H220541   3.629   1.214   3.991
 6767WAT      O20542   6.113   3.355   3.758
 6767WAT     H120543   6.033   3.308   3.720
 6767WAT     H220544   6.192   3.338   3.700
 6768WAT      O20545   2.944   7.962   6.772
 6768WAT     H120546   2.951   8.050   6.726
 6768WAT     H220547   2.857   7.955   6.819
 6769WAT      O20548   8.974   3.871   2.791
 6769WAT     H120549   8.938   3.859   2.699
 6769WAT     H220550   8.906   3.838   2.858
 6770WAT      O20551   9.526   1.190   1.443
 6770WAT     H120552   9.496   1.158   1.353
 6770WAT     H220553   9.588   1.268   1.431
 6771WAT      O20554   6.916   2.574   5.608
 6771WAT     H120555   7.010   2.543   5.592
 6771WAT     H220556   6.874   2.598   5.521
 6772WAT      O20557   3.771   7.108   3.815
 6772WAT     H120558   3.790   7.177   3.746
 6772WAT     H220559   3.721   7.031   3.774
 6773WAT      O20560   1.852   7.109   7.264
 6773WAT     H120561   1.811   7.035   7.319
 6773WAT     H220562   1.795   7.190   7.270
 6774WAT      O20563   7.682   8.498   9.818
 6774WAT     H120564   7.608   8.464   9.760
 6774WAT     H220565   7.719   8.423   9.872
 6775WAT      O20566   5.930   5.888   0.018
 6775WAT     H120567   5.930   5.793   0.047
 6775WAT     H220568   5.955   5.947   0.095
 6776WAT      O20569   6.092   5.103   9.830
 6776WAT     H120570   6.094   5.148   9.919
 6776WAT     H220571   5.997   5.091   9.801
 6777WAT      O20572   7.545   8.016   6.958
 6777WAT     H120573   7.598   8.099   6.944
 6777WAT     H220574   7.505   8.017   7.050
 6778WAT      O20575   8.328   1.287   2.902
 6778WAT     H120576   8.320   1.361   2.970
 6778WAT     H220577   8.303   1.200   2.944
 6779WAT      O20578   8.275   3.005   7.754
 6779WAT     H120579   8.181   2.973   7.736
 6779WAT     H220580   8.272   3.082   7.817
 6780WAT      O20581   1.723   4.994   1.001
 6780WAT     H120582   1.661   5.052   0.947
 6780WAT     H220583   1.706   4.898   0.979
 6781WAT      O20584   6.975   1.253   3.673
 6781WAT     H120585   6.974   1.233   3.575
 6781WAT     H220586   7.062   1.226   3.712
 6782WAT      O20587   2.076   9.330   5.623
 6782WAT     H120588   2.116   9.400   5.682
 6782WAT     H220589   2.135   9.316   5.543
 6783WAT      O20590   0.150   8.958   1.891
 6783WAT     H120591   0.190   8.924   1.976
 6783WAT     H220592   0.215   9.018   1.844
 6784WAT      O20593   7.174   4.724   0.076
 6784WAT     H120594   7.211   4.789   0.010
 6784WAT     H220595   7.249   4.672   0.117
 6785WAT      O20596   6.323   8.879   7.594
 6785WAT     H120597   6.352   8.799   7.647
 6785WAT     H220598   6.261   8.934   7.650
 6786WAT      O20599   9.304   0.186   4.447
 6786WAT     H120600   9.338   0.093   4.460
 6786WAT     H220601   9.346   0.246   4.516
 6787WAT      O20602   6.899   6.140   5.081
 6787WAT     H120603   6.960   6.152   5.159
 6787WAT     H220604   6.950   6.106   5.003
 6788WAT      O20605   0.543   3.058   7.296
 6788WAT     H120606   0.625   3.103   7.260
 6788WAT     H220607   0.461   3.107   7.266
 6789WAT      O20608   5.024   3.921   5.851
 6789WAT     H120609   4.938   3.969   5.833
 6789WAT     H220610   5.003   3.828   5.883
 6790WAT      O20611   9.582   4.781   3.179
 6790WAT     H120612   9.575   4.689   3.142
 6790WAT     H220613   9.554   4.781   3.275
 6791WAT      O20614   5.463   3.728   0.424
 6791WAT     H120615   5.509   3.687   0.345
 6791WAT     H220616   5.410   3.657   0.472
 6792WAT      O20617   5.667   6.061   0.505
 6792WAT     H120618   5.697   6.144   0.457
 6792WAT     H220619   5.639   6.085   0.598
 6793WAT      O20620   0.739   3.390   5.858
 6793WAT     H120621   0.730   3.295   5.830
 6793WAT     H220622   0.748   3.395   5.958
 6794WAT      O20623   0.102   5.539   8.076
 6794WAT     H120624   0.149   5.624   8.053
 6794WAT     H220625   0.013   5.536   8.030
 6795WAT      O20626   2.413   1.051   4.749
 6795WAT     H120627   2.424   0.954   4.730
 6795WAT     H220628   2.372   1.062   4.840
 6796WAT      O20629   3.344   7.151   7.429
 6796WAT     H120630   3.318   7.244   7.404
 6796WAT     H220631   3.263   7.092   7.426
 6797WAT      O20632   2.258   3.484   4.772
 6797WAT     H120633   2.339   3.429   4.754
 6797WAT     H220634   2.217   3.456   4.859
 6798WAT      O20635   4.470   8.889   3.268
 6798WAT     H120636   4.479   8.846   3.178
 6798WAT     H220637   4.544   8.859   3.327
 6799WAT      O20638   5.696   8.572   9.475
 6799WAT     H120639   5.710   8.501   9.406
 6799WAT     H220640   5.782   8.591   9.522
 6800WAT      O20641   4.764   0.367   2.408
 6800WAT     H120642   4.692   0.368   2.338
 6800WAT     H220643   4.727   0.405   2.493
 6801WAT      O20644   8.207   3.558   4.107
 6801WAT     H120645   8.294   3.557   4.155
 6801WAT     H220646   8.223   3.569   4.009
 6802WAT      O20647   9.052   5.268   4.859
 6802WAT     H120648   9.136   5.294   4.810
 6802WAT     H220649   9.028   5.340   4.923
 6803WAT      O20650   9.355   8.087   5.661
 6803WAT     H120651   9.259   8.065   5.645
 6803WAT     H220652   9.395   8.125   5.577
 6804WAT      O20653   9.274   8.733   1.982
 6804WAT     H120654   9.305   8.821   2.018
 6804WAT     H220655   9.185   8.744   1.938
 6805WAT      O20656   1.576   2.936   2.764
 6805WAT     H120657   1.489   2.976   2.736
 6805WAT     H220658   1.650   3.001   2.743
 6806WAT      O20659   9.244   5.696   7.109
 6806WAT     H120660   9.333   5.662   7.078
 6806WAT     H220661   9.257   5.773   7.171
 6807WAT      O20662   0.174   8.548   7.493
 6807WAT     H120663   0.257   8.564   7.441
 6807WAT     H220664   0.102   8.513   7.432
 6808WAT      O20665   9.178   7.676   2.693
 6808WAT     H120666   9.219   7.767   2.689
 6808WAT     H220667   9.084   7.680   2.659
 6809WAT      O20668   4.736   2.343   5.457
 6809WAT     H120669   4.682   2.345   5.542
 6809WAT     H220670   4.828   2.309   5.477
 6810WAT      O20671   4.208   7.240   2.630
 6810WAT     H120672   4.205   7.192   2.542
 6810WAT     H220673   4.195   7.338   2.615
 6811WAT      O20674   1.314   6.626   9.580
 6811WAT     H120675   1.337   6.715   9.541
 6811WAT     H220676   1.283   6.637   9.674
 6812WAT      O20677   0.644   1.925   5.493
 6812WAT     H120678   0.594   1.853   5.445
 6812WAT     H220679   0.631   1.914   5.592
 6813WAT      O20680   7.953   2.199   7.539
 6813WAT     H120681   7.914   2.187   7.630
 6813WAT     H220682   7.998   2.288   7.534
 6814WAT      O20683   6.590   2.177   1.996
 6814WAT     H120684   6.574   2.086   1.957
 6814WAT     H220685   6.566   2.176   2.093
 6815WAT      O20686   7.213   6.645   3.223
 6815WAT     H120687   7.133   6.695   3.190
 6815WAT     H220688   7.250   6.691   3.304
 6816WAT      O20689   2.421   8.005   6.836
 6816WAT     H120690   2.340   8.053   6.804
 6816WAT     H220691   2.393   7.925   6.890
 6817WAT      O20692   6.677   2.080   9.733
 6817WAT     H120693   6.739   2.155   9.755
 6817WAT     H220694   6.599   2.082   9.794
 6818WAT      O20695   7.818   1.552   0.941
 6818WAT     H120696   7.822   1.454   0.959
 6818WAT     H220697   7.848   1.602   1.021
 6819WAT      O20698   2.447   6.657   8.813
 6819WAT     H120699   2.474   6.632   8.906
 6819WAT     H220700   2.524   6.643   8.751
 6820WAT      O20701   4.632   4.916   8.185
 6820WAT     H120702   4.586   4.917   8.274
 6820WAT     H220703   4.681   5.002   8.171
 6821WAT      O20704   1.554   7.796   4.424
 6821WAT     H120705   1.531   7.728   4.355
 6821WAT     H220706   1.569   7.885   4.380
 6822WAT      O20707   1.362   2.650   4.489
 6822WAT     H120708   1.361   2.564   4.540
 6822WAT     H220709   1.453   2.690   4.494
 6823WAT      O20710   2.546   0.092   8.879
 6823WAT     H120711   2.578   0.008   8.922
 6823WAT     H220712   2.456   0.076   8.838
 6824WAT      O20713   6.129   0.950   2.271
 6824WAT     H120714   6.188   0.870   2.274
 6824WAT     H220715   6.040   0.928   2.312
 6825WAT      O20716   4.449   9.575   5.810
 6825WAT     H120717   4.408   9.484   5.814
 6825WAT     H220718   4.377   9.644   5.799
 6826WAT      O20719   0.564   0.548   1.782
 6826WAT     H120720   0.661   0.544   1.758
 6826WAT     H220721   0.520   0.462   1.756
 6827WAT      O20722   2.262   3.431   1.691
 6827WAT     H120723   2.238   3.514   1.742
 6827WAT     H220724   2.347   3.393   1.728
 6828WAT      O20725   0.885   7.214   7.414
 6828WAT     H120726   0.877   7.213   7.314
 6828WAT     H220727   0.795   7.193   7.454
 6829WAT      O20728   5.228   8.359   8.392
 6829WAT     H120729   5.202   8.428   8.324
 6829WAT     H220730   5.314   8.387   8.436
 6830WAT      O20731   1.908   4.414   1.455
 6830WAT     H120732   1.935   4.356   1.377
 6830WAT     H220733   1.816   4.450   1.439
 6831WAT      O20734   9.486   5.559   2.194
 6831WAT     H120735   9.562   5.501   2.162
 6831WAT     H220736   9.412   5.558   2.127
 6832WAT      O20737   2.473   8.439   7.453
 6832WAT     H120738   2.477   8.350   7.498
 6832WAT     H220739   2.524   8.436   7.368
 6833WAT      O20740   7.148   1.339   8.260
 6833WAT     H120741   7.051   1.364   8.250
 6833WAT     H220742   7.175   1.347   8.356
 6834WAT      O20743   9.076   9.589   0.594
 6834WAT     H120744   9.082   9.545   0.683
 6834WAT     H220745   8.981   9.594   0.565
 6835WAT      O20746   6.224   3.667   4.561
 6835WAT     H120747   6.241   3.581   4.513
 6835WAT     H220748   6.204   3.648   4.657
 6836WAT      O20749   8.021   7.603   3.190
 6836WAT     H120750   8.116   7.633   3.195
 6836WAT     H220751   7.961   7.676   3.221
 6837WAT      O20752   9.551   2.888   6.019
 6837WAT     H120753   9.566   2.811   5.956
 6837WAT     H220754   9.612   2.964   5.994
 6838WAT      O20755   8.904   6.338   3.790
 6838WAT     H120756   8.960   6.291   3.721
 6838WAT     H220757   8.862   6.419   3.749
 6839WAT      O20758   1.388   0.180   9.715
 6839WAT     H120759   1.408   0.213   9.807
 6839WAT     H220760   1.416   0.250   9.648
 6840WAT      O20761   8.796   9.182   7.803
 6840WAT     H120762   8.723   9.153   7.742
 6840WAT     H220763   8.758   9.207   7.892
 6841WAT      O20764   3.890   6.533   4.759
 6841WAT     H120765   3.868   6.536   4.856
 6841WAT     H220766   3.834   6.601   4.710
 6842WAT      O20767   6.859   5.013   2.377
 6842WAT     H120768   6.932   4.956   2.415
 6842WAT     H220769   6.867   5.106   2.412
 6843WAT      O20770   3.822   6.511   1.458
 6843WAT     H120771   3.759   6.442   1.494
 6843WAT     H220772   3.899   6.521   1.521
 6844WAT      O20773   0.892   4.173   4.799
 6844WAT     H120774   0.847   4.118   4.869
 6844WAT     H220775   0.876   4.133   4.709
 6845WAT      O20776   5.290   3.343   7.771
 6845WAT     H120777   5.390   3.352   7.772
 6845WAT     H220778   5.248   3.431   7.791
 6846WAT      O20779   1.415   5.209   4.183
 6846WAT     H120780   1.450   5.129   4.135
 6846WAT     H220781   1.342   5.181   4.246
 6847WAT      O20782   9.163   6.717   0.656
 6847WAT     H120783   9.153   6.817   0.655
 6847WAT     H220784   9.116   6.679   0.576
 6848WAT      O20785   0.090   8.863   0.634
 6848WAT     H120786   0.045   8.924   0.568
 6848WAT     H220787   0.178   8.834   0.598
 6849WAT      O20788   0.472   1.010   0.462
 6849WAT     H120789   0.396   1.064   0.496
 6849WAT     H220790   0.456   0.985   0.366
 6850WAT      O20791   5.436   3.822   3.554
 6850WAT     H120792   5.533   3.796   3.552
 6850WAT     H220793   5.396   3.808   3.464
 6851WAT      O20794   0.210   0.238   5.959
 6851WAT     H120795   0.271   0.161   5.939
 6851WAT     H220796   0.151   0.256   5.880
 6852WAT      O20797   9.364   8.406   6.534
 6852WAT     H120798   9.307   8.447   6.463
 6852WAT     H220799   9.335   8.311   6.550
 6853WAT      O20800   0.309   0.418   3.390
 6853WAT     H120801   0.346   0.484   3.324
 6853WAT     H220802   0.342   0.326   3.368
 6854WAT      O20803   1.193   1.138   9.380
 6854WAT     H120804   1.175   1.159   9.284
 6854WAT     H220805   1.290   1.156   9.399
 6855WAT      O20806   2.363   5.129   7.030
 6855WAT     H120807   2.343   5.085   7.118
 6855WAT     H220808   2.454   5.172   7.035
 6856WAT      O20809   0.271   9.522   7.928
 6856WAT     H120810   0.324   9.604   7.950
 6856WAT     H220811   0.244   9.475   8.012
 6857WAT      O20812   3.932   5.648   7.826
 6857WAT     H120813   3.985   5.564   7.831
 6857WAT     H220814   3.994   5.727   7.830
 6858WAT      O20815   8.885   3.895   5.817
 6858WAT     H120816   8.958   3.874   5.883
 6858WAT     H220817   8.926   3.921   5.730
 6859WAT      O20818   4.414   3.952   5.060
 6859WAT     H120819   4.383   3.857   5.069
 6859WAT     H220820   4.367   4.009   5.127
 6860WAT      O20821   9.585   3.167   9.652
 6860WAT     H120822   9.658   3.231   9.626
 6860WAT     H220823   9.625   3.078   9.674
 6861WAT      O20824   9.050   7.849   4.755
 6861WAT     H120825   9.133   7.795   4.764
 6861WAT     H220826   8.985   7.823   4.827
 6862WAT      O20827   5.540   5.788   3.127
 6862WAT     H120828   5.624   5.777   3.073
 6862WAT     H220829   5.515   5.885   3.129
 6863WAT      O20830   9.681   6.160   5.662
 6863WAT     H120831   9.689   6.193   5.568
 6863WAT     H220832   9.596   6.108   5.672
 6864WAT      O20833   4.710   0.454   9.684
 6864WAT     H120834   4.645   0.445   9.608
 6864WAT     H220835   4.715   0.550   9.712
 6865WAT      O20836   5.160   8.647   1.977
 6865WAT     H120837   5.240   8.687   1.933
 6865WAT     H220838   5.127   8.709   2.048
 6866WAT      O20839   7.217   9.036   1.404
 6866WAT     H120840   7.121   9.015   1.426
 6866WAT     H220841   7.243   8.987   1.321
 6867WAT      O20842   9.413   5.835   5.384
 6867WAT     H120843   9.424   5.932   5.362
 6867WAT     H220844   9.444   5.818   5.477
 6868WAT      O20845   6.297   7.865   4.796
 6868WAT     H120846   6.254   7.777   4.812
 6868WAT     H220847   6.229   7.938   4.807
 6869WAT      O20848   5.643   0.771   5.635
 6869WAT     H120849   5.585   0.724   5.702
 6869WAT     H220850   5.716   0.819   5.682
 6870WAT      O20851   5.455   6.584   9.029
 6870WAT     H120852   5.484   6.679   9.017
 6870WAT     H220853   5.391   6.579   9.105
 6871WAT      O20854   2.452   5.991   9.193
 6871WAT     H120855   2.417   6.036   9.111
 6871WAT     H220856   2.376   5.970   9.254
 6872WAT      O20857   3.910   4.799   8.713
 6872WAT     H120858   4.004   4.776   8.738
 6872WAT     H220859   3.884   4.885   8.757
 6873WAT      O20860   9.684   0.374   5.661
 6873WAT     H120861   9.659   0.373   5.564
 6873WAT     H220862   9.642   0.296   5.706
 6874WAT      O20863   6.292   7.320   3.265
 6874WAT     H120864   6.257   7.290   3.176
 6874WAT     H220865   6.392   7.327   3.260
 6875WAT      O20866   1.035   4.419   1.984
 6875WAT     H120867   0.960   4.384   1.929
 6875WAT     H220868   1.029   4.382   2.077
 6876WAT      O20869   5.950   2.218   6.769
 6876WAT     H120870   5.900   2.199   6.853
 6876WAT     H220871   6.011   2.296   6.784
 6877WAT      O20872   0.905   0.938   1.631
 6877WAT     H120873   0.975   1.007   1.650
 6877WAT     H220874   0.828   0.951   1.693
 6878WAT      O20875   8.303   0.453   2.390
 6878WAT     H120876   8.262   0.544   2.390
 6878WAT     H220877   8.335   0.431   2.483
 6879WAT      O20878   9.757   0.304   1.387
 6879WAT     H120879   9.851   0.325   1.359
 6879WAT     H220880   9.714   0.386   1.425
 6880WAT      O20881   0.662   0.809   8.065
 6880WAT     H120882   0.700   0.892   8.025
 6880WAT     H220883   0.630   0.828   8.158
 6881WAT      O20884   0.477   1.378   9.197
 6881WAT     H120885   0.494   1.466   9.242
 6881WAT     H220886   0.419   1.321   9.257
 6882WAT      O20887   7.951   8.529   3.976
 6882WAT     H120888   7.966   8.597   4.047
 6882WAT     H220889   7.862   8.544   3.934
 6883WAT      O20890   7.948   6.103   3.850
 6883WAT     H120891   7.911   6.114   3.757
 6883WAT     H220892   8.044   6.074   3.844
 6884WAT      O20893   8.101   2.558   4.100
 6884WAT     H120894   8.024   2.511   4.057
 6884WAT     H220895   8.078   2.655   4.114
 6885WAT      O20896   0.525   0.445   3.671
 6885WAT     H120897   0.530   0.531   3.723
 6885WAT     H220898   0.486   0.374   3.729
 6886WAT      O20899   1.972   1.031   8.956
 6886WAT     H120900   1.879   1.040   8.992
 6886WAT     H220901   2.032   0.997   9.028
 6887WAT      O20902   7.537   7.368   4.955
 6887WAT     H120903   7.586   7.440   5.003
 6887WAT     H220904   7.579   7.351   4.866
 6888WAT      O20905   0.621   8.969   2.829
 6888WAT     H120906   0.570   8.931   2.752
 6888WAT     H220907   0.559   9.022   2.886
 6889WAT      O20908   5.404   1.379   4.967
 6889WAT     H120909   5.382   1.419   4.878
 6889WAT     H220910   5.456   1.445   5.021
 6890WAT      O20911   4.157   7.862   6.073
 6890WAT     H120912   4.088   7.877   6.144
 6890WAT     H220913   4.207   7.947   6.057
 6891WAT      O20914   4.049   2.216   8.536
 6891WAT     H120915   4.073   2.140   8.596
 6891WAT     H220916   3.950   2.217   8.523
 6892WAT      O20917   4.622   1.654   7.561
 6892WAT     H120918   4.710   1.657   7.610
 6892WAT     H220919   4.547   1.666   7.627
 6893WAT      O20920   1.768   7.583   1.114
 6893WAT     H120921   1.867   7.589   1.101
 6893WAT     H220922   1.744   7.619   1.204
 6894WAT      O20923   4.924   5.972   2.186
 6894WAT     H120924   4.987   6.005   2.257
 6894WAT     H220925   4.906   5.875   2.200
 6895WAT      O20926   6.579   4.247   0.880
 6895WAT     H120927   6.639   4.288   0.948
 6895WAT     H220928   6.600   4.150   0.871
 6896WAT      O20929   8.718   0.475   1.760
 6896WAT     H120930   8.768   0.412   1.819
 6896WAT     H220931   8.624   0.485   1.793
 6897WAT      O20932   3.500   0.037   7.866
 6897WAT     H120933   3.582   0.026   7.809
 6897WAT     H220934   3.448  -0.048   7.866
 6898WAT      O20935   6.451   3.756   1.112
 6898WAT     H120936   6.373   3.710   1.155
 6898WAT     H220937   6.420   3.841   1.069
 6899WAT      O20938   5.058   8.251   8.864
 6899WAT     H120939   5.127   8.298   8.810
 6899WAT     H220940   5.035   8.306   8.945
 6900WAT      O20941   6.552   6.429   4.068
 6900WAT     H120942   6.525   6.407   3.974
 6900WAT     H220943   6.549   6.528   4.082
 6901WAT      O20944   0.616   1.158   0.967
 6901WAT     H120945   0.630   1.250   1.002
 6901WAT     H220946   0.613   1.093   1.043
 6902WAT      O20947   2.834   9.657   8.385
 6902WAT     H120948   2.825   9.649   8.485
 6902WAT     H220949   2.845   9.567   8.345
 6903WAT      O20950   1.755   4.883   8.163
 6903WAT     H120951   1.826   4.934   8.210
 6903WAT     H220952   1.785   4.788   8.151
 6904WAT      O20953   7.299   5.691   8.876
 6904WAT     H120954   7.314   5.606   8.826
 6904WAT     H220955   7.285   5.671   8.973
 6905WAT      O20956   3.970   0.022   9.385
 6905WAT     H120957   3.918   0.084   9.327
 6905WAT     H220958   3.930   0.021   9.477
 6906WAT      O20959   1.856   1.934   6.107
 6906WAT     H120960   1.814   1.864   6.050
 6906WAT     H220961   1.940   1.899   6.147
 6907WAT      O20962   4.475   7.953   4.504
 6907WAT     H120963   4.385   7.913   4.489
 6907WAT     H220964   4.480   7.991   4.596
 6908WAT      O20965   3.740   9.391   2.294
 6908WAT     H120966   3.761   9.355   2.203
 6908WAT     H220967   3.824   9.417   2.340
 6909WAT      O20968   0.999   3.361   8.438
 6909WAT     H120969   1.097   3.351   8.452
 6909WAT     H220970   0.980   3.375   8.341
 6910WAT      O20971   4.696   2.011   0.811
 6910WAT     H120972   4.732   2.100   0.841
 6910WAT     H220973   4.759   1.971   0.744
 6911WAT      O20974   5.127   4.305   5.262
 6911WAT     H120975   5.161   4.388   5.307
 6911WAT     H220976   5.059   4.330   5.193
 6912WAT      O20977   7.430   0.282   6.390
 6912WAT     H120978   7.409   0.189   6.422
 6912WAT     H220979   7.525   0.285   6.360
 6913WAT      O20980   7.876   7.496   2.559
 6913WAT     H120981   7.936   7.542   2.494
 6913WAT     H220982   7.877   7.546   2.646
 6914WAT      O20983   3.889   3.015   9.683
 6914WAT     H120984   3.938   3.095   9.718
 6914WAT     H220985   3.799   3.043   9.651
 6915WAT      O20986   4.142   8.754   4.106
 6915WAT     H120987   4.167   8.783   4.014
 6915WAT     H220988   4.160   8.656   4.116
 6916WAT      O20989   6.316   1.026   9.234
 6916WAT     H120990   6.324   1.113   9.283
 6916WAT     H220991   6.267   1.042   9.148
 6917WAT      O20992   7.445   5.664   2.945
 6917WAT     H120993   7.494   5.739   2.990
 6917WAT     H220994   7.402   5.606   3.014
 6918WAT      O20995   3.819   2.112   7.336
 6918WAT     H120996   3.846   2.117   7.240
 6918WAT     H220997   3.768   2.194   7.361
 6919WAT      O20998   2.770   6.200   5.323
 6919WAT     H120999   2.813   6.291   5.327
 6919WAT     H221000   2.777   6.165   5.229
 6920WAT      O21001   4.163   1.532   2.448
 6920WAT     H121002   4.173   1.620   2.404
 6920WAT     H221003   4.172   1.543   2.547
 6921WAT      O21004   8.654   4.475   7.519
 6921WAT     H121005   8.684   4.547   7.581
 6921WAT     H221006   8.613   4.516   7.437
 6922WAT      O21007   0.483   3.404   7.303
 6922WAT     H121008   0.563   3.349   7.326
 6922WAT     H221009   0.409   3.344   7.274
 6923WAT      O21010   3.220   6.216   8.032
 6923WAT     H121011   3.250   6.245   7.941
 6923WAT     H221012   3.296   6.229   8.097
 6924WAT      O21013   1.642   3.756   5.077
 6924WAT     H121014   1.684   3.783   4.991
 6924WAT     H221015   1.668   3.661   5.098
 6925WAT      O21016   0.907   1.328   7.272
 6925WAT     H121017   0.895   1.281   7.184
 6925WAT     H221018   0.839   1.400   7.281
 6926WAT      O21019   1.115   6.883   1.437
 6926WAT     H121020   1.104   6.918   1.530
 6926WAT     H221021   1.207   6.904   1.403
 6927WAT      O21022   9.277   3.216   8.483
 6927WAT     H121023   9.254   3.263   8.568
 6927WAT     H221024   9.278   3.118   8.499
 6928WAT      O21025   3.817   9.582   8.615
 6928WAT     H121026   3.722   9.557   8.631
 6928WAT     H221027   3.874   9.500   8.614
 6929WAT      O21028   0.685   0.835   2.777
 6929WAT     H121029   0.778   0.840   2.740
 6929WAT     H221030   0.688   0.846   2.877
 6930WAT      O21031   1.875   5.217   8.774
 6930WAT     H121032   1.953   5.264   8.817
 6930WAT     H221033   1.892   5.208   8.676
 6931WAT      O21034   7.497   6.380   3.144
 6931WAT     H121035   7.480   6.294   3.192
 6931WAT     H221036   7.413   6.411   3.100
 6932WAT      O21037   7.184   6.879   8.162
 6932WAT     H121038   7.137   6.960   8.197
 6932WAT     H221039   7.123   6.831   8.098
 6933WAT      O21040   1.951   5.470   3.948
 6933WAT     H121041   1.886   5.442   3.878
 6933WAT     H221042   1.927   5.426   4.035
 6934WAT      O21043   1.287   3.685   3.349
 6934WAT     H121044   1.339   3.656   3.429
 6934WAT     H221045   1.204   3.731   3.378
 6935WAT      O21046   2.180   6.925   9.576
 6935WAT     H121047   2.089   6.966   9.588
 6935WAT     H221048   2.248   6.980   9.624
 6936WAT      O21049   7.788   8.020   9.604
 6936WAT     H121050   7.695   8.057   9.609
 6936WAT     H221051   7.794   7.956   9.528
 6937WAT      O21052   4.710   3.289   9.030
 6937WAT     H121053   4.624   3.238   9.025
 6937WAT     H221054   4.783   3.227   9.060
 6938WAT      O21055   0.737   9.178   6.101
 6938WAT     H121056   0.643   9.207   6.084
 6938WAT     H221057   0.745   9.144   6.194
 6939WAT      O21058   4.542   8.015   4.774
 6939WAT     H121059   4.572   7.925   4.741
 6939WAT     H221060   4.605   8.047   4.845
 6940WAT      O21061   8.794   4.057   1.474
 6940WAT     H121062   8.768   3.963   1.452
 6940WAT     H221063   8.715   4.117   1.466
 6941WAT      O21064   3.541   7.964   5.934
 6941WAT     H121065   3.494   8.048   5.962
 6941WAT     H221066   3.624   7.988   5.883
 6942WAT      O21067   1.713   8.181   3.404
 6942WAT     H121068   1.789   8.142   3.352
 6942WAT     H221069   1.692   8.272   3.369
 6943WAT      O21070   9.869   1.387   2.956
 6943WAT     H121071   9.897   1.404   3.050
 6943WAT     H221072   9.863   1.288   2.940
 6944WAT      O21073   4.127   2.329   2.938
 6944WAT     H121074   4.066   2.338   3.017
 6944WAT     H221075   4.209   2.279   2.964
 6945WAT      O21076   4.506   0.812   1.254
 6945WAT     H121077   4.419   0.833   1.300
 6945WAT     H221078   4.538   0.893   1.205
 6946WAT      O21079   4.275   5.136   6.941
 6946WAT     H121080   4.311   5.081   7.017
 6946WAT     H221081   4.180   5.110   6.924
 6947WAT      O21082   8.219   2.351   9.150
 6947WAT     H121083   8.238   2.368   9.054
 6947WAT     H221084   8.194   2.437   9.195
 6948WAT      O21085   8.456   3.027   7.575
 6948WAT     H121086   8.373   3.030   7.630
 6948WAT     H221087   8.536   3.025   7.635
 6949WAT      O21088   2.547   7.981   6.303
 6949WAT     H121089   2.590   7.921   6.370
 6949WAT     H221090   2.503   8.057   6.351
 6950WAT      O21091   1.684   7.762   2.805
 6950WAT     H121092   1.641   7.837   2.855
 6950WAT     H221093   1.716   7.794   2.716
 6951WAT      O21094   7.120   0.768   9.199
 6951WAT     H121095   7.024   0.746   9.183
 6951WAT     H221096   7.134   0.788   9.296
 6952WAT      O21097   5.028   5.681   1.812
 6952WAT     H121098   5.051   5.776   1.794
 6952WAT     H221099   5.111   5.629   1.832
 6953WAT      O21100   9.548   8.413   7.243
 6953WAT     H121101   9.538   8.462   7.329
 6953WAT     H221102   9.462   8.418   7.192
 6954WAT      O21103   6.356   7.863   9.255
 6954WAT     H121104   6.431   7.904   9.308
 6954WAT     H221105   6.303   7.803   9.314
 6955WAT      O21106   2.868   0.884   2.083
 6955WAT     H121107   2.824   0.819   2.021
 6955WAT     H221108   2.812   0.895   2.165
 6956WAT      O21109   6.639   9.463   0.337
 6956WAT     H121110   6.678   9.374   0.360
 6956WAT     H221111   6.550   9.451   0.293
 6957WAT      O21112   6.503   1.148   7.814
 6957WAT     H121113   6.493   1.246   7.833
 6957WAT     H221114   6.466   1.128   7.723
 6958WAT      O21115   5.108   8.166   7.559
 6958WAT     H121116   5.184   8.186   7.620
 6958WAT     H221117   5.054   8.249   7.544
 6959WAT      O21118   7.023   9.787   2.636
 6959WAT     H121119   7.066   9.698   2.621
 6959WAT     H221120   7.085   9.846   2.688
 6960WAT      O21121   5.666   9.064   4.525
 6960WAT     H121122   5.708   9.131   4.464
 6960WAT     H221123   5.710   9.069   4.615
 6961WAT      O21124   0.404   8.225   7.955
 6961WAT     H121125   0.348   8.161   8.008
 6961WAT     H221126   0.483   8.177   7.917
 6962WAT      O21127   0.734   4.514   1.484
 6962WAT     H121128   0.721   4.536   1.580
 6962WAT     H221129   0.710   4.593   1.428
 6963WAT      O21130   5.671   5.181   9.477
 6963WAT     H121131   5.679   5.121   9.397
 6963WAT     H221132   5.711   5.137   9.556
 6964WAT      O21133   2.406   8.148   2.695
 6964WAT     H121134   2.358   8.089   2.760
 6964WAT     H221135   2.461   8.092   2.633
 6965WAT      O21136   6.244   8.195   5.540
 6965WAT     H121137   6.197   8.150   5.464
 6965WAT     H221138   6.330   8.148   5.559
 6966WAT      O21139   1.088   2.100   4.674
 6966WAT     H121140   1.001   2.107   4.624
 6966WAT     H221141   1.069   2.101   4.773
 6967WAT      O21142   8.093   2.292   2.011
 6967WAT     H121143   8.003   2.277   1.968
 6967WAT     H221144   8.127   2.206   2.048
 6968WAT      O21145   9.468   4.384   8.645
 6968WAT     H121146   9.370   4.401   8.643
 6968WAT     H221147   9.502   4.389   8.739
 6969WAT      O21148   8.036   2.333   0.869
 6969WAT     H121149   8.111   2.399   0.867
 6969WAT     H221150   8.054   2.261   0.801
 6970WAT      O21151   5.991   6.234   8.745
 6970WAT     H121152   6.050   6.153   8.737
 6970WAT     H221153   5.956   6.240   8.838
 6971WAT      O21154   1.210   3.072   7.954
 6971WAT     H121155   1.134   3.016   7.988
 6971WAT     H221156   1.214   3.157   8.007
 6972WAT      O21157   2.253   4.970   3.554
 6972WAT     H121158   2.177   4.905   3.549
 6972WAT     H221159   2.218   5.061   3.575
 6973WAT      O21160   1.259   0.480   0.674
 6973WAT     H121161   1.230   0.396   0.627
 6973WAT     H221162   1.200   0.555   0.645
 6974WAT      O21163   2.119   0.445   1.600
 6974WAT     H121164   2.051   0.382   1.562
 6974WAT     H221165   2.084   0.484   1.685
 6975WAT      O21166   7.464   4.027   7.821
 6975WAT     H121167   7.367   4.042   7.802
 6975WAT     H221168   7.475   3.991   7.913
 6976WAT      O21169   4.511   6.671   9.053
 6976WAT     H121170   4.523   6.692   8.956
 6976WAT     H221171   4.427   6.715   9.087
 6977WAT      O21172   5.940   3.528   6.834
 6977WAT     H121173   5.983   3.615   6.857
 6977WAT     H221174   5.899   3.534   6.743
 6978WAT      O21175   0.668   5.147   7.175
 6978WAT     H121176   0.670   5.128   7.077
 6978WAT     H221177   0.589   5.204   7.196
 6979WAT      O21178   1.852   1.813   4.355
 6979WAT     H121179   1.752   1.818   4.346
 6979WAT     H221180   1.883   1.724   4.321
 6980WAT      O21181   4.722   6.551   9.709
 6980WAT     H121182   4.798   6.616   9.705
 6980WAT     H221183   4.738   6.477   9.644
 6981WAT      O21184   0.419   5.285   7.296
 6981WAT     H121185   0.333   5.319   7.259
 6981WAT     H221186   0.483   5.361   7.309
 6982WAT      O21187   3.149   5.095   9.701
 6982WAT     H121188   3.082   5.037   9.745
 6982WAT     H221189   3.166   5.062   9.608
 6983WAT      O21190   4.732   1.985   9.571
 6983WAT     H121191   4.675   2.068   9.562
 6983WAT     H221192   4.761   1.955   9.481
 6984WAT      O21193   1.084   4.328   7.519
 6984WAT     H121194   1.074   4.362   7.613
 6984WAT     H221195   0.996   4.335   7.472
 6985WAT      O21196   3.280   6.972   4.743
 6985WAT     H121197   3.297   7.070   4.748
 6985WAT     H221198   3.242   6.941   4.831
 6986WAT      O21199   4.491   3.164   5.481
 6986WAT     H121200   4.552   3.089   5.454
 6986WAT     H221201   4.494   3.236   5.412
 6987WAT      O21202   6.191   5.896   3.185
 6987WAT     H121203   6.174   5.811   3.136
 6987WAT     H221204   6.105   5.931   3.223
 6988WAT      O21205   5.095   3.060   4.877
 6988WAT     H121206   5.157   3.027   4.806
 6988WAT     H221207   5.097   2.997   4.955
 6989WAT      O21208   5.282   2.972   4.687
 6989WAT     H121209   5.363   3.031   4.698
 6989WAT     H221210   5.306   2.879   4.716
 6990WAT      O21211   6.897   9.362   7.462
 6990WAT     H121212   6.824   9.339   7.397
 6990WAT     H221213   6.891   9.300   7.541
 6991WAT      O21214   7.047   1.505   2.969
 6991WAT     H121215   7.059   1.544   2.877
 6991WAT     H221216   6.954   1.468   2.977
 6992WAT      O21217   8.351   2.770   6.161
 6992WAT     H121218   8.449   2.748   6.151
 6992WAT     H221219   8.297   2.705   6.107
 6993WAT      O21220   9.095   6.357   7.374
 6993WAT     H121221   9.098   6.403   7.463
 6993WAT     H221222   9.129   6.418   7.303
 6994WAT      O21223   6.687   9.722   0.365
 6994WAT     H121224   6.672   9.626   0.342
 6994WAT     H221225   6.624   9.779   0.313
 6995WAT      O21226   9.171   5.093   6.626
 6995WAT     H121227   9.216   5.157   6.688
 6995WAT     H221228   9.205   5.108   6.533
 6996WAT      O21229   2.329   7.159   9.178
 6996WAT     H121230   2.298   7.238   9.126
 6996WAT     H221231   2.259   7.134   9.245
 6997WAT      O21232   0.589   0.144   5.995
 6997WAT     H121233   0.500   0.113   5.960
 6997WAT     H221234   0.662   0.110   5.936
 6998WAT      O21235   9.206   2.520   2.369
 6998WAT     H121236   9.119   2.567   2.382
 6998WAT     H221237   9.251   2.554   2.287
 6999WAT      O21238   8.845   0.906   0.043
 6999WAT     H121239   8.833   0.929   0.140
 6999WAT     H221240   8.855   0.990  -0.010
 7000WAT      O21241   5.293   7.984   0.896
 7000WAT     H121242   5.378   7.983   0.949
 7000WAT     H221243   5.217   8.013   0.954
 7001WAT      O21244   8.401   5.618   9.079
 7001WAT     H121245   8.401   5.617   8.979
 7001WAT     H221246   8.308   5.631   9.113
 7002WAT      O21247   8.486   5.890   7.351
 7002WAT     H121248   8.425   5.889   7.272
 7002WAT     H221249   8.452   5.956   7.419
 7003WAT      O21250   2.252   8.796   1.340
 7003WAT     H121251   2.275   8.795   1.437
 7003WAT     H221252   2.276   8.885   1.301
 7004WAT      O21253   4.693   8.496   0.904
 7004WAT     H121254   4.605   8.542   0.894
 7004WAT     H221255   4.766   8.564   0.908
 7005WAT      O21256   2.474   0.732   2.696
 7005WAT     H121257   2.540   0.805   2.712
 7005WAT     H221258   2.470   0.672   2.776
 7006WAT      O21259   2.598   0.300   7.295
 7006WAT     H121260   2.571   0.394   7.274
 7006WAT     H221261   2.516   0.243   7.298
 7007WAT      O21262   6.335   4.912   7.458
 7007WAT     H121263   6.404   4.974   7.421
 7007WAT     H221264   6.376   4.854   7.528
 7008WAT      O21265   9.788   7.161   2.330
 7008WAT     H121266   9.805   7.153   2.428
 7008WAT     H221267   9.776   7.069   2.291
 7009WAT      O21268   3.879   8.135   2.704
 7009WAT     H121269   3.926   8.073   2.767
 7009WAT     H221270   3.837   8.081   2.631
 7010WAT      O21271   4.436   1.094   9.065
 7010WAT     H121272   4.423   1.118   8.969
 7010WAT     H221273   4.533   1.076   9.082
 7011WAT      O21274   7.537   8.131   7.664
 7011WAT     H121275   7.627   8.103   7.697
 7011WAT     H221276   7.493   8.054   7.617
 7012WAT      O21277   8.176   8.111   7.670
 7012WAT     H121278   8.151   8.093   7.575
 7012WAT     H221279   8.096   8.099   7.728
 7013WAT      O21280   5.027   8.874   6.842
 7013WAT     H121281   4.943   8.919   6.870
 7013WAT     H221282   5.085   8.857   6.922
 7014WAT      O21283   0.555   7.955   4.273
 7014WAT     H121284   0.612   7.929   4.351
 7014WAT     H221285   0.468   7.905   4.277
 7015WAT      O21286   5.500   6.990   0.471
 7015WAT     H121287   5.417   7.046   0.477
 7015WAT     H221288   5.504   6.928   0.550
 7016WAT      O21289   0.954   8.324   4.573
 7016WAT     H121290   0.874   8.265   4.573
 7016WAT     H221291   1.032   8.276   4.613
 7017WAT      O21292   3.332   1.728   9.873
 7017WAT     H121293   3.333   1.628   9.883
 7017WAT     H221294   3.263   1.767   9.934
 7018WAT      O21295   7.653   4.628   7.262
 7018WAT     H121296   7.736   4.625   7.318
 7018WAT     H221297   7.646   4.545   7.207
 7019WAT      O21298   4.001   9.523   1.899
 7019WAT     H121299   3.929   9.554   1.836
 7019WAT     H221300   4.081   9.495   1.846
 7020WAT      O21301   7.109   8.621   0.110
 7020WAT     H121302   7.130   8.619   0.208
 7020WAT     H221303   7.027   8.566   0.092
 7021WAT      O21304   7.164   5.871   4.522
 7021WAT     H121305   7.253   5.916   4.512
 7021WAT     H221306   7.103   5.930   4.574
 7022WAT      O21307   4.881   0.678   7.036
 7022WAT     H121308   4.887   0.778   7.039
 7022WAT     H221309   4.937   0.643   6.961
 7023WAT      O21310   7.769   0.585   2.025
 7023WAT     H121311   7.795   0.681   2.026
 7023WAT     H221312   7.735   0.559   2.116
 7024WAT      O21313   2.380   4.514   9.634
 7024WAT     H121314   2.349   4.431   9.680
 7024WAT     H221315   2.393   4.586   9.701
 7025WAT      O21316   6.068   3.647   2.295
 7025WAT     H121317   6.130   3.724   2.277
 7025WAT     H221318   6.121   3.569   2.327
 7026WAT      O21319   5.678   1.218   9.253
 7026WAT     H121320   5.766   1.267   9.257
 7026WAT     H221321   5.606   1.276   9.291
 7027WAT      O21322   2.711   4.918   9.055
 7027WAT     H121323   2.641   4.935   9.125
 7027WAT     H221324   2.761   4.835   9.079
 7028WAT      O21325   8.498   2.820   4.955
 7028WAT     H121326   8.498   2.734   5.007
 7028WAT     H221327   8.486   2.801   4.858
 7029WAT      O21328   2.938   1.989   2.560
 7029WAT     H121329   2.973   2.065   2.504
 7029WAT     H221330   2.971   1.902   2.522
 7030WAT      O21331   9.468   6.681   4.876
 7030WAT     H121332   9.399   6.645   4.813
 7030WAT     H221333   9.512   6.761   4.835
 7031WAT      O21334   8.919   4.009   7.358
 7031WAT     H121335   8.938   3.934   7.421
 7031WAT     H221336   8.985   4.083   7.373
 7032WAT      O21337   5.987   6.509   6.883
 7032WAT     H121338   6.026   6.448   6.814
 7032WAT     H221339   5.944   6.587   6.838
 7033WAT      O21340   2.728   1.950   0.338
 7033WAT     H121341   2.791   1.874   0.350
 7033WAT     H221342   2.634   1.916   0.337
 7034WAT      O21343   0.575   2.559   8.583
 7034WAT     H121344   0.579   2.634   8.650
 7034WAT     H221345   0.525   2.590   8.502
 7035WAT      O21346   7.049   0.323   9.003
 7035WAT     H121347   7.092   0.261   9.069
 7035WAT     H221348   7.019   0.406   9.050
 7036WAT      O21349   1.074   8.805   2.463
 7036WAT     H121350   0.990   8.840   2.505
 7036WAT     H221351   1.149   8.810   2.529
 7037WAT      O21352   0.772   9.068   9.231
 7037WAT     H121353   0.811   9.155   9.201
 7037WAT     H221354   0.843   9.011   9.272
 7038WAT      O21355   7.270   2.765   9.495
 7038WAT     H121356   7.286   2.784   9.591
 7038WAT     H221357   7.332   2.821   9.439
 7039WAT      O21358   1.808   9.585   4.139
 7039WAT     H121359   1.776   9.632   4.057
 7039WAT     H221360   1.802   9.647   4.218
 7040WAT      O21361   1.103   6.342   4.933
 7040WAT     H121362   1.111   6.405   5.010
 7040WAT     H221363   1.137   6.252   4.959
 7041WAT      O21364   1.983   8.251   4.352
 7041WAT     H121365   1.914   8.279   4.286
 7041WAT     H221366   2.070   8.296   4.330
 7042WAT      O21367   2.100   5.190   9.871
 7042WAT     H121368   2.152   5.232   9.796
 7042WAT     H221369   2.003   5.209   9.858
 7043WAT      O21370   8.451   6.662   7.758
 7043WAT     H121371   8.519   6.716   7.708
 7043WAT     H221372   8.487   6.570   7.775
 7044WAT      O21373   2.435   8.354   1.499
 7044WAT     H121374   2.495   8.329   1.574
 7044WAT     H221375   2.486   8.409   1.433
 7045WAT      O21376   0.566   1.189   9.032
 7045WAT     H121377   0.523   1.260   9.087
 7045WAT     H221378   0.645   1.152   9.081
 7046WAT      O21379   6.793   6.582   8.440
 7046WAT     H121380   6.786   6.505   8.377
 7046WAT     H221381   6.757   6.555   8.529
 7047WAT      O21382   5.851   7.185   4.423
 7047WAT     H121383   5.941   7.214   4.391
 7047WAT     H221384   5.803   7.138   4.350
 7048WAT      O21385   2.100   8.465   2.678
 7048WAT     H121386   2.063   8.559   2.683
 7048WAT     H221387   2.089   8.431   2.584
 7049WAT      O21388   4.882   1.496   6.234
 7049WAT     H121389   4.841   1.566   6.176
 7049WAT     H221390   4.812   1.428   6.259
 7050WAT      O21391   3.462   2.886   4.423
 7050WAT     H121392   3.387   2.941   4.461
 7050WAT     H221393   3.542   2.895   4.483
 7051WAT      O21394   3.861   0.884   0.155
 7051WAT     H121395   3.853   0.854   0.250
 7051WAT     H221396   3.944   0.845   0.115
 7052WAT      O21397   0.293   5.634   7.851
 7052WAT     H121398   0.270   5.723   7.812
 7052WAT     H221399   0.235   5.564   7.810
 7053WAT      O21400   6.516   0.071   5.972
 7053WAT     H121401   6.450   0.023   6.029
 7053WAT     H221402   6.468   0.117   5.898
 7054WAT      O21403   5.369   9.165   3.192
 7054WAT     H121404   5.294   9.173   3.256
 7054WAT     H221405   5.422   9.250   3.190
 7055WAT      O21406   6.772   8.458   4.829
 7055WAT     H121407   6.757   8.391   4.756
 7055WAT     H221408   6.781   8.549   4.788
 7056WAT      O21409   3.497   8.308   9.358
 7056WAT     H121410   3.463   8.277   9.269
 7056WAT     H221411   3.431   8.283   9.429
 7057WAT      O21412   6.181   3.633   0.052
 7057WAT     H121413   6.208   3.539   0.070
 7057WAT     H221414   6.156   3.643  -0.044
 7058WAT      O21415   0.339   9.653   2.481
 7058WAT     H121416   0.306   9.716   2.551
 7058WAT     H221417   0.316   9.689   2.390
 7059WAT      O21418   6.451   3.833   6.633
 7059WAT     H121419   6.421   3.743   6.666
 7059WAT     H221420   6.446   3.899   6.708
 7060WAT      O21421   7.455   5.296   2.771
 7060WAT     H121422   7.480   5.333   2.861
 7060WAT     H221423   7.457   5.370   2.704
 7061WAT      O21424   2.399   6.791   9.113
 7061WAT     H121425   2.467   6.719   9.100
 7061WAT     H221426   2.371   6.827   9.025
 7062WAT      O21427   6.720   4.688   7.107
 7062WAT     H121428   6.784   4.762   7.088
 7062WAT     H221429   6.771   4.608   7.141
 7063WAT      O21430   0.443   7.731   0.884
 7063WAT     H121431   0.533   7.736   0.928
 7063WAT     H221432   0.426   7.638   0.851
 7064WAT      O21433   1.418   7.740   1.769
 7064WAT     H121434   1.425   7.697   1.859
 7064WAT     H221435   1.475   7.822   1.768
 7065WAT      O21436   8.375   4.052   2.632
 7065WAT     H121437   8.291   4.039   2.684
 7065WAT     H221438   8.375   4.143   2.590
 7066WAT      O21439   1.836   0.591   3.759
 7066WAT     H121440   1.762   0.605   3.824
 7066WAT     H221441   1.800   0.546   3.677
 7067WAT      O21442   9.393   5.327   9.653
 7067WAT     H121443   9.430   5.263   9.720
 7067WAT     H221444   9.460   5.341   9.579
 7068WAT      O21445   6.969   7.900   3.299
 7068WAT     H121446   7.063   7.931   3.282
 7068WAT     H221447   6.967   7.800   3.300
 7069WAT      O21448   4.022   3.603   1.139
 7069WAT     H121449   4.046   3.672   1.207
 7069WAT     H221450   3.936   3.629   1.095
 7070WAT      O21451   5.441   1.057   2.692
 7070WAT     H121452   5.390   1.068   2.776
 7070WAT     H221453   5.493   1.141   2.673
 7071WAT      O21454   4.830   6.772   4.972
 7071WAT     H121455   4.833   6.788   5.071
 7071WAT     H221456   4.832   6.860   4.924
 7072WAT      O21457   4.431   1.821   8.009
 7072WAT     H121458   4.365   1.854   7.942
 7072WAT     H221459   4.405   1.854   8.100
 7073WAT      O21460   4.660   9.177   5.617
 7073WAT     H121461   4.605   9.100   5.647
 7073WAT     H221462   4.672   9.174   5.518
 7074WAT      O21463   8.559   6.138   7.895
 7074WAT     H121464   8.494   6.211   7.914
 7074WAT     H221465   8.514   6.064   7.845
 7075WAT      O21466   2.627   7.586   4.122
 7075WAT     H121467   2.672   7.675   4.108
 7075WAT     H221468   2.666   7.519   4.058
 7076WAT      O21469   8.313   9.351   2.240
 7076WAT     H121470   8.375   9.365   2.163
 7076WAT     H221471   8.309   9.253   2.262
 7077WAT      O21472   1.681   4.732   4.047
 7077WAT     H121473   1.655   4.646   4.002
 7077WAT     H221474   1.633   4.739   4.134
 7078WAT      O21475   5.252   3.480   5.174
 7078WAT     H121476   5.202   3.428   5.104
 7078WAT     H221477   5.190   3.505   5.248
 7079WAT      O21478   6.702   7.652   0.548
 7079WAT     H121479   6.793   7.685   0.522
 7079WAT     H221480   6.710   7.592   0.628
 7080WAT      O21481   0.084   1.658   8.304
 7080WAT     H121482   0.074   1.560   8.290
 7080WAT     H221483  -0.003   1.697   8.332
 7081WAT      O21484   3.805   7.334   5.326
 7081WAT     H121485   3.721   7.301   5.368
 7081WAT     H221486   3.860   7.255   5.296
 7082WAT      O21487   4.499   7.005   4.939
 7082WAT     H121488   4.451   6.929   4.982
 7082WAT     H221489   4.450   7.090   4.958
 7083WAT      O21490   5.774   0.210   3.995
 7083WAT     H121491   5.701   0.268   4.032
 7083WAT     H221492   5.862   0.245   4.026
 7084WAT      O21493   6.152   7.364   6.430
 7084WAT     H121494   6.228   7.425   6.409
 7084WAT     H221495   6.129   7.369   6.527
 7085WAT      O21496   7.407   3.478   1.926
 7085WAT     H121497   7.356   3.397   1.897
 7085WAT     H221498   7.390   3.553   1.862
 7086WAT      O21499   9.512   6.636   8.343
 7086WAT     H121500   9.462   6.702   8.288
 7086WAT     H221501   9.480   6.641   8.438
 7087WAT      O21502   8.978   1.421   7.310
 7087WAT     H121503   8.906   1.410   7.242
 7087WAT     H221504   8.939   1.413   7.402
 7088WAT      O21505   2.178   5.248   1.882
 7088WAT     H121506   2.113   5.313   1.842
 7088WAT     H221507   2.249   5.298   1.931
 7089WAT      O21508   9.006   6.560   6.950
 7089WAT     H121509   9.019   6.509   6.865
 7089WAT     H221510   8.983   6.655   6.928
 7090WAT      O21511   8.717   0.399   3.654
 7090WAT     H121512   8.788   0.354   3.709
 7090WAT     H221513   8.628   0.362   3.678
 7091WAT      O21514   8.116   1.752   3.294
 7091WAT     H121515   8.187   1.692   3.259
 7091WAT     H221516   8.070   1.798   3.218
 7092WAT      O21517   4.648   4.148   0.859
 7092WAT     H121518   4.731   4.137   0.804
 7092WAT     H221519   4.615   4.058   0.888
 7093WAT      O21520   6.225   1.894   3.502
 7093WAT     H121521   6.255   1.880   3.408
 7093WAT     H221522   6.305   1.889   3.563
 7094WAT      O21523   3.753   7.318   6.647
 7094WAT     H121524   3.779   7.333   6.743
 7094WAT     H221525   3.704   7.231   6.639
 7095WAT      O21526   3.982   4.364   0.588
 7095WAT     H121527   3.933   4.326   0.511
 7095WAT     H221528   3.920   4.375   0.666
 7096WAT      O21529   7.121   9.229   5.999
 7096WAT     H121530   7.120   9.164   5.923
 7096WAT     H221531   7.099   9.181   6.084
 7097WAT      O21532   4.820   2.717   5.854
 7097WAT     H121533   4.833   2.768   5.769
 7097WAT     H221534   4.888   2.746   5.921
 7098WAT      O21535   0.140   8.587   8.665
 7098WAT     H121536   0.068   8.638   8.712
 7098WAT     H221537   0.178   8.643   8.592
 7099WAT      O21538   0.256   7.830   0.461
 7099WAT     H121539   0.307   7.876   0.388
 7099WAT     H221540   0.247   7.891   0.540
 7100WAT      O21541   2.050   4.778   3.525
 7100WAT     H121542   2.056   4.714   3.448
 7100WAT     H221543   2.014   4.731   3.605
 7101WAT      O21544   0.481   3.228   1.007
 7101WAT     H121545   0.485   3.296   1.081
 7101WAT     H221546   0.397   3.242   0.954
 7102WAT      O21547   4.120   3.184   6.241
 7102WAT     H121548   4.044   3.249   6.243
 7102WAT     H221549   4.098   3.104   6.297
 7103WAT      O21550   1.188   5.674   3.638
 7103WAT     H121551   1.118   5.743   3.616
 7103WAT     H221552   1.214   5.684   3.734
 7104WAT      O21553   6.095   3.225   1.180
 7104WAT     H121554   6.115   3.312   1.136
 7104WAT     H221555   6.158   3.155   1.145
 7105WAT      O21556   5.301   1.189   6.274
 7105WAT     H121557   5.335   1.271   6.320
 7105WAT     H221558   5.226   1.214   6.212
 7106WAT      O21559   2.709   3.603   6.655
 7106WAT     H121560   2.642   3.636   6.721
 7106WAT     H221561   2.666   3.592   6.566
 7107WAT      O21562   7.988   1.460   7.280
 7107WAT     H121563   8.079   1.489   7.251
 7107WAT     H221564   7.939   1.421   7.202
 7108WAT      O21565   9.868   1.723   9.363
 7108WAT     H121566   9.807   1.784   9.413
 7108WAT     H221567   9.837   1.715   9.268
 7109WAT      O21568   3.117   6.609   1.161
 7109WAT     H121569   3.082   6.584   1.251
 7109WAT     H221570   3.161   6.529   1.119
 7110WAT      O21571   9.595   9.110   7.895
 7110WAT     H121572   9.520   9.048   7.872
 7110WAT     H221573   9.557   9.199   7.921
 7111WAT      O21574   5.627   0.353   7.187
 7111WAT     H121575   5.572   0.334   7.106
 7111WAT     H221576   5.669   0.268   7.219
 7112WAT      O21577   2.063   6.773   0.724
 7112WAT     H121578   2.009   6.799   0.804
 7112WAT     H221579   2.160   6.778   0.747
 7113WAT      O21580   3.117   3.363   9.441
 7113WAT     H121581   3.091   3.370   9.537
 7113WAT     H221582   3.145   3.454   9.407
 7114WAT      O21583   7.802   5.034   9.482
 7114WAT     H121584   7.809   4.965   9.410
 7114WAT     H221585   7.855   5.004   9.562
 7115WAT      O21586   5.822   8.330   5.047
 7115WAT     H121587   5.745   8.385   5.078
 7115WAT     H221588   5.793   8.235   5.035
 7116WAT      O21589   4.898   6.255   1.366
 7116WAT     H121590   4.942   6.344   1.361
 7116WAT     H221591   4.920   6.202   1.284
 7117WAT      O21592   7.233   0.782   7.153
 7117WAT     H121593   7.259   0.709   7.090
 7117WAT     H221594   7.287   0.775   7.237
 7118WAT      O21595   8.436   7.883   6.306
 7118WAT     H121596   8.496   7.918   6.235
 7118WAT     H221597   8.477   7.802   6.348
 7119WAT      O21598   3.040   7.419   9.223
 7119WAT     H121599   2.959   7.412   9.281
 7119WAT     H221600   3.112   7.468   9.271
 7120WAT      O21601   3.847   8.768   4.073
 7120WAT     H121602   3.789   8.845   4.100
 7120WAT     H221603   3.943   8.792   4.088
 7121WAT      O21604   9.292   2.915   1.621
 7121WAT     H121605   9.281   2.977   1.699
 7121WAT     H221606   9.299   2.968   1.537
 7122WAT      O21607   8.594   3.625   2.519
 7122WAT     H121608   8.614   3.722   2.505
 7122WAT     H221609   8.569   3.583   2.431
 7123WAT      O21610   4.940   7.064   6.361
 7123WAT     H121611   4.969   7.053   6.456
 7123WAT     H221612   4.997   7.134   6.317
 7124WAT      O21613   9.638   7.449   8.652
 7124WAT     H121614   9.647   7.546   8.629
 7124WAT     H221615   9.568   7.437   8.722
 7125WAT      O21616   2.974   7.653   4.310
 7125WAT     H121617   2.960   7.714   4.388
 7125WAT     H221618   2.920   7.685   4.232
 7126WAT      O21619   0.978   0.188   5.942
 7126WAT     H121620   0.951   0.278   5.976
 7126WAT     H221621   0.921   0.117   5.984
 7127WAT      O21622   9.206   4.308   5.285
 7127WAT     H121623   9.150   4.377   5.331
 7127WAT     H221624   9.212   4.329   5.188
 7128WAT      O21625   8.431   2.106   8.850
 7128WAT     H121626   8.480   2.086   8.935
 7128WAT     H221627   8.360   2.037   8.836
 7129WAT      O21628   7.610   9.204   3.749
 7129WAT     H121629   7.646   9.117   3.714
 7129WAT     H221630   7.554   9.187   3.830
 7130WAT      O21631   3.686   1.331   6.129
 7130WAT     H121632   3.695   1.234   6.108
 7130WAT     H221633   3.686   1.344   6.228
 7131WAT      O21634   9.146   0.341   4.309
 7131WAT     H121635   9.201   0.268   4.351
 7131WAT     H221636   9.111   0.401   4.381
 7132WAT      O21637   6.128   1.685   9.012
 7132WAT     H121638   6.223   1.666   9.034
 7132WAT     H221639   6.078   1.707   9.096
 7133WAT      O21640   4.170   0.072   5.024
 7133WAT     H121641   4.100   0.006   4.996
 7133WAT     H221642   4.257   0.049   4.980
 7134WAT      O21643   5.313   9.260   7.572
 7134WAT     H121644   5.216   9.273   7.590
 7134WAT     H221645   5.358   9.349   7.563
 7135WAT      O21646   1.526   5.525   1.669
 7135WAT     H121647   1.617   5.488   1.653
 7135WAT     H221648   1.480   5.541   1.582
 7136WAT      O21649   0.043   6.723   2.184
 7136WAT     H121650   0.100   6.650   2.223
 7136WAT     H221651  -0.053   6.705   2.208
 7137WAT      O21652   8.655   9.199   3.018
 7137WAT     H121653   8.690   9.197   2.925
 7137WAT     H221654   8.696   9.275   3.068
 7138WAT      O21655   3.959   6.506   2.421
 7138WAT     H121656   3.929   6.486   2.515
 7138WAT     H221657   3.935   6.430   2.361
 7139WAT      O21658   0.308   0.083   5.227
 7139WAT     H121659   0.305   0.059   5.129
 7139WAT     H221660   0.399   0.120   5.249
 7140WAT      O21661   9.213   1.021   0.412
 7140WAT     H121662   9.159   0.937   0.403
 7140WAT     H221663   9.153   1.100   0.402
 7141WAT      O21664   4.461   3.470   3.632
 7141WAT     H121665   4.472   3.441   3.727
 7141WAT     H221666   4.486   3.394   3.571
 7142WAT      O21667   7.090   1.016   5.816
 7142WAT     H121668   7.181   1.055   5.826
 7142WAT     H221669   7.022   1.089   5.815
 7143WAT      O21670   4.990   5.617   8.390
 7143WAT     H121671   4.918   5.669   8.344
 7143WAT     H221672   4.948   5.556   8.458
 7144WAT      O21673   2.072   6.355   4.994
 7144WAT     H121674   2.031   6.439   5.028
 7144WAT     H221675   2.166   6.373   4.965
 7145WAT      O21676   2.020   0.564   8.321
 7145WAT     H121677   2.064   0.622   8.253
 7145WAT     H221678   1.927   0.599   8.339
 7146WAT      O21679   6.926   2.066   7.793
 7146WAT     H121680   6.949   2.044   7.698
 7146WAT     H221681   6.861   1.998   7.827
 7147WAT      O21682   3.576   4.598   6.422
 7147WAT     H121683   3.543   4.692   6.411
 7147WAT     H221684   3.613   4.566   6.335
 7148WAT      O21685   7.537   5.643   0.815
 7148WAT     H121686   7.611   5.592   0.770
 7148WAT     H221687   7.455   5.586   0.819
 7149WAT      O21688   0.250   1.517   5.845
 7149WAT     H121689   0.268   1.421   5.866
 7149WAT     H221690   0.152   1.531   5.834
 7150WAT      O21691   4.288   2.194   2.014
 7150WAT     H121692   4.276   2.101   1.981
 7150WAT     H221693   4.201   2.230   2.047
 7151WAT      O21694   7.204   0.961   6.245
 7151WAT     H121695   7.129   1.026   6.235
 7151WAT     H221696   7.246   0.944   6.156
 7152WAT      O21697   7.224   7.861   9.534
 7152WAT     H121698   7.240   7.773   9.578
 7152WAT     H221699   7.142   7.855   9.477
 7153WAT      O21700   7.021   5.871   9.677
 7153WAT     H121701   7.106   5.831   9.643
 7153WAT     H221702   6.951   5.801   9.685
 7154WAT      O21703   4.719   2.324   8.463
 7154WAT     H121704   4.697   2.228   8.475
 7154WAT     H221705   4.668   2.379   8.529
 7155WAT      O21706   7.448   1.265   5.224
 7155WAT     H121707   7.521   1.333   5.224
 7155WAT     H221708   7.395   1.272   5.309
 7156WAT      O21709   5.813   8.284   3.580
 7156WAT     H121710   5.818   8.344   3.500
 7156WAT     H221711   5.873   8.205   3.567
 7157WAT      O21712   9.180   8.022   1.478
 7157WAT     H121713   9.207   8.119   1.472
 7157WAT     H221714   9.226   7.970   1.406
 7158WAT      O21715   4.173   9.706   8.028
 7158WAT     H121716   4.267   9.709   8.062
 7158WAT     H221717   4.155   9.788   7.975
 7159WAT      O21718   9.074   2.399   0.458
 7159WAT     H121719   9.008   2.375   0.387
 7159WAT     H221720   9.026   2.425   0.542
 7160WAT      O21721   8.450   8.104   0.126
 7160WAT     H121722   8.409   8.040   0.190
 7160WAT     H221723   8.549   8.100   0.134
 7161WAT      O21724   4.496   9.045   1.869
 7161WAT     H121725   4.469   9.094   1.786
 7161WAT     H221726   4.507   8.948   1.849
 7162WAT      O21727   1.296   7.751   8.159
 7162WAT     H121728   1.301   7.816   8.083
 7162WAT     H221729   1.335   7.792   8.241
 7163WAT      O21730   4.804   7.549   1.033
 7163WAT     H121731   4.709   7.545   1.062
 7163WAT     H221732   4.821   7.634   0.982
 7164WAT      O21733   2.925   3.449   8.761
 7164WAT     H121734   2.833   3.487   8.753
 7164WAT     H221735   2.992   3.524   8.755
 7165WAT      O21736   4.178   3.231   2.798
 7165WAT     H121737   4.090   3.276   2.815
 7165WAT     H221738   4.242   3.297   2.759
 7166WAT      O21739   9.791   1.645   5.559
 7166WAT     H121740   9.710   1.605   5.516
 7166WAT     H221741   9.851   1.681   5.487
 7167WAT      O21742   9.001   7.822   5.985
 7167WAT     H121743   8.931   7.844   6.052
 7167WAT     H221744   8.957   7.789   5.901
 7168WAT      O21745   1.076   7.662   9.319
 7168WAT     H121746   1.141   7.676   9.392
 7168WAT     H221747   1.027   7.747   9.300
 7169WAT      O21748   9.326   6.898   1.127
 7169WAT     H121749   9.291   6.911   1.220
 7169WAT     H221750   9.425   6.905   1.127
 7170WAT      O21751   8.628   9.659   8.375
 7170WAT     H121752   8.683   9.692   8.451
 7170WAT     H221753   8.609   9.734   8.312
 7171WAT      O21754   5.944   6.219   3.716
 7171WAT     H121755   5.904   6.261   3.798
 7171WAT     H221756   6.018   6.157   3.744
 7172WAT      O21757   6.886   8.682   9.430
 7172WAT     H121758   6.813   8.700   9.365
 7172WAT     H221759   6.975   8.693   9.384
 7173WAT      O21760   4.471   3.803   8.396
 7173WAT     H121761   4.559   3.822   8.439
 7173WAT     H221762   4.409   3.880   8.411
 7174WAT      O21763   9.838   8.801   9.202
 7174WAT     H121764   9.832   8.770   9.296
 7174WAT     H221765   9.909   8.749   9.153
 7175WAT      O21766   9.873   1.981   5.442
 7175WAT     H121767   9.936   2.043   5.489
 7175WAT     H221768   9.900   1.886   5.461
 7176WAT      O21769   8.933   6.301   5.843
 7176WAT     H121770   8.835   6.289   5.860
 7176WAT     H221771   8.975   6.212   5.827
 7177WAT      O21772   8.647   4.821   2.510
 7177WAT     H121773   8.578   4.886   2.540
 7177WAT     H221774   8.603   4.745   2.461
 7178WAT      O21775   7.223   7.181   9.880
 7178WAT     H121776   7.228   7.159   9.783
 7178WAT     H221777   7.127   7.194   9.907
 7179WAT      O21778   6.882   8.038   5.448
 7179WAT     H121779   6.875   7.939   5.434
 7179WAT     H221780   6.924   8.081   5.368
 7180WAT      O21781   9.699   6.568   0.278
 7180WAT     H121782   9.612   6.519   0.288
 7180WAT     H221783   9.714   6.589   0.182
 7181WAT      O21784   2.180   8.062   9.327
 7181WAT     H121785   2.228   8.133   9.378
 7181WAT     H221786   2.134   8.000   9.391
 7182WAT      O21787   8.003   5.385   5.630
 7182WAT     H121788   8.028   5.444   5.553
 7182WAT     H221789   7.904   5.373   5.632
 7183WAT      O21790   1.120   7.340   2.353
 7183WAT     H121791   1.118   7.434   2.386
 7183WAT     H221792   1.028   7.312   2.326
 7184WAT      O21793   2.848   1.999   4.876
 7184WAT     H121794   2.812   2.091   4.892
 7184WAT     H221795   2.797   1.956   4.801
 7185WAT      O21796   0.364   4.944   3.838
 7185WAT     H121797   0.304   4.902   3.906
 7185WAT     H221798   0.450   4.894   3.834
 7186WAT      O21799   7.247   8.966   7.019
 7186WAT     H121800   7.293   8.896   6.964
 7186WAT     H221801   7.150   8.968   6.997
 7187WAT      O21802   4.186   0.323   4.289
 7187WAT     H121803   4.245   0.403   4.276
 7187WAT     H221804   4.242   0.243   4.312
 7188WAT      O21805   6.259   9.158   5.283
 7188WAT     H121806   6.218   9.131   5.370
 7188WAT     H221807   6.350   9.197   5.299
 7189WAT      O21808   4.575   3.295   2.333
 7189WAT     H121809   4.481   3.272   2.360
 7189WAT     H221810   4.589   3.268   2.238
 7190WAT      O21811   5.431   0.722   6.741
 7190WAT     H121812   5.448   0.809   6.694
 7190WAT     H221813   5.373   0.738   6.821
 7191WAT      O21814   5.647   1.858   4.586
 7191WAT     H121815   5.612   1.765   4.574
 7191WAT     H221816   5.656   1.901   4.496
 7192WAT      O21817   2.294   6.013   8.705
 7192WAT     H121818   2.211   6.062   8.677
 7192WAT     H221819   2.372   6.075   8.701
 7193WAT      O21820   4.987   7.660   0.720
 7193WAT     H121821   4.959   7.564   0.728
 7193WAT     H221822   4.938   7.715   0.787
 7194WAT      O21823   0.059   6.828   6.294
 7194WAT     H121824   0.093   6.749   6.345
 7194WAT     H221825   0.137   6.877   6.254
 7195WAT      O21826   4.111   6.560   4.616
 7195WAT     H121827   4.181   6.620   4.654
 7195WAT     H221828   4.038   6.547   4.684
 7196WAT      O21829   5.725   2.110   6.099
 7196WAT     H121830   5.695   2.023   6.059
 7196WAT     H221831   5.696   2.114   6.194
 7197WAT      O21832   1.472   5.922   2.317
 7197WAT     H121833   1.491   5.824   2.317
 7197WAT     H221834   1.402   5.943   2.385
 7198WAT      O21835   1.579   3.759   7.773
 7198WAT     H121836   1.510   3.751   7.845
 7198WAT     H221837   1.551   3.829   7.707
 7199WAT      O21838   2.012   8.464   6.726
 7199WAT     H121839   2.004   8.367   6.703
 7199WAT     H221840   1.999   8.519   6.643
 7200WAT      O21841   7.794   9.243   5.287
 7200WAT     H121842   7.745   9.193   5.216
 7200WAT     H221843   7.849   9.316   5.244
 7201WAT      O21844   9.557   3.652   4.226
 7201WAT     H121845   9.635   3.593   4.245
 7201WAT     H221846   9.564   3.735   4.282
 7202WAT      O21847   7.522   7.416   9.172
 7202WAT     H121848   7.440   7.448   9.220
 7202WAT     H221849   7.569   7.348   9.229
 7203WAT      O21850   3.893   2.399   5.972
 7203WAT     H121851   3.804   2.395   6.019
 7203WAT     H221852   3.889   2.468   5.900
 7204WAT      O21853   9.175   9.404   7.586
 7204WAT     H121854   9.262   9.450   7.604
 7204WAT     H221855   9.129   9.383   7.672
 7205WAT      O21856   3.884   0.973   2.094
 7205WAT     H121857   3.951   0.926   2.038
 7205WAT     H221858   3.928   1.007   2.178
 7206WAT      O21859   3.495   0.106   9.892
 7206WAT     H121860   3.403   0.135   9.916
 7206WAT     H221861   3.491   0.021   9.840
 7207WAT      O21862   3.976   4.791   4.639
 7207WAT     H121863   3.938   4.794   4.547
 7207WAT     H221864   3.905   4.761   4.703
 7208WAT      O21865   0.417   9.655   5.303
 7208WAT     H121866   0.390   9.570   5.350
 7208WAT     H221867   0.337   9.695   5.259
 7209WAT      O21868   9.691   9.454   8.054
 7209WAT     H121869   9.728   9.367   8.089
 7209WAT     H221870   9.591   9.449   8.053
 7210WAT      O21871   7.071   1.632   6.994
 7210WAT     H121872   7.065   1.562   6.923
 7210WAT     H221873   7.148   1.692   6.975
 7211WAT      O21874   7.116   1.495   3.347
 7211WAT     H121875   7.049   1.562   3.378
 7211WAT     H221876   7.162   1.530   3.265
 7212WAT      O21877   4.889   5.832   8.240
 7212WAT     H121878   4.941   5.879   8.311
 7212WAT     H221879   4.849   5.899   8.177
 7213WAT      O21880   9.795   2.838   4.890
 7213WAT     H121881   9.890   2.829   4.919
 7213WAT     H221882   9.746   2.899   4.952
 7214WAT      O21883   5.692   8.085   1.573
 7214WAT     H121884   5.705   7.989   1.548
 7214WAT     H221885   5.761   8.113   1.639
 7215WAT      O21886   8.841   0.819   4.082
 7215WAT     H121887   8.855   0.795   3.986
 7215WAT     H221888   8.746   0.847   4.096
 7216WAT      O21889   1.804   0.951   1.470
 7216WAT     H121890   1.758   0.949   1.559
 7216WAT     H221891   1.814   1.046   1.439
 7217WAT      O21892   1.596   9.031   5.390
 7217WAT     H121893   1.581   8.962   5.461
 7217WAT     H221894   1.573   9.121   5.427
 7218WAT      O21895   7.729   8.195   5.942
 7218WAT     H121896   7.645   8.250   5.938
 7218WAT     H221897   7.806   8.254   5.968
 7219WAT      O21898   5.286   4.823   0.071
 7219WAT     H121899   5.311   4.875  -0.011
 7219WAT     H221900   5.195   4.851   0.102
 7220WAT      O21901   0.727   1.478   1.912
 7220WAT     H121902   0.639   1.431   1.915
 7220WAT     H221903   0.715   1.574   1.934
 7221WAT      O21904   6.628   3.351   8.276
 7221WAT     H121905   6.569   3.431   8.275
 7221WAT     H221906   6.692   3.357   8.353
 7222WAT      O21907   0.367   4.263   9.611
 7222WAT     H121908   0.287   4.254   9.671
 7222WAT     H221909   0.377   4.359   9.584
 7223WAT      O21910   4.210   0.023   6.384
 7223WAT     H121911   4.155   0.061   6.459
 7223WAT     H221912   4.295   0.075   6.375
 7224WAT      O21913   9.204   0.834   0.914
 7224WAT     H121914   9.286   0.888   0.899
 7224WAT     H221915   9.220   0.768   0.988
 7225WAT      O21916   9.319   7.473   2.066
 7225WAT     H121917   9.255   7.499   1.994
 7225WAT     H221918   9.317   7.374   2.078
 7226WAT      O21919   5.943   3.017   4.525
 7226WAT     H121920   6.037   2.985   4.508
 7226WAT     H221921   5.940   3.066   4.612
 7227WAT      O21922   5.113   0.161   2.223
 7227WAT     H121923   5.140   0.095   2.293
 7227WAT     H221924   5.075   0.113   2.144
 7228WAT      O21925   6.196   2.278   7.724
 7228WAT     H121926   6.213   2.351   7.790
 7228WAT     H221927   6.235   2.192   7.758
 7229WAT      O21928   8.957   0.715   6.311
 7229WAT     H121929   8.996   0.636   6.262
 7229WAT     H221930   8.981   0.799   6.262
 7230WAT      O21931   8.740   8.113   7.632
 7230WAT     H121932   8.676   8.088   7.705
 7230WAT     H221933   8.826   8.145   7.672
 7231WAT      O21934   2.682   5.473   3.689
 7231WAT     H121935   2.627   5.483   3.607
 7231WAT     H221936   2.748   5.548   3.694
 7232WAT      O21937   0.536   4.548   0.068
 7232WAT     H121938   0.501   4.570   0.159
 7232WAT     H221939   0.636   4.553   0.068
 7233WAT      O21940   8.482   2.899   2.171
 7233WAT     H121941   8.572   2.857   2.162
 7233WAT     H221942   8.493   2.997   2.189
 7234WAT      O21943   5.196   6.363   6.655
 7234WAT     H121944   5.288   6.380   6.689
 7234WAT     H221945   5.187   6.268   6.627
 7235WAT      O21946   5.772   5.091   0.063
 7235WAT     H121947   5.801   5.005   0.104
 7235WAT     H221948   5.705   5.135   0.122
 7236WAT      O21949   3.608   1.119   9.196
 7236WAT     H121950   3.620   1.022   9.219
 7236WAT     H221951   3.515   1.133   9.162
 7237WAT      O21952   7.578   4.347   3.206
 7237WAT     H121953   7.528   4.270   3.167
 7237WAT     H221954   7.599   4.413   3.135
 7238WAT      O21955   8.459   0.157   1.967
 7238WAT     H121956   8.505   0.225   2.024
 7238WAT     H221957   8.376   0.125   2.013
 7239WAT      O21958   7.039   2.126   0.639
 7239WAT     H121959   7.057   2.135   0.541
 7239WAT     H221960   7.055   2.031   0.667
 7240WAT      O21961   4.734   3.635   8.733
 7240WAT     H121962   4.637   3.644   8.756
 7240WAT     H221963   4.761   3.709   8.671
 7241WAT      O21964   3.245   9.102   9.791
 7241WAT     H121965   3.229   9.106   9.889
 7241WAT     H221966   3.341   9.119   9.772
 7242WAT      O21967   2.901   3.399   7.454
 7242WAT     H121968   2.852   3.424   7.370
 7242WAT     H221969   2.972   3.468   7.472
 7243WAT      O21970   9.751   7.149   1.735
 7243WAT     H121971   9.843   7.160   1.697
 7243WAT     H221972   9.748   7.064   1.788
 7244WAT      O21973   9.147   9.572   5.336
 7244WAT     H121974   9.188   9.650   5.384
 7244WAT     H221975   9.113   9.602   5.247
 7245WAT      O21976   4.725   7.028   0.787
 7245WAT     H121977   4.706   6.930   0.783
 7245WAT     H221978   4.658   7.078   0.732
 7246WAT      O21979   7.417   7.482   5.711
 7246WAT     H121980   7.345   7.525   5.657
 7246WAT     H221981   7.376   7.429   5.785
 7247WAT      O21982   8.835   7.195   7.010
 7247WAT     H121983   8.859   7.274   7.066
 7247WAT     H221984   8.867   7.111   7.055
 7248WAT      O21985   2.250   4.569   7.387
 7248WAT     H121986   2.270   4.571   7.485
 7248WAT     H221987   2.293   4.648   7.343
 7249WAT      O21988   2.771   6.112   7.804
 7249WAT     H121989   2.761   6.079   7.710
 7249WAT     H221990   2.686   6.156   7.833
 7250WAT      O21991   2.019   0.716   1.801
 7250WAT     H121992   2.071   0.738   1.883
 7250WAT     H221993   2.064   0.755   1.721
 7251WAT      O21994   3.535   9.454   7.878
 7251WAT     H121995   3.535   9.375   7.817
 7251WAT     H221996   3.446   9.500   7.874
 7252WAT      O21997   8.005   0.116   6.062
 7252WAT     H121998   7.957   0.098   6.147
 7252WAT     H221999   7.962   0.065   5.988
 7253WAT      O22000   3.276   5.660   9.063
 7253WAT     H122001   3.248   5.616   9.148
 7253WAT     H222002   3.224   5.744   9.050
 7254WAT      O22003   7.562   5.181   8.570
 7254WAT     H122004   7.547   5.082   8.568
 7254WAT     H222005   7.529   5.221   8.484
 7255WAT      O22006   0.272   3.097   3.267
 7255WAT     H122007   0.280   2.998   3.271
 7255WAT     H222008   0.317   3.137   3.347
 7256WAT      O22009   2.549   1.162   8.991
 7256WAT     H122010   2.452   1.185   8.994
 7256WAT     H222011   2.595   1.200   9.072
 7257WAT      O22012   8.915   2.962   4.968
 7257WAT     H122013   8.830   3.000   5.003
 7257WAT     H222014   8.915   2.863   4.980
 7258WAT      O22015   8.529   5.615   0.303
 7258WAT     H122016   8.562   5.710   0.296
 7258WAT     H222017   8.430   5.614   0.299
 7259WAT      O22018   0.798   3.584   6.241
 7259WAT     H122019   0.719   3.609   6.298
 7259WAT     H222020   0.882   3.600   6.292
 7260WAT      O22021   0.937   7.618   8.650
 7260WAT     H122022   0.987   7.538   8.684
 7260WAT     H222023   0.889   7.593   8.566
 7261WAT      O22024   6.102   8.801   8.964
 7261WAT     H122025   6.152   8.727   9.008
 7261WAT     H222026   6.043   8.846   9.032
 7262WAT      O22027   5.088   6.047   2.376
 7262WAT     H122028   5.083   6.123   2.440
 7262WAT     H222029   5.175   6.050   2.328
 7263WAT      O22030   4.394   8.485   8.460
 7263WAT     H122031   4.316   8.518   8.514
 7263WAT     H222032   4.408   8.546   8.382
 7264WAT      O22033   9.002   4.297   7.272
 7264WAT     H122034   8.993   4.320   7.369
 7264WAT     H222035   9.097   4.271   7.252
 7265WAT      O22036   5.702   3.131   2.222
 7265WAT     H122037   5.688   3.224   2.257
 7265WAT     H222038   5.790   3.127   2.174
 7266WAT      O22039   1.211   6.490   9.164
 7266WAT     H122040   1.201   6.420   9.093
 7266WAT     H222041   1.291   6.545   9.145
 7267WAT      O22042   0.111   2.306   2.055
 7267WAT     H122043   0.122   2.366   2.134
 7267WAT     H222044   0.143   2.353   1.973
 7268WAT      O22045   8.677   2.983   5.064
 7268WAT     H122046   8.619   2.922   5.011
 7268WAT     H222047   8.660   3.078   5.037
 7269WAT      O22048   3.212   4.747   6.069
 7269WAT     H122049   3.260   4.667   6.032
 7269WAT     H222050   3.231   4.827   6.011
 7270WAT      O22051   0.112   4.030   7.383
 7270WAT     H122052   0.177   4.107   7.389
 7270WAT     H222053   0.031   4.051   7.438
 7271WAT      O22054   1.325   8.251   2.066
 7271WAT     H122055   1.354   8.198   2.145
 7271WAT     H222056   1.352   8.346   2.078
 7272WAT      O22057   5.062   5.778   1.413
 7272WAT     H122058   5.002   5.702   1.439
 7272WAT     H222059   5.157   5.748   1.418
 7273WAT      O22060   6.999   9.528   5.016
 7273WAT     H122061   6.990   9.627   5.026
 7273WAT     H222062   7.021   9.487   5.105
 7274WAT      O22063   0.016   7.477   8.753
 7274WAT     H122064  -0.051   7.419   8.705
 7274WAT     H222065   0.044   7.552   8.693
 7275WAT      O22066   7.710   6.045   2.589
 7275WAT     H122067   7.718   6.066   2.687
 7275WAT     H222068   7.648   5.967   2.577
 7276WAT      O22069   2.590   9.206   4.852
 7276WAT     H122070   2.502   9.164   4.875
 7276WAT     H222071   2.663   9.141   4.871
 7277WAT      O22072   8.805   2.891   0.485
 7277WAT     H122073   8.805   2.883   0.585
 7277WAT     H222074   8.836   2.982   0.459
 7278WAT      O22075   1.174   2.830   0.054
 7278WAT     H122076   1.267   2.806   0.080
 7278WAT     H222077   1.156   2.800  -0.040
 7279WAT      O22078   6.900   0.138   7.558
 7279WAT     H122079   6.965   0.066   7.534
 7279WAT     H222080   6.942   0.227   7.543
 7280WAT      O22081   9.667   5.216   3.454
 7280WAT     H122082   9.613   5.161   3.389
 7280WAT     H222083   9.714   5.289   3.404
 7281WAT      O22084   1.947   1.971   4.012
 7281WAT     H122085   1.858   2.001   4.046
 7281WAT     H222086   1.940   1.876   3.983
 7282WAT      O22087   4.533   2.092   6.306
 7282WAT     H122088   4.520   2.070   6.403
 7282WAT     H222089   4.583   2.178   6.298
 7283WAT      O22090   1.592   5.368   9.141
 7283WAT     H122091   1.517   5.330   9.196
 7283WAT     H222092   1.581   5.341   9.046
 7284WAT      O22093   0.450   0.128   7.604
 7284WAT     H122094   0.436   0.043   7.656
 7284WAT     H222095   0.520   0.183   7.649
 7285WAT      O22096   6.087   4.349   9.021
 7285WAT     H122097   6.091   4.449   9.019
 7285WAT     H222098   6.163   4.313   9.074
 7286WAT      O22099   3.932   0.662   7.609
 7286WAT     H122100   3.860   0.625   7.668
 7286WAT     H222101   3.906   0.754   7.579
 7287WAT      O22102   4.580   0.616   6.616
 7287WAT     H122103   4.494   0.599   6.567
 7287WAT     H222104   4.562   0.612   6.715
 7288WAT      O22105   5.952   4.927   5.969
 7288WAT     H122106   6.042   4.909   5.929
 7288WAT     H222107   5.896   4.978   5.904
 7289WAT      O22108   7.810   2.868   9.099
 7289WAT     H122109   7.839   2.792   9.156
 7289WAT     H222110   7.765   2.937   9.155
 7290WAT      O22111   3.652   9.318   4.084
 7290WAT     H122112   3.740   9.273   4.097
 7290WAT     H222113   3.610   9.336   4.172
 7291WAT      O22114   4.875   1.313   9.872
 7291WAT     H122115   4.794   1.335   9.820
 7291WAT     H222116   4.860   1.228   9.923
 7292WAT      O22117   6.509   7.369   3.805
 7292WAT     H122118   6.423   7.366   3.856
 7292WAT     H222119   6.494   7.418   3.718
 7293WAT      O22120   3.015   6.263   4.652
 7293WAT     H122121   2.937   6.204   4.633
 7293WAT     H222122   3.092   6.208   4.685
 7294WAT      O22123   2.225   3.457   7.707
 7294WAT     H122124   2.168   3.480   7.786
 7294WAT     H222125   2.259   3.541   7.665
 7295WAT      O22126   1.191   3.193   5.997
 7295WAT     H122127   1.275   3.153   5.960
 7295WAT     H222128   1.172   3.279   5.951
 7296WAT      O22129   1.297   5.060   4.414
 7296WAT     H122130   1.260   5.051   4.507
 7296WAT     H222131   1.232   5.024   4.348
 7297WAT      O22132   4.595   8.058   0.134
 7297WAT     H122133   4.608   7.979   0.193
 7297WAT     H222134   4.622   8.034   0.040
 7298WAT      O22135   2.267   1.128   6.843
 7298WAT     H122136   2.324   1.189   6.899
 7298WAT     H222137   2.292   1.033   6.862
 7299WAT      O22138   6.647   5.973   5.129
 7299WAT     H122139   6.698   6.054   5.160
 7299WAT     H222140   6.577   5.950   5.196
 7300WAT      O22141   1.668   3.739   0.095
 7300WAT     H122142   1.715   3.790   0.023
 7300WAT     H222143   1.722   3.659   0.122
 7301WAT      O22144   6.615   4.117   9.390
 7301WAT     H122145   6.593   4.024   9.360
 7301WAT     H222146   6.697   4.149   9.343
 7302WAT      O22147   1.961   6.419   3.194
 7302WAT     H122148   1.918   6.333   3.222
 7302WAT     H222149   1.891   6.490   3.191
 7303WAT      O22150   5.534   8.767   0.287
 7303WAT     H122151   5.441   8.733   0.304
 7303WAT     H222152   5.535   8.867   0.296
 7304WAT      O22153   6.759   8.876   5.839
 7304WAT     H122154   6.801   8.819   5.910
 7304WAT     H222155   6.828   8.934   5.797
 7305WAT      O22156   5.372   1.563   4.765
 7305WAT     H122157   5.413   1.586   4.676
 7305WAT     H222158   5.344   1.646   4.811
 7306WAT      O22159   4.647   4.998   2.755
 7306WAT     H122160   4.660   4.914   2.807
 7306WAT     H222161   4.723   5.060   2.771
 7307WAT      O22162   7.235   5.819   2.172
 7307WAT     H122163   7.272   5.851   2.085
 7307WAT     H222164   7.305   5.828   2.243
 7308WAT      O22165   7.940   8.010   5.828
 7308WAT     H122166   7.984   7.935   5.878
 7308WAT     H222167   7.845   8.020   5.859
 7309WAT      O22168   2.671   3.962   8.928
 7309WAT     H122169   2.660   3.877   8.979
 7309WAT     H222170   2.747   4.014   8.967
 7310WAT      O22171   6.043   1.868   5.813
 7310WAT     H122172   6.128   1.920   5.807
 7310WAT     H222173   5.988   1.884   5.731
 7311WAT      O22174   5.826   1.554   2.446
 7311WAT     H122175   5.848   1.649   2.426
 7311WAT     H222176   5.902   1.495   2.417
 7312WAT      O22177   5.630   7.336   3.451
 7312WAT     H122178   5.688   7.406   3.408
 7312WAT     H222179   5.642   7.249   3.403
 7313WAT      O22180   2.437   1.154   1.782
 7313WAT     H122181   2.470   1.086   1.848
 7313WAT     H222182   2.475   1.133   1.691
 7314WAT      O22183   5.540   4.698   6.437
 7314WAT     H122184   5.588   4.785   6.430
 7314WAT     H222185   5.543   4.665   6.532
 7315WAT      O22186   0.113   3.857   1.149
 7315WAT     H122187   0.163   3.776   1.178
 7315WAT     H222188   0.083   3.846   1.055
 7316WAT      O22189   8.666   1.621   1.659
 7316WAT     H122190   8.597   1.691   1.682
 7316WAT     H222191   8.757   1.659   1.672
 7317WAT      O22192   4.109   7.402   5.995
 7317WAT     H122193   4.041   7.469   5.966
 7317WAT     H222194   4.064   7.318   6.025
 7318WAT      O22195   4.764   3.854   7.083
 7318WAT     H122196   4.702   3.840   7.160
 7318WAT     H222197   4.722   3.819   7.000
 7319WAT      O22198   1.973   3.386   6.846
 7319WAT     H122199   2.025   3.321   6.790
 7319WAT     H222200   1.927   3.452   6.787
 7320WAT      O22201   2.557   4.847   5.092
 7320WAT     H122202   2.560   4.893   5.181
 7320WAT     H222203   2.549   4.749   5.105
 7321WAT      O22204   9.819   3.819   3.504
 7321WAT     H122205   9.904   3.786   3.546
 7321WAT     H222206   9.753   3.744   3.499
 7322WAT      O22207   8.664   7.675   8.330
 7322WAT     H122208   8.657   7.693   8.429
 7322WAT     H222209   8.667   7.762   8.281
 7323WAT      O22210   8.869   3.006   1.371
 7323WAT     H122211   8.956   3.040   1.408
 7323WAT     H222212   8.799   3.007   1.442
 7324WAT      O22213   0.512   8.479   5.832
 7324WAT     H122214   0.426   8.435   5.803
 7324WAT     H222215   0.557   8.517   5.752
 7325WAT      O22216   2.790   1.670   4.188
 7325WAT     H122217   2.792   1.621   4.275
 7325WAT     H222218   2.821   1.764   4.202
 7326WAT      O22219   3.998   1.097   6.130
 7326WAT     H122220   4.040   1.187   6.139
 7326WAT     H222221   3.990   1.055   6.221
 7327WAT      O22222   9.770   3.566   0.581
 7327WAT     H122223   9.671   3.550   0.575
 7327WAT     H222224   9.808   3.568   0.488
 7328WAT      O22225   7.048   4.411   8.164
 7328WAT     H122226   7.075   4.354   8.087
 7328WAT     H222227   6.949   4.408   8.175
 7329WAT      O22228   9.751   6.689   8.261
 7329WAT     H122229   9.662   6.681   8.306
 7329WAT     H222230   9.814   6.738   8.321
 7330WAT      O22231   7.628   8.463   2.150
 7330WAT     H122232   7.670   8.404   2.081
 7330WAT     H222233   7.622   8.413   2.236
 7331WAT      O22234   7.390   4.041   2.692
 7331WAT     H122235   7.457   4.020   2.763
 7331WAT     H222236   7.366   3.957   2.643
 7332WAT      O22237   0.643   0.695   0.752
 7332WAT     H122238   0.680   0.747   0.675
 7332WAT     H222239   0.688   0.725   0.837
 7333WAT      O22240   1.841   8.364   8.417
 7333WAT     H122241   1.837   8.464   8.409
 7333WAT     H222242   1.796   8.337   8.503
 7334WAT      O22243   3.516   1.452   4.877
 7334WAT     H122244   3.422   1.420   4.871
 7334WAT     H222245   3.518   1.552   4.875
 7335WAT      O22246   8.324   6.156   6.819
 7335WAT     H122247   8.230   6.180   6.794
 7335WAT     H222248   8.335   6.164   6.918
 7336WAT      O22249   5.360   5.892   9.554
 7336WAT     H122250   5.273   5.921   9.594
 7336WAT     H222251   5.374   5.939   9.467
 7337WAT      O22252   1.518   0.502   0.052
 7337WAT     H122253   1.588   0.570   0.072
 7337WAT     H222254   1.554   0.411   0.071
 7338WAT      O22255   6.636   6.576   6.990
 7338WAT     H122256   6.577   6.531   6.923
 7338WAT     H222257   6.731   6.553   6.972
 7339WAT      O22258   9.241   7.577   1.188
 7339WAT     H122259   9.279   7.586   1.280
 7339WAT     H222260   9.250   7.482   1.158
 7340WAT      O22261   2.776   3.765   5.535
 7340WAT     H122262   2.827   3.751   5.450
 7340WAT     H222263   2.704   3.833   5.520
 7341WAT      O22264   2.723   2.618   0.554
 7341WAT     H122265   2.668   2.691   0.513
 7341WAT     H222266   2.712   2.620   0.653
 7342WAT      O22267   6.717   1.689   4.176
 7342WAT     H122268   6.703   1.602   4.224
 7342WAT     H222269   6.640   1.750   4.195
 7343WAT      O22270   4.581   9.209   6.865
 7343WAT     H122271   4.605   9.238   6.957
 7343WAT     H222272   4.488   9.172   6.864
 7344WAT      O22273   1.748   2.133   5.738
 7344WAT     H122274   1.666   2.188   5.720
 7344WAT     H222275   1.822   2.163   5.678
 7345WAT      O22276   6.536   0.766   9.107
 7345WAT     H122277   6.510   0.818   9.026
 7345WAT     H222278   6.455   0.749   9.163
 7346WAT      O22279   5.179   0.958   0.590
 7346WAT     H122280   5.201   1.048   0.628
 7346WAT     H222281   5.260   0.920   0.544
 7347WAT      O22282   9.276   8.614   8.037
 7347WAT     H122283   9.232   8.686   7.983
 7347WAT     H222284   9.273   8.638   8.134
 7348WAT      O22285   3.759   7.998   7.023
 7348WAT     H122286   3.678   8.056   7.026
 7348WAT     H222287   3.790   7.987   6.929
 7349WAT      O22288   9.031   5.231   0.104
 7349WAT     H122289   8.934   5.222   0.129
 7349WAT     H222290   9.078   5.282   0.176
 7350WAT      O22291   7.985   0.353   3.754
 7350WAT     H122292   8.044   0.272   3.757
 7350WAT     H222293   7.983   0.396   3.844
 7351WAT      O22294   4.520   3.486   3.943
 7351WAT     H122295   4.516   3.386   3.954
 7351WAT     H222296   4.574   3.526   4.017
 7352WAT      O22297   8.780   4.324   9.647
 7352WAT     H122298   8.729   4.287   9.570
 7352WAT     H222299   8.833   4.250   9.690
 7353WAT      O22300   7.665   5.675   7.726
 7353WAT     H122301   7.572   5.675   7.761
 7353WAT     H222302   7.663   5.663   7.626
 7354WAT      O22303   8.356   8.978   7.891
 7354WAT     H122304   8.285   9.021   7.835
 7354WAT     H222305   8.432   8.950   7.833
 7355WAT      O22306   4.104   8.624   2.327
 7355WAT     H122307   4.087   8.529   2.300
 7355WAT     H222308   4.047   8.647   2.405
 7356WAT      O22309   0.365   1.796   9.242
 7356WAT     H122310   0.412   1.878   9.274
 7356WAT     H222311   0.421   1.751   9.172
 7357WAT      O22312   2.536   2.871   2.036
 7357WAT     H122313   2.543   2.961   1.992
 7357WAT     H222314   2.612   2.813   2.007
 7358WAT      O22315   3.822   2.020   2.481
 7358WAT     H122316   3.829   2.024   2.381
 7358WAT     H222317   3.725   2.022   2.507
 7359WAT      O22318   4.805   1.456   2.307
 7359WAT     H122319   4.724   1.399   2.292
 7359WAT     H222320   4.784   1.551   2.283
 7360WAT      O22321   0.592   4.713   9.439
 7360WAT     H122322   0.651   4.778   9.486
 7360WAT     H222323   0.575   4.745   9.345
 7361WAT      O22324   1.033   9.426   0.998
 7361WAT     H122325   0.972   9.500   0.971
 7361WAT     H222326   1.096   9.405   0.923
 7362WAT      O22327   9.826   4.462   2.678
 7362WAT     H122328   9.733   4.459   2.716
 7362WAT     H222329   9.824   4.505   2.588
 7363WAT      O22330   7.573   2.002   8.654
 7363WAT     H122331   7.588   2.099   8.632
 7363WAT     H222332   7.661   1.954   8.651
 7364WAT      O22333   4.229   0.515   3.983
 7364WAT     H122334   4.154   0.450   3.987
 7364WAT     H222335   4.254   0.542   4.076
 7365WAT      O22336   2.383   1.616   1.568
 7365WAT     H122337   2.356   1.557   1.644
 7365WAT     H222338   2.482   1.628   1.568
 7366WAT      O22339   2.212   9.399   1.711
 7366WAT     H122340   2.285   9.460   1.678
 7366WAT     H222341   2.128   9.452   1.724
 7367WAT      O22342   2.853   2.208   8.157
 7367WAT     H122343   2.800   2.293   8.151
 7367WAT     H222344   2.816   2.151   8.230
 7368WAT      O22345   5.344   9.467   1.339
 7368WAT     H122346   5.338   9.509   1.249
 7368WAT     H222347   5.438   9.439   1.356
 7369WAT      O22348   9.493   9.714   4.271
 7369WAT     H122349   9.440   9.670   4.344
 7369WAT     H222350   9.530   9.643   4.210
 7370WAT      O22351   9.425   7.777   0.480
 7370WAT     H122352   9.503   7.734   0.525
 7370WAT     H222353   9.341   7.731   0.509
 7371WAT      O22354   6.863   3.990   1.397
 7371WAT     H122355   6.864   3.960   1.492
 7371WAT     H222356   6.922   4.070   1.386
 7372WAT      O22357   9.199   2.956   6.436
 7372WAT     H122358   9.179   2.859   6.447
 7372WAT     H222359   9.291   2.975   6.468
 7373WAT      O22360   8.553   8.974   7.114
 7373WAT     H122361   8.501   8.915   7.052
 7373WAT     H222362   8.607   9.039   7.059
 7374WAT      O22363   8.241   9.715   6.769
 7374WAT     H122364   8.273   9.809   6.778
 7374WAT     H222365   8.232   9.673   6.859
 7375WAT      O22366   4.648   1.801   8.570
 7375WAT     H122367   4.568   1.750   8.600
 7375WAT     H222368   4.719   1.736   8.540
 7376WAT      O22369   9.789   1.204   5.272
 7376WAT     H122370   9.805   1.302   5.261
 7376WAT     H222371   9.867   1.163   5.319
 7377WAT      O22372   2.045   5.187   9.549
 7377WAT     H122373   2.057   5.286   9.545
 7377WAT     H222374   1.957   5.163   9.508
 7378WAT      O22375   1.085   3.123   0.789
 7378WAT     H122376   1.111   3.168   0.874
 7378WAT     H222377   1.121   3.029   0.789
 7379WAT      O22378   9.765   7.837   9.174
 7379WAT     H122379   9.859   7.869   9.160
 7379WAT     H222380   9.737   7.781   9.096
 7380WAT      O22381   1.398   8.322   0.133
 7380WAT     H122382   1.381   8.224   0.133
 7380WAT     H222383   1.477   8.342   0.192
 7381WAT      O22384   0.497   6.421   7.396
 7381WAT     H122385   0.540   6.334   7.419
 7381WAT     H222386   0.443   6.453   7.474
 7382WAT      O22387   0.096   8.140   6.069
 7382WAT     H122388   0.074   8.238   6.066
 7382WAT     H222389   0.016   8.089   6.101
 7383WAT      O22390   5.209   4.127   7.932
 7383WAT     H122391   5.260   4.041   7.940
 7383WAT     H222392   5.114   4.111   7.959
 7384WAT      O22393   8.558   8.621   9.393
 7384WAT     H122394   8.610   8.544   9.429
 7384WAT     H222395   8.606   8.706   9.412
 7385WAT      O22396   6.330   2.872   4.105
 7385WAT     H122397   6.423   2.837   4.121
 7385WAT     H222398   6.312   2.876   4.007
 7386WAT      O22399   2.668   3.881   3.847
 7386WAT     H122400   2.634   3.948   3.913
 7386WAT     H222401   2.592   3.842   3.796
 7387WAT      O22402   1.684   5.449   6.120
 7387WAT     H122403   1.783   5.435   6.119
 7387WAT     H222404   1.641   5.386   6.185
 7388WAT      O22405   1.938   0.157   4.949
 7388WAT     H122406   1.997   0.221   4.901
 7388WAT     H222407   1.990   0.077   4.977
 7389WAT      O22408   3.973   1.262   3.278
 7389WAT     H122409   4.004   1.281   3.372
 7389WAT     H222410   3.903   1.328   3.252
 7390WAT      O22411   8.768   7.657   4.586
 7390WAT     H122412   8.845   7.602   4.619
 7390WAT     H222413   8.711   7.683   4.664
 7391WAT      O22414   7.063   7.183   6.245
 7391WAT     H122415   7.115   7.226   6.318
 7391WAT     H222416   7.121   7.174   6.164
 7392WAT      O22417   1.105   9.781   7.256
 7392WAT     H122418   1.100   9.880   7.270
 7392WAT     H222419   1.093   9.735   7.344
 7393WAT      O22420   1.432   2.641   1.337
 7393WAT     H122421   1.421   2.691   1.423
 7393WAT     H222422   1.515   2.673   1.290
 7394WAT      O22423   4.833   8.940   8.043
 7394WAT     H122424   4.761   8.884   8.083
 7394WAT     H222425   4.910   8.947   8.107
 7395WAT      O22426   4.798   0.741   7.629
 7395WAT     H122427   4.875   0.802   7.610
 7395WAT     H222428   4.712   0.788   7.608
 7396WAT      O22429   3.694   5.845   3.877
 7396WAT     H122430   3.691   5.849   3.777
 7396WAT     H222431   3.642   5.921   3.915
 7397WAT      O22432   8.218   0.280   4.434
 7397WAT     H122433   8.296   0.343   4.430
 7397WAT     H222434   8.232   0.215   4.508
 7398WAT      O22435   9.227   9.817   5.474
 7398WAT     H122436   9.154   9.845   5.536
 7398WAT     H222437   9.291   9.893   5.460
 7399WAT      O22438   5.831   5.382   1.523
 7399WAT     H122439   5.841   5.327   1.606
 7399WAT     H222440   5.861   5.476   1.541
 7400WAT      O22441   0.745   8.881   8.666
 7400WAT     H122442   0.825   8.900   8.610
 7400WAT     H222443   0.774   8.859   8.759
 7401WAT      O22444   4.478   6.583   1.902
 7401WAT     H122445   4.527   6.666   1.876
 7401WAT     H222446   4.518   6.546   1.986
 7402WAT      O22447   7.109   5.571   3.711
 7402WAT     H122448   7.103   5.546   3.808
 7402WAT     H222449   7.082   5.492   3.655
 7403WAT      O22450   3.660   5.142   0.772
 7403WAT     H122451   3.689   5.069   0.709
 7403WAT     H222452   3.602   5.207   0.723
 7404WAT      O22453   9.019   2.699   2.464
 7404WAT     H122454   8.935   2.752   2.454
 7404WAT     H222455   9.027   2.667   2.559
 7405WAT      O22456   8.547   6.409   0.042
 7405WAT     H122457   8.474   6.399  -0.025
 7405WAT     H222458   8.516   6.467   0.117
 7406WAT      O22459   1.075   4.645   3.212
 7406WAT     H122460   1.073   4.571   3.145
 7406WAT     H222461   1.096   4.608   3.303
 7407WAT      O22462   1.062   4.266   3.514
 7407WAT     H122463   1.160   4.251   3.506
 7407WAT     H222464   1.019   4.184   3.553
 7408WAT      O22465   3.922   0.819   0.415
 7408WAT     H122466   3.870   0.837   0.498
 7408WAT     H222467   3.999   0.759   0.435
 7409WAT      O22468   0.140   7.505   1.071
 7409WAT     H122469   0.115   7.571   1.142
 7409WAT     H222470   0.100   7.416   1.093
 7410WAT      O22471   4.000   5.446   6.054
 7410WAT     H122472   3.920   5.497   6.023
 7410WAT     H222473   3.975   5.351   6.074
 7411WAT      O22474   4.563   1.381   8.507
 7411WAT     H122475   4.663   1.373   8.511
 7411WAT     H222476   4.530   1.336   8.424
 7412WAT      O22477   3.446   6.535   5.147
 7412WAT     H122478   3.364   6.527   5.090
 7412WAT     H222479   3.515   6.589   5.098
 7413WAT      O22480   7.547   4.798   8.569
 7413WAT     H122481   7.489   4.866   8.614
 7413WAT     H222482   7.609   4.757   8.635
 7414WAT      O22483   9.708   1.888   1.497
 7414WAT     H122484   9.706   1.849   1.405
 7414WAT     H222485   9.803   1.902   1.525
 7415WAT      O22486   2.005   8.813   1.832
 7415WAT     H122487   1.965   8.829   1.741
 7415WAT     H222488   1.961   8.734   1.873
 7416WAT      O22489   4.780   4.903   9.340
 7416WAT     H122490   4.757   4.940   9.430
 7416WAT     H222491   4.775   4.976   9.272
 7417WAT      O22492   3.599   3.470   7.437
 7417WAT     H122493   3.559   3.540   7.497
 7417WAT     H222494   3.597   3.381   7.483
 7418WAT      O22495   1.889   6.692   3.630
 7418WAT     H122496   1.981   6.675   3.667
 7418WAT     H222497   1.821   6.654   3.692
 7419WAT      O22498   6.327   3.695   5.495
 7419WAT     H122499   6.244   3.720   5.446
 7419WAT     H222500   6.374   3.778   5.527
 7420WAT      O22501   6.619   0.469   0.887
 7420WAT     H122502   6.560   0.548   0.907
 7420WAT     H222503   6.709   0.501   0.858
 7421WAT      O22504   7.074   5.427   7.120
 7421WAT     H122505   7.110   5.461   7.207
 7421WAT     H222506   7.044   5.504   7.064
 7422WAT      O22507   6.778   8.756   8.475
 7422WAT     H122508   6.720   8.813   8.533
 7422WAT     H222509   6.795   8.668   8.520
 7423WAT      O22510   5.855   6.787   8.048
 7423WAT     H122511   5.915   6.756   7.974
 7423WAT     H222512   5.809   6.708   8.088
 7424WAT      O22513   4.230   6.415   1.373
 7424WAT     H122514   4.311   6.420   1.431
 7424WAT     H222515   4.152   6.454   1.421
 7425WAT      O22516   3.671   7.172   6.055
 7425WAT     H122517   3.702   7.100   5.992
 7425WAT     H222518   3.746   7.197   6.116
 7426WAT      O22519   4.982   5.863   7.142
 7426WAT     H122520   4.954   5.934   7.207
 7426WAT     H222521   5.058   5.810   7.180
 7427WAT      O22522   4.361   7.558   8.028
 7427WAT     H122523   4.333   7.463   8.012
 7427WAT     H222524   4.283   7.619   8.013
 7428WAT      O22525   0.331   1.775   5.476
 7428WAT     H122526   0.401   1.761   5.405
 7428WAT     H222527   0.243   1.738   5.444
 7429WAT      O22528   3.791   5.496   6.894
 7429WAT     H122529   3.816   5.587   6.862
 7429WAT     H222530   3.705   5.500   6.944
 7430WAT      O22531   1.215   3.943   7.371
 7430WAT     H122532   1.208   4.028   7.318
 7430WAT     H222533   1.195   3.962   7.467
 7431WAT      O22534   3.216   7.958   5.086
 7431WAT     H122535   3.310   7.969   5.120
 7431WAT     H222536   3.167   8.044   5.096
 7432WAT      O22537   3.878   7.085   2.556
 7432WAT     H122538   3.845   6.994   2.584
 7432WAT     H222539   3.900   7.138   2.638
 7433WAT      O22540   8.086   5.973   4.313
 7433WAT     H122541   8.172   5.968   4.363
 7433WAT     H222542   8.089   6.049   4.247
 7434WAT      O22543   1.642   8.888   6.078
 7434WAT     H122544   1.602   8.893   6.170
 7434WAT     H222545   1.607   8.963   6.022
 7435WAT      O22546   9.369   4.854   8.036
 7435WAT     H122547   9.416   4.928   8.084
 7435WAT     H222548   9.278   4.842   8.075
 7436WAT      O22549   2.684   7.626   6.858
 7436WAT     H122550   2.642   7.554   6.804
 7436WAT     H222551   2.758   7.587   6.914
 7437WAT      O22552   3.774   7.328   6.308
 7437WAT     H122553   3.800   7.406   6.250
 7437WAT     H222554   3.696   7.354   6.365
 7438WAT      O22555   2.360   1.529   6.301
 7438WAT     H122556   2.262   1.508   6.296
 7438WAT     H222557   2.378   1.588   6.379
 7439WAT      O22558   0.838   0.028   5.274
 7439WAT     H122559   0.815   0.097   5.206
 7439WAT     H222560   0.890   0.070   5.348
 7440WAT      O22561   9.233   2.507   6.331
 7440WAT     H122562   9.148   2.522   6.280
 7440WAT     H222563   9.283   2.430   6.290
 7441WAT      O22564   4.395   3.693   6.848
 7441WAT     H122565   4.349   3.686   6.760
 7441WAT     H222566   4.342   3.750   6.910
 7442WAT      O22567   6.150   7.560   1.075
 7442WAT     H122568   6.138   7.462   1.057
 7442WAT     H222569   6.122   7.613   0.995
 7443WAT      O22570   5.730   2.710   8.768
 7443WAT     H122571   5.749   2.771   8.690
 7443WAT     H222572   5.693   2.624   8.734
 7444WAT      O22573   2.239   0.006   0.846
 7444WAT     H122574   2.224   0.086   0.905
 7444WAT     H222575   2.187  -0.071   0.882
 7445WAT      O22576   2.843   4.660   6.010
 7445WAT     H122577   2.851   4.623   5.917
 7445WAT     H222578   2.749   4.650   6.042
 7446WAT      O22579   5.989   0.969   4.376
 7446WAT     H122580   5.919   1.035   4.350
 7446WAT     H222581   5.999   0.968   4.475
 7447WAT      O22582   8.554   9.606   3.113
 7447WAT     H122583   8.621   9.618   3.040
 7447WAT     H222584   8.493   9.530   3.090
 7448WAT      O22585   4.905   6.763   1.525
 7448WAT     H122586   4.836   6.828   1.555
 7448WAT     H222587   4.874   6.717   1.442
 7449WAT      O22588   6.670   4.992   6.922
 7449WAT     H122589   6.689   5.015   6.827
 7449WAT     H222590   6.738   4.925   6.954
 7450WAT      O22591   9.726   3.431   2.052
 7450WAT     H122592   9.698   3.490   1.976
 7450WAT     H222593   9.826   3.424   2.054
 7451WAT      O22594   8.988   8.089   3.162
 7451WAT     H122595   8.906   8.146   3.156
 7451WAT     H222596   8.960   7.993   3.169
 7452WAT      O22597   1.914   0.689   1.432
 7452WAT     H122598   2.009   0.679   1.462
 7452WAT     H222599   1.883   0.782   1.452
 7453WAT      O22600   0.380   4.522   3.306
 7453WAT     H122601   0.471   4.492   3.335
 7453WAT     H222602   0.372   4.510   3.207
 7454WAT      O22603   4.863   5.915   9.715
 7454WAT     H122604   4.963   5.915   9.705
 7454WAT     H222605   4.829   5.822   9.704
 7455WAT      O22606   9.404   8.983   9.506
 7455WAT     H122607   9.417   9.064   9.449
 7455WAT     H222608   9.494   8.948   9.534
 7456WAT      O22609   2.683   5.397   0.809
 7456WAT     H122610   2.740   5.367   0.733
 7456WAT     H222611   2.734   5.390   0.895
 7457WAT      O22612   7.240   3.318   8.783
 7457WAT     H122613   7.254   3.413   8.810
 7457WAT     H222614   7.322   3.284   8.737
 7458WAT      O22615   5.613   2.981   9.801
 7458WAT     H122616   5.532   2.984   9.860
 7458WAT     H222617   5.694   3.006   9.855
 7459WAT      O22618   8.832   2.457   9.384
 7459WAT     H122619   8.781   2.535   9.420
 7459WAT     H222620   8.821   2.379   9.445
 7460WAT      O22621   0.939   6.181   1.885
 7460WAT     H122622   0.962   6.187   1.788
 7460WAT     H222623   1.022   6.194   1.940
 7461WAT      O22624   2.629   5.577   7.124
 7461WAT     H122625   2.674   5.508   7.180
 7461WAT     H222626   2.617   5.541   7.031
 7462WAT      O22627   4.756   7.589   8.968
 7462WAT     H122628   4.796   7.498   8.967
 7462WAT     H222629   4.817   7.652   9.017
 7463WAT      O22630   5.718   2.686   6.808
 7463WAT     H122631   5.744   2.773   6.765
 7463WAT     H222632   5.801   2.639   6.838
 7464WAT      O22633   3.880   9.837   9.651
 7464WAT     H122634   3.886   9.928   9.692
 7464WAT     H222635   3.912   9.769   9.717
 7465WAT      O22636   5.069   9.547   4.939
 7465WAT     H122637   5.091   9.636   4.978
 7465WAT     H222638   5.121   9.532   4.855
 7466WAT      O22639   4.619   7.816   6.021
 7466WAT     H122640   4.663   7.735   6.061
 7466WAT     H222641   4.668   7.843   5.939
 7467WAT      O22642   2.557   0.148   8.146
 7467WAT     H122643   2.576   0.072   8.207
 7467WAT     H222644   2.640   0.203   8.134
 7468WAT      O22645   5.294   6.818   4.349
 7468WAT     H122646   5.236   6.838   4.429
 7468WAT     H222647   5.276   6.885   4.277
 7469WAT      O22648   8.073   9.085   3.094
 7469WAT     H122649   8.046   9.080   3.190
 7469WAT     H222650   8.157   9.033   3.081
 7470WAT      O22651   7.469   1.005   9.662
 7470WAT     H122652   7.499   0.910   9.666
 7470WAT     H222653   7.509   1.056   9.737
 7471WAT      O22654   7.429   4.307   1.830
 7471WAT     H122655   7.426   4.401   1.795
 7471WAT     H222656   7.344   4.288   1.879
 7472WAT      O22657   5.130   3.901   6.541
 7472WAT     H122658   5.215   3.851   6.554
 7472WAT     H222659   5.075   3.858   6.470
 7473WAT      O22660   3.223   8.877   7.284
 7473WAT     H122661   3.124   8.885   7.290
 7473WAT     H222662   3.262   8.869   7.376
 7474WAT      O22663   1.502   3.689   1.915
 7474WAT     H122664   1.534   3.643   1.998
 7474WAT     H222665   1.535   3.640   1.834
 7475WAT      O22666   1.654   5.706   0.680
 7475WAT     H122667   1.754   5.703   0.670
 7475WAT     H222668   1.629   5.668   0.769
 7476WAT      O22669   7.207   4.889   3.511
 7476WAT     H122670   7.159   4.969   3.475
 7476WAT     H222671   7.251   4.840   3.436
 7477WAT      O22672   0.172   4.738   7.234
 7477WAT     H122673   0.176   4.694   7.324
 7477WAT     H222674   0.215   4.828   7.238
 7478WAT      O22675   4.607   5.515   2.681
 7478WAT     H122676   4.541   5.523   2.606
 7478WAT     H222677   4.585   5.435   2.737
 7479WAT      O22678   6.407   9.394   1.807
 7479WAT     H122679   6.320   9.385   1.759
 7479WAT     H222680   6.476   9.336   1.763
 7480WAT      O22681   5.695   9.520   2.060
 7480WAT     H122682   5.602   9.540   2.091
 7480WAT     H222683   5.726   9.434   2.101
 7481WAT      O22684   6.690   1.498   5.464
 7481WAT     H122685   6.704   1.483   5.562
 7481WAT     H222686   6.738   1.427   5.412
 7482WAT      O22687   1.628   9.010   4.862
 7482WAT     H122688   1.724   8.987   4.847
 7482WAT     H222689   1.615   9.041   4.956
 7483WAT      O22690   5.613   2.668   1.189
 7483WAT     H122691   5.650   2.587   1.234
 7483WAT     H222692   5.688   2.731   1.166
 7484WAT      O22693   6.809   4.636   3.756
 7484WAT     H122694   6.817   4.583   3.840
 7484WAT     H222695   6.896   4.682   3.737
 7485WAT      O22696   2.969   5.648   7.593
 7485WAT     H122697   2.894   5.704   7.558
 7485WAT     H222698   3.019   5.608   7.517
 7486WAT      O22699   5.672   7.685   9.173
 7486WAT     H122700   5.710   7.777   9.174
 7486WAT     H222701   5.745   7.619   9.194
 7487WAT      O22702   5.551   4.483   4.434
 7487WAT     H122703   5.577   4.516   4.343
 7487WAT     H222704   5.634   4.466   4.488
 7488WAT      O22705   7.465   4.124   3.835
 7488WAT     H122706   7.519   4.040   3.833
 7488WAT     H222707   7.526   4.203   3.827
 7489WAT      O22708   8.446   7.498   1.026
 7489WAT     H122709   8.481   7.405   1.036
 7489WAT     H222710   8.522   7.561   1.011
 7490WAT      O22711   0.704   5.914   4.997
 7490WAT     H122712   0.658   5.913   5.086
 7490WAT     H222713   0.721   6.008   4.969
 7491WAT      O22714   0.456   6.249   7.754
 7491WAT     H122715   0.535   6.190   7.768
 7491WAT     H222716   0.452   6.317   7.828
 7492WAT      O22717   3.651   1.591   3.435
 7492WAT     H122718   3.671   1.576   3.532
 7492WAT     H222719   3.556   1.568   3.416
 7493WAT      O22720   4.333   8.879   4.515
 7493WAT     H122721   4.324   8.886   4.416
 7493WAT     H222722   4.274   8.806   4.549
 7494WAT      O22723   1.975   7.819   9.739
 7494WAT     H122724   2.035   7.740   9.745
 7494WAT     H222725   1.887   7.797   9.782
 7495WAT      O22726   6.289   4.544   5.503
 7495WAT     H122727   6.275   4.448   5.478
 7495WAT     H222728   6.228   4.568   5.579
 7496WAT      O22729   6.405   1.624   5.797
 7496WAT     H122730   6.455   1.687   5.856
 7496WAT     H222731   6.308   1.648   5.797
 7497WAT      O22732   7.496   6.991   1.149
 7497WAT     H122733   7.566   6.925   1.121
 7497WAT     H222734   7.450   7.026   1.068
 7498WAT      O22735   9.830   0.287   9.576
 7498WAT     H122736   9.810   0.385   9.564
 7498WAT     H222737   9.925   0.277   9.607
 7499WAT      O22738   7.737   9.153   2.798
 7499WAT     H122739   7.721   9.102   2.714
 7499WAT     H222740   7.749   9.090   2.874
 7500WAT      O22741   6.913   2.352   0.185
 7500WAT     H122742   6.914   2.448   0.215
 7500WAT     H222743   6.965   2.297   0.249
 7501WAT      O22744   1.045   3.515   3.441
 7501WAT     H122745   1.138   3.479   3.447
 7501WAT     H222746   1.006   3.490   3.352
 7502WAT      O22747   0.339   1.116   7.679
 7502WAT     H122748   0.423   1.099   7.730
 7502WAT     H222749   0.307   1.209   7.699
 7503WAT      O22750   7.043   1.543   9.373
 7503WAT     H122751   7.008   1.456   9.337
 7503WAT     H222752   6.968   1.594   9.416
 7504WAT      O22753   2.546   2.302   6.430
 7504WAT     H122754   2.476   2.340   6.370
 7504WAT     H222755   2.521   2.207   6.453
 7505WAT      O22756   3.906   4.936   9.595
 7505WAT     H122757   3.933   4.853   9.644
 7505WAT     H222758   3.958   4.943   9.510
 7506WAT      O22759   8.800   4.785   8.096
 7506WAT     H122760   8.710   4.794   8.053
 7506WAT     H222761   8.797   4.714   8.166
 7507WAT      O22762   1.871   3.532   6.636
 7507WAT     H122763   1.877   3.500   6.541
 7507WAT     H222764   1.778   3.561   6.656
 7508WAT      O22765   3.190   8.826   5.871
 7508WAT     H122766   3.165   8.833   5.968
 7508WAT     H222767   3.180   8.732   5.841
 7509WAT      O22768   2.816   2.088   5.313
 7509WAT     H122769   2.726   2.090   5.271
 7509WAT     H222770   2.850   2.182   5.321
 7510WAT      O22771   6.489   8.709   4.162
 7510WAT     H122772   6.472   8.788   4.104
 7510WAT     H222773   6.425   8.636   4.138
 7511WAT      O22774   6.319   8.121   9.002
 7511WAT     H122775   6.279   8.033   9.026
 7511WAT     H222776   6.271   8.194   9.050
 7512WAT      O22777   4.399   8.067   2.280
 7512WAT     H122778   4.337   7.992   2.302
 7512WAT     H222779   4.463   8.081   2.356
 7513WAT      O22780   3.584   6.533   0.558
 7513WAT     H122781   3.488   6.560   0.556
 7513WAT     H222782   3.625   6.565   0.644
 7514WAT      O22783   1.120   2.212   0.548
 7514WAT     H122784   1.145   2.295   0.597
 7514WAT     H222785   1.202   2.171   0.508
 7515WAT      O22786   7.905   8.875   0.716
 7515WAT     H122787   7.894   8.807   0.643
 7515WAT     H222788   8.003   8.887   0.736
 7516WAT      O22789   0.227   6.546   3.963
 7516WAT     H122790   0.309   6.534   4.018
 7516WAT     H222791   0.237   6.498   3.876
 7517WAT      O22792   4.093   5.966   3.996
 7517WAT     H122793   4.047   6.049   4.030
 7517WAT     H222794   4.025   5.905   3.955
 7518WAT      O22795   2.375   1.253   9.333
 7518WAT     H122796   2.461   1.276   9.379
 7518WAT     H222797   2.308   1.325   9.351
 7519WAT      O22798   2.516   2.327   6.097
 7519WAT     H122799   2.562   2.412   6.124
 7519WAT     H222800   2.417   2.341   6.096
 7520WAT      O22801   4.335   0.755   5.998
 7520WAT     H122802   4.267   0.829   6.005
 7520WAT     H222803   4.392   0.770   5.917
 7521WAT      O22804   8.271   5.726   4.712
 7521WAT     H122805   8.196   5.792   4.709
 7521WAT     H222806   8.356   5.774   4.736
 7522WAT      O22807   2.174   4.523   1.371
 7522WAT     H122808   2.154   4.589   1.444
 7522WAT     H222809   2.117   4.441   1.384
 7523WAT      O22810   1.425   6.655   4.712
 7523WAT     H122811   1.356   6.711   4.667
 7523WAT     H222812   1.389   6.564   4.727
 7524WAT      O22813   6.875   5.883   5.508
 7524WAT     H122814   6.925   5.843   5.584
 7524WAT     H222815   6.914   5.851   5.422
 7525WAT      O22816   7.291   7.242   2.112
 7525WAT     H122817   7.219   7.230   2.181
 7525WAT     H222818   7.379   7.216   2.151
 7526WAT      O22819   3.500   6.526   9.784
 7526WAT     H122820   3.431   6.585   9.827
 7526WAT     H222821   3.476   6.430   9.800
 7527WAT      O22822   2.767   5.364   7.220
 7527WAT     H122823   2.856   5.319   7.225
 7527WAT     H222824   2.705   5.320   7.286
 7528WAT      O22825   3.220   4.378   9.176
 7528WAT     H122826   3.241   4.311   9.105
 7528WAT     H222827   3.259   4.467   9.152
 7529WAT      O22828   4.283   2.313   5.450
 7529WAT     H122829   4.284   2.396   5.506
 7529WAT     H222830   4.200   2.312   5.394
 7530WAT      O22831   7.307   8.634   9.740
 7530WAT     H122832   7.291   8.536   9.728
 7530WAT     H222833   7.304   8.680   9.652
 7531WAT      O22834   9.534   5.712   0.306
 7531WAT     H122835   9.624   5.724   0.349
 7531WAT     H222836   9.477   5.653   0.363
 7532WAT      O22837   3.847   3.511   7.524
 7532WAT     H122838   3.847   3.509   7.624
 7532WAT     H222839   3.754   3.505   7.490
 7533WAT      O22840   8.207   6.911   6.309
 7533WAT     H122841   8.136   6.854   6.350
 7533WAT     H222842   8.286   6.854   6.287
 7534WAT      O22843   5.618   6.896   7.578
 7534WAT     H122844   5.576   6.813   7.541
 7534WAT     H222845   5.595   6.904   7.675
 7535WAT      O22846   3.955   6.209   2.536
 7535WAT     H122847   3.971   6.148   2.615
 7535WAT     H222848   3.943   6.154   2.454
 7536WAT      O22849   7.537   0.969   0.154
 7536WAT     H122850   7.637   0.973   0.150
 7536WAT     H222851   7.509   0.898   0.218
 7537WAT      O22852   4.505   5.955   2.940
 7537WAT     H122853   4.530   6.047   2.971
 7537WAT     H222854   4.586   5.909   2.903
 7538WAT      O22855   7.260   2.749   5.327
 7538WAT     H122856   7.161   2.750   5.335
 7538WAT     H222857   7.287   2.780   5.236
 7539WAT      O22858   0.513   9.342   4.196
 7539WAT     H122859   0.475   9.252   4.172
 7539WAT     H222860   0.551   9.337   4.288
 7540WAT      O22861   8.864   5.096   9.246
 7540WAT     H122862   8.767   5.112   9.257
 7540WAT     H222863   8.897   5.035   9.318
 7541WAT      O22864   2.596   6.953   2.571
 7541WAT     H122865   2.642   7.022   2.627
 7541WAT     H222866   2.632   6.862   2.595
 7542WAT      O22867   7.723   3.325   8.737
 7542WAT     H122868   7.741   3.336   8.835
 7542WAT     H222869   7.805   3.288   8.693
 7543WAT      O22870   3.476   5.809   2.023
 7543WAT     H122871   3.424   5.885   1.985
 7543WAT     H222872   3.463   5.728   1.966
 7544WAT      O22873   1.807   8.313   4.144
 7544WAT     H122874   1.712   8.335   4.165
 7544WAT     H222875   1.811   8.261   4.059
 7545WAT      O22876   1.268   5.649   3.912
 7545WAT     H122877   1.195   5.686   3.970
 7545WAT     H222878   1.274   5.550   3.926
 7546WAT      O22879   7.851   2.409   6.048
 7546WAT     H122880   7.934   2.379   6.094
 7546WAT     H222881   7.822   2.498   6.084
 7547WAT      O22882   3.239   7.224   9.102
 7547WAT     H122883   3.226   7.136   9.148
 7547WAT     H222884   3.188   7.295   9.151
 7548WAT      O22885   9.506   2.246   6.088
 7548WAT     H122886   9.463   2.254   6.178
 7548WAT     H222887   9.544   2.334   6.061
 7549WAT      O22888   8.922   0.815   2.707
 7549WAT     H122889   8.916   0.858   2.797
 7549WAT     H222890   8.849   0.746   2.699
 7550WAT      O22891   4.149   1.139   8.763
 7550WAT     H122892   4.214   1.099   8.699
 7550WAT     H222893   4.133   1.076   8.839
 7551WAT      O22894   2.728   9.129   3.035
 7551WAT     H122895   2.810   9.165   2.991
 7551WAT     H222896   2.753   9.088   3.123
 7552WAT      O22897   7.294   5.886   6.090
 7552WAT     H122898   7.225   5.847   6.151
 7552WAT     H222899   7.313   5.821   6.016
 7553WAT      O22900   2.533   0.977   8.396
 7553WAT     H122901   2.517   0.894   8.450
 7553WAT     H222902   2.628   0.980   8.366
 7554WAT      O22903   7.439   3.654   2.729
 7554WAT     H122904   7.443   3.580   2.796
 7554WAT     H222905   7.357   3.708   2.745
 7555WAT      O22906   8.704   7.798   1.820
 7555WAT     H122907   8.675   7.771   1.728
 7555WAT     H222908   8.654   7.880   1.847
 7556WAT      O22909   8.198   8.887   6.032
 7556WAT     H122910   8.219   8.981   6.004
 7556WAT     H222911   8.230   8.872   6.125
 7557WAT      O22912   8.346   2.825   3.638
 7557WAT     H122913   8.427   2.883   3.628
 7557WAT     H222914   8.372   2.729   3.631
 7558WAT      O22915   2.887   4.152   3.304
 7558WAT     H122916   2.804   4.108   3.267
 7558WAT     H222917   2.867   4.190   3.394
 7559WAT      O22918   9.629   2.735   9.657
 7559WAT     H122919   9.660   2.719   9.563
 7559WAT     H222920   9.690   2.801   9.701
 7560WAT      O22921   7.555   6.366   4.880
 7560WAT     H122922   7.539   6.273   4.912
 7560WAT     H222923   7.517   6.378   4.788
 7561WAT      O22924   1.513   5.426   4.768
 7561WAT     H122925   1.425   5.432   4.720
 7561WAT     H222926   1.547   5.332   4.763
 7562WAT      O22927   4.608   3.007   9.317
 7562WAT     H122928   4.639   2.914   9.335
 7562WAT     H222929   4.529   3.028   9.374
 7563WAT      O22930   2.448   3.952   9.200
 7563WAT     H122931   2.516   3.883   9.175
 7563WAT     H222932   2.376   3.955   9.131
 7564WAT      O22933   7.674   9.186   8.158
 7564WAT     H122934   7.652   9.122   8.084
 7564WAT     H222935   7.769   9.175   8.185
 7565WAT      O22936   4.712   0.517   1.652
 7565WAT     H122937   4.676   0.486   1.739
 7565WAT     H222938   4.800   0.564   1.666
 7566WAT      O22939   7.263   1.614   3.120
 7566WAT     H122940   7.186   1.574   3.071
 7566WAT     H222941   7.319   1.668   3.057
 7567WAT      O22942   4.033   9.544   8.252
 7567WAT     H122943   4.075   9.591   8.175
 7567WAT     H222944   4.102   9.528   8.323
 7568WAT      O22945   9.866   4.910   5.217
 7568WAT     H122946   9.820   4.986   5.262
 7568WAT     H222947   9.834   4.824   5.256
 7569WAT      O22948   6.548   0.817   0.075
 7569WAT     H122949   6.611   0.855   0.007
 7569WAT     H222950   6.549   0.875   0.156
 7570WAT      O22951   3.074   4.835   0.568
 7570WAT     H122952   3.151   4.862   0.627
 7570WAT     H222953   2.988   4.858   0.614
 7571WAT      O22954   6.828   3.901   4.337
 7571WAT     H122955   6.758   3.872   4.271
 7571WAT     H222956   6.910   3.930   4.288
 7572WAT      O22957   3.405   1.174   1.113
 7572WAT     H122958   3.433   1.080   1.131
 7572WAT     H222959   3.310   1.176   1.082
 7573WAT      O22960   9.261   5.298   2.291
 7573WAT     H122961   9.238   5.354   2.212
 7573WAT     H222962   9.191   5.227   2.302
 7574WAT      O22963   9.702   5.616   2.436
 7574WAT     H122964   9.618   5.648   2.480
 7574WAT     H222965   9.747   5.693   2.391
 7575WAT      O22966   1.686   5.146   0.002
 7575WAT     H122967   1.648   5.112   0.088
 7575WAT     H222968   1.757   5.083  -0.030
 7576WAT      O22969   6.880   7.427   1.103
 7576WAT     H122970   6.820   7.350   1.128
 7576WAT     H222971   6.965   7.391   1.066
 7577WAT      O22972   0.002   2.957   8.224
 7577WAT     H122973  -0.016   2.965   8.321
 7577WAT     H222974   0.015   3.048   8.184
 7578WAT      O22975   1.212   4.351   0.485
 7578WAT     H122976   1.301   4.326   0.524
 7578WAT     H222977   1.143   4.288   0.520
 7579WAT      O22978   0.255   6.460   0.418
 7579WAT     H122979   0.298   6.490   0.503
 7579WAT     H222980   0.288   6.516   0.342
 7580WAT      O22981   3.939   5.358   7.651
 7580WAT     H122982   3.923   5.302   7.732
 7580WAT     H222983   3.851   5.392   7.616
 7581WAT      O22984   0.324   0.286   8.093
 7581WAT     H122985   0.359   0.220   8.027
 7581WAT     H222986   0.224   0.286   8.091
 7582WAT      O22987   5.782   0.384   5.869
 7582WAT     H122988   5.745   0.409   5.780
 7582WAT     H222989   5.800   0.467   5.922
 7583WAT      O22990   8.881   0.798   9.082
 7583WAT     H122991   8.850   0.881   9.036
 7583WAT     H222992   8.805   0.758   9.134
 7584WAT      O22993   7.384   5.940   3.884
 7584WAT     H122994   7.368   6.003   3.808
 7584WAT     H222995   7.303   5.938   3.943
 7585WAT      O22996   6.362   6.287   2.787
 7585WAT     H122997   6.412   6.343   2.720
 7585WAT     H222998   6.407   6.294   2.876
 7586WAT      O22999   1.997   7.962   9.130
 7586WAT     H123000   2.067   8.009   9.183
 7586WAT     H223001   2.035   7.878   9.090
 7587WAT      O23002   5.368   1.078   4.828
 7587WAT     H123003   5.453   1.027   4.845
 7587WAT     H223004   5.378   1.130   4.743
 7588WAT      O23005   5.346   9.353   2.784
 7588WAT     H123006   5.444   9.337   2.790
 7588WAT     H223007   5.301   9.270   2.751
 7589WAT      O23008   2.286   3.853   8.387
 7589WAT     H123009   2.361   3.800   8.428
 7589WAT     H223010   2.218   3.790   8.349
 7590WAT      O23011   0.320   5.188   9.360
 7590WAT     H123012   0.365   5.128   9.426
 7590WAT     H223013   0.226   5.156   9.345
 7591WAT      O23014   2.067   0.158   9.060
 7591WAT     H123015   2.153   0.108   9.059
 7591WAT     H223016   2.067   0.226   8.987
 7592WAT      O23017   8.889   5.549   1.750
 7592WAT     H123018   8.909   5.642   1.720
 7592WAT     H223019   8.791   5.539   1.769
 7593WAT      O23020   0.431   4.567   1.760
 7593WAT     H123021   0.529   4.545   1.765
 7593WAT     H223022   0.395   4.538   1.671
 7594WAT      O23023   1.906   1.447   2.990
 7594WAT     H123024   1.833   1.378   2.989
 7594WAT     H223025   1.880   1.525   2.933
 7595WAT      O23026   1.861   4.383   7.316
 7595WAT     H123027   1.813   4.371   7.229
 7595WAT     H223028   1.886   4.479   7.328
 7596WAT      O23029   1.876   0.906   9.486
 7596WAT     H123030   1.931   0.888   9.405
 7596WAT     H223031   1.924   0.970   9.546
 7597WAT      O23032   8.986   8.606   3.045
 7597WAT     H123033   9.024   8.514   3.045
 7597WAT     H223034   8.984   8.642   2.951
 7598WAT      O23035   1.185   2.029   3.421
 7598WAT     H123036   1.260   2.015   3.486
 7598WAT     H223037   1.139   2.115   3.441
 7599WAT      O23038   3.604   2.435   0.798
 7599WAT     H123039   3.648   2.457   0.885
 7599WAT     H223040   3.664   2.378   0.743
 7600WAT      O23041   7.112   8.782   4.898
 7600WAT     H123042   7.052   8.721   4.847
 7600WAT     H223043   7.156   8.846   4.836
 7601WAT      O23044   9.116   1.520   4.356
 7601WAT     H123045   9.207   1.560   4.348
 7601WAT     H223046   9.116   1.452   4.430
 7602WAT      O23047   5.562   7.918   8.988
 7602WAT     H123048   5.603   7.874   8.908
 7602WAT     H223049   5.486   7.977   8.958
 7603WAT      O23050   7.026   7.666   1.169
 7603WAT     H123051   7.021   7.568   1.148
 7603WAT     H223052   6.935   7.702   1.185
 7604WAT      O23053   6.374   2.552   0.720
 7604WAT     H123054   6.331   2.604   0.647
 7604WAT     H223055   6.379   2.456   0.694
 7605WAT      O23056   2.898   7.244   7.005
 7605WAT     H123057   2.954   7.320   7.039
 7605WAT     H223058   2.955   7.162   6.996
 7606WAT      O23059   5.939   8.907   8.127
 7606WAT     H123060   5.992   8.954   8.197
 7606WAT     H223061   5.957   8.809   8.132
 7607WAT      O23062   7.091   4.727   5.283
 7607WAT     H123063   7.150   4.792   5.237
 7607WAT     H223064   7.144   4.646   5.309
 7608WAT      O23065   7.396   5.240   9.196
 7608WAT     H123066   7.371   5.204   9.285
 7608WAT     H223067   7.443   5.169   9.143
 7609WAT      O23068   7.163   1.007   0.563
 7609WAT     H123069   7.213   1.039   0.482
 7609WAT     H223070   7.206   1.044   0.645
 7610WAT      O23071   3.992   0.978   4.943
 7610WAT     H123072   4.039   1.037   4.878
 7610WAT     H223073   3.994   0.884   4.910
 7611WAT      O23074   0.917   3.308   4.059
 7611WAT     H123075   0.927   3.210   4.045
 7611WAT     H223076   1.000   3.355   4.029
 7612WAT      O23077   2.477   0.098   0.748
 7612WAT     H123078   2.512   0.041   0.673
 7612WAT     H223079   2.394   0.056   0.785
 7613WAT      O23080   1.784   3.893   3.284
 7613WAT     H123081   1.857   3.889   3.215
 7613WAT     H223082   1.804   3.965   3.349
 7614WAT      O23083   3.823   7.909   4.234
 7614WAT     H123084   3.879   7.829   4.211
 7614WAT     H223085   3.855   7.988   4.182
 7615WAT      O23086   8.670   3.638   9.157
 7615WAT     H123087   8.641   3.707   9.090
 7615WAT     H223088   8.652   3.547   9.121
 7616WAT      O23089   8.071   6.392   6.792
 7616WAT     H123090   8.028   6.324   6.731
 7616WAT     H223091   8.038   6.483   6.768
 7617WAT      O23092   9.800   4.286   4.253
 7617WAT     H123093   9.712   4.273   4.299
 7617WAT     H223094   9.825   4.202   4.204
 7618WAT      O23095   3.403   3.319   0.734
 7618WAT     H123096   3.497   3.307   0.703
 7618WAT     H223097   3.341   3.271   0.672
 7619WAT      O23098   0.082   9.627   0.086
 7619WAT     H123099   0.108   9.689   0.160
 7619WAT     H223100  -0.008   9.653   0.051
 7620WAT      O23101   0.083   3.659   5.159
 7620WAT     H123102   0.038   3.605   5.231
 7620WAT     H223103   0.033   3.649   5.073
 7621WAT      O23104   5.972   0.894   8.896
 7621WAT     H123105   6.026   0.958   8.842
 7621WAT     H223106   5.885   0.876   8.850
 7622WAT      O23107   0.505   5.748   4.417
 7622WAT     H123108   0.548   5.720   4.331
 7622WAT     H223109   0.412   5.780   4.399
 7623WAT      O23110   5.791   9.645   2.594
 7623WAT     H123111   5.766   9.607   2.505
 7623WAT     H223112   5.841   9.577   2.647
 7624WAT      O23113   4.049   6.671   6.603
 7624WAT     H123114   4.038   6.601   6.673
 7624WAT     H223115   4.097   6.750   6.642
 7625WAT      O23116   4.706   9.124   8.752
 7625WAT     H123117   4.786   9.168   8.710
 7625WAT     H223118   4.629   9.187   8.752
 7626WAT      O23119   0.407   1.099   5.065
 7626WAT     H123120   0.422   1.011   5.110
 7626WAT     H223121   0.459   1.170   5.112
 7627WAT      O23122   0.195   9.298   6.103
 7627WAT     H123123   0.150   9.386   6.121
 7627WAT     H223124   0.135   9.241   6.047
 7628WAT      O23125   5.237   1.926   4.094
 7628WAT     H123126   5.250   1.889   4.002
 7628WAT     H223127   5.245   1.852   4.161
 7629WAT      O23128   8.839   2.370   5.315
 7629WAT     H123129   8.843   2.460   5.272
 7629WAT     H223130   8.852   2.299   5.245
 7630WAT      O23131   5.438   2.527   2.543
 7630WAT     H123132   5.534   2.501   2.548
 7630WAT     H223133   5.430   2.616   2.498
 7631WAT      O23134   2.743   9.255   8.381
 7631WAT     H123135   2.757   9.304   8.467
 7631WAT     H223136   2.670   9.299   8.328
 7632WAT      O23137   2.924   0.213   9.343
 7632WAT     H123138   2.976   0.297   9.358
 7632WAT     H223139   2.892   0.178   9.431
 7633WAT      O23140   1.078   0.525   3.002
 7633WAT     H123141   1.174   0.545   2.986
 7633WAT     H223142   1.064   0.426   3.003
 7634WAT      O23143   2.636   6.446   4.422
 7634WAT     H123144   2.623   6.481   4.515
 7634WAT     H223145   2.567   6.486   4.361
 7635WAT      O23146   6.282   6.991   1.380
 7635WAT     H123147   6.291   7.082   1.421
 7635WAT     H223148   6.300   6.921   1.449
 7636WAT      O23149   6.131   4.934   0.383
 7636WAT     H123150   6.107   5.031   0.384
 7636WAT     H223151   6.079   4.886   0.454
 7637WAT      O23152   0.658   6.107   6.638
 7637WAT     H123153   0.624   6.025   6.594
 7637WAT     H223154   0.607   6.187   6.605
 7638WAT      O23155   7.634   3.391   0.101
 7638WAT     H123156   7.564   3.450   0.063
 7638WAT     H223157   7.623   3.298   0.065
 7639WAT      O23158   8.133   0.759   5.900
 7639WAT     H123159   8.085   0.672   5.898
 7639WAT     H223160   8.223   0.749   5.856
 7640WAT      O23161   1.594   1.022   8.744
 7640WAT     H123162   1.660   0.975   8.686
 7640WAT     H223163   1.547   0.955   8.802
 7641WAT      O23164   0.748   0.012   7.914
 7641WAT     H123165   0.695   0.072   7.974
 7641WAT     H223166   0.760  -0.077   7.958
 7642WAT      O23167   2.707   7.650   0.630
 7642WAT     H123168   2.648   7.667   0.709
 7642WAT     H223169   2.652   7.621   0.552
 7643WAT      O23170   1.939   4.786   5.611
 7643WAT     H123171   1.995   4.829   5.540
 7643WAT     H223172   1.997   4.731   5.671
 7644WAT      O23173   5.717   8.745   1.880
 7644WAT     H123174   5.695   8.650   1.856
 7644WAT     H223175   5.808   8.768   1.845
 7645WAT      O23176   6.078   6.429   0.388
 7645WAT     H123177   6.049   6.394   0.477
 7645WAT     H223178   6.091   6.527   0.394
 7646WAT      O23179   6.243   6.379   0.707
 7646WAT     H123180   6.238   6.443   0.784
 7646WAT     H223181   6.152   6.344   0.687
 7647WAT      O23182   2.309   8.014   7.369
 7647WAT     H123183   2.308   8.083   7.296
 7647WAT     H223184   2.345   8.055   7.453
 7648WAT      O23185   4.235   0.333   0.647
 7648WAT     H123186   4.238   0.269   0.723
 7648WAT     H223187   4.148   0.323   0.599
 7649WAT      O23188   8.004   0.896   8.789
 7649WAT     H123189   7.930   0.841   8.828
 7649WAT     H223190   7.993   0.901   8.690
 7650WAT      O23191   0.164   5.140   4.607
 7650WAT     H123192   0.165   5.154   4.508
 7650WAT     H223193   0.256   5.115   4.637
 7651WAT      O23194   8.286   0.312   8.020
 7651WAT     H123195   8.191   0.290   8.039
 7651WAT     H223196   8.319   0.256   7.944
 7652WAT      O23197   2.070   6.961   1.969
 7652WAT     H123198   2.118   6.874   1.982
 7652WAT     H223199   2.130   7.037   1.994
 7653WAT      O23200   6.327   9.166   3.817
 7653WAT     H123201   6.399   9.188   3.751
 7653WAT     H223202   6.243   9.215   3.793
 7654WAT      O23203   0.634   1.454   3.594
 7654WAT     H123204   0.596   1.538   3.556
 7654WAT     H223205   0.675   1.399   3.521
 7655WAT      O23206   2.839   9.200   7.901
 7655WAT     H123207   2.806   9.283   7.947
 7655WAT     H223208   2.842   9.216   7.803
 7656WAT      O23209   9.687   2.970   9.329
 7656WAT     H123210   9.705   2.876   9.360
 7656WAT     H223211   9.626   2.968   9.250
 7657WAT      O23212   3.429   3.201   8.608
 7657WAT     H123213   3.467   3.222   8.698
 7657WAT     H223214   3.503   3.172   8.547
 7658WAT      O23215   2.970   2.376   6.730
 7658WAT     H123216   3.009   2.287   6.754
 7658WAT     H223217   2.921   2.369   6.643
 7659WAT      O23218   9.476   8.415   9.473
 7659WAT     H123219   9.402   8.479   9.494
 7659WAT     H223220   9.454   8.367   9.387
 7660WAT      O23221   1.372   5.575   6.397
 7660WAT     H123222   1.445   5.507   6.389
 7660WAT     H223223   1.335   5.573   6.491
 7661WAT      O23224   9.186   8.088   4.777
 7661WAT     H123225   9.191   8.121   4.872
 7661WAT     H223226   9.124   8.009   4.773
 7662WAT      O23227   0.072   9.177   7.626
 7662WAT     H123228   0.108   9.163   7.534
 7662WAT     H223229  -0.028   9.176   7.623
 7663WAT      O23230   9.062   3.549   5.621
 7663WAT     H123231   9.113   3.631   5.595
 7663WAT     H223232   8.978   3.576   5.667
 7664WAT      O23233   5.979   8.006   5.135
 7664WAT     H123234   5.883   8.029   5.153
 7664WAT     H223235   6.038   8.060   5.195
 7665WAT      O23236   8.017   1.043   1.679
 7665WAT     H123237   7.964   0.973   1.728
 7665WAT     H223238   8.065   1.100   1.745
 7666WAT      O23239   2.180   7.941   3.580
 7666WAT     H123240   2.081   7.930   3.570
 7666WAT     H223241   2.224   7.932   3.490
 7667WAT      O23242   1.930   3.697   8.454
 7667WAT     H123243   1.902   3.618   8.401
 7667WAT     H223244   2.013   3.736   8.415
 7668WAT      O23245   7.692   5.588   5.477
 7668WAT     H123246   7.694   5.602   5.378
 7668WAT     H223247   7.763   5.644   5.520
 7669WAT      O23248   4.864   9.348   6.274
 7669WAT     H123249   4.908   9.366   6.362
 7669WAT     H223250   4.779   9.297   6.288
 7670WAT      O23251   7.304   4.639   7.052
 7670WAT     H123252   7.307   4.569   6.981
 7670WAT     H223253   7.387   4.695   7.048
 7671WAT      O23254   8.315   7.986   0.567
 7671WAT     H123255   8.333   7.888   0.562
 7671WAT     H223256   8.217   8.001   0.580
 7672WAT      O23257   0.670   9.332   4.426
 7672WAT     H123258   0.712   9.411   4.472
 7672WAT     H223259   0.722   9.250   4.447
 7673WAT      O23260   4.697   9.397   7.591
 7673WAT     H123261   4.748   9.320   7.551
 7673WAT     H223262   4.699   9.474   7.528
 7674WAT      O23263   9.462   5.823   8.340
 7674WAT     H123264   9.537   5.760   8.361
 7674WAT     H223265   9.414   5.848   8.424
 7675WAT      O23266   4.130   4.312   9.664
 7675WAT     H123267   4.048   4.259   9.683
 7675WAT     H223268   4.204   4.250   9.635
 7676WAT      O23269   7.516   6.525   1.104
 7676WAT     H123270   7.515   6.444   1.046
 7676WAT     H223271   7.484   6.604   1.052
 7677WAT      O23272   6.246   2.248   3.404
 7677WAT     H123273   6.271   2.275   3.311
 7677WAT     H223274   6.303   2.171   3.432
 7678WAT      O23275   6.680   0.792   6.522
 7678WAT     H123276   6.736   0.718   6.484
 7678WAT     H223277   6.716   0.820   6.610
 7679WAT      O23278   4.730   8.954   0.428
 7679WAT     H123279   4.681   9.032   0.465
 7679WAT     H223280   4.693   8.930   0.338
 7680WAT      O23281   5.541   2.697   1.852
 7680WAT     H123282   5.542   2.764   1.926
 7680WAT     H223283   5.611   2.720   1.785
 7681WAT      O23284   1.407   6.630   8.657
 7681WAT     H123285   1.421   6.687   8.576
 7681WAT     H223286   1.496   6.605   8.696
 7682WAT      O23287   2.493   9.137   8.117
 7682WAT     H123288   2.410   9.176   8.077
 7682WAT     H223289   2.479   9.039   8.133
 7683WAT      O23290   7.257   0.384   5.523
 7683WAT     H123291   7.166   0.344   5.517
 7683WAT     H223292   7.279   0.401   5.619
 7684WAT      O23293   3.336   1.208   6.983
 7684WAT     H123294   3.238   1.195   6.975
 7684WAT     H223295   3.356   1.305   6.999
 7685WAT      O23296   6.257   5.607   9.304
 7685WAT     H123297   6.332   5.547   9.332
 7685WAT     H223298   6.173   5.553   9.297
 7686WAT      O23299   8.778   0.570   3.442
 7686WAT     H123300   8.771   0.483   3.491
 7686WAT     H223301   8.835   0.633   3.495
 7687WAT      O23302   7.280   0.577   8.424
 7687WAT     H123303   7.319   0.653   8.476
 7687WAT     H223304   7.349   0.539   8.364
 7688WAT      O23305   8.954   3.101   7.592
 7688WAT     H123306   8.899   3.158   7.531
 7688WAT     H223307   9.044   3.086   7.551
 7689WAT      O23308   9.616   0.297   7.845
 7689WAT     H123309   9.531   0.350   7.852
 7689WAT     H223310   9.691   0.348   7.889
 7690WAT      O23311   2.792   2.374   4.549
 7690WAT     H123312   2.724   2.365   4.621
 7690WAT     H223313   2.874   2.419   4.585
 7691WAT      O23314   9.008   0.384   2.318
 7691WAT     H123315   8.964   0.419   2.235
 7691WAT     H223316   8.957   0.305   2.352
 7692WAT      O23317   0.786   5.273   4.157
 7692WAT     H123318   0.741   5.256   4.245
 7692WAT     H223319   0.753   5.360   4.119
 7693WAT      O23320   4.725   7.538   2.073
 7693WAT     H123321   4.691   7.448   2.102
 7693WAT     H223322   4.648   7.596   2.048
 7694WAT      O23323   5.179   1.645   6.625
 7694WAT     H123324   5.162   1.594   6.541
 7694WAT     H223325   5.193   1.580   6.700
 7695WAT      O23326   2.208   4.193   5.102
 7695WAT     H123327   2.142   4.240   5.043
 7695WAT     H223328   2.158   4.133   5.165
 7696WAT      O23329   4.999   2.044   7.781
 7696WAT     H123330   4.961   1.999   7.862
 7696WAT     H223331   5.048   1.977   7.725
 7697WAT      O23332   3.542   2.848   8.790
 7697WAT     H123333   3.614   2.918   8.784
 7697WAT     H223334   3.573   2.765   8.744
 7698WAT      O23335   7.611   2.770   2.096
 7698WAT     H123336   7.675   2.778   2.173
 7698WAT     H223337   7.517   2.774   2.131
 7699WAT      O23338   2.964   3.129   9.264
 7699WAT     H123339   3.063   3.145   9.262
 7699WAT     H223340   2.938   3.067   9.190
 7700WAT      O23341   1.240   9.776   1.931
 7700WAT     H123342   1.316   9.809   1.986
 7700WAT     H223343   1.169   9.739   1.990
 7701WAT      O23344   9.097   6.126   6.193
 7701WAT     H123345   9.053   6.204   6.238
 7701WAT     H223346   9.033   6.049   6.190
 7702WAT      O23347   8.966   6.308   9.241
 7702WAT     H123348   8.937   6.260   9.324
 7702WAT     H223349   8.963   6.407   9.257
 7703WAT      O23350   6.841   6.639   6.235
 7703WAT     H123351   6.844   6.694   6.152
 7703WAT     H223352   6.750   6.600   6.246
 7704WAT      O23353   9.801   6.501   6.048
 7704WAT     H123354   9.772   6.594   6.023
 7704WAT     H223355   9.748   6.434   5.995
 7705WAT      O23356   2.195   6.221   8.333
 7705WAT     H123357   2.288   6.187   8.350
 7705WAT     H223358   2.194   6.320   8.338
 7706WAT      O23359   8.239   2.625   7.475
 7706WAT     H123360   8.339   2.632   7.481
 7706WAT     H223361   8.197   2.707   7.513
 7707WAT      O23362   2.185   3.037   5.923
 7707WAT     H123363   2.227   3.081   6.003
 7707WAT     H223364   2.096   3.078   5.907
 7708WAT      O23365   4.042   7.158   9.303
 7708WAT     H123366   4.097   7.228   9.255
 7708WAT     H223367   4.096   7.120   9.377
 7709WAT      O23368   7.181   4.397   3.604
 7709WAT     H123369   7.142   4.431   3.689
 7709WAT     H223370   7.217   4.305   3.617
 7710WAT      O23371   7.135   4.143   2.565
 7710WAT     H123372   7.144   4.231   2.519
 7710WAT     H223373   7.221   4.119   2.610
 7711WAT      O23374   1.294   4.444   4.516
 7711WAT     H123375   1.374   4.462   4.459
 7711WAT     H223376   1.308   4.360   4.568
 7712WAT      O23377   8.875   3.730   6.646
 7712WAT     H123378   8.975   3.731   6.650
 7712WAT     H223379   8.838   3.789   6.717
 7713WAT      O23380   1.759   1.569   8.412
 7713WAT     H123381   1.831   1.562   8.481
 7713WAT     H223382   1.677   1.522   8.445
 7714WAT      O23383   2.184   6.541   3.141
 7714WAT     H123384   2.222   6.574   3.227
 7714WAT     H223385   2.093   6.504   3.156
 7715WAT      O23386   0.960   7.028   2.107
 7715WAT     H123387   1.049   7.073   2.111
 7715WAT     H223388   0.952   6.963   2.182
 7716WAT      O23389   6.325   8.238   2.561
 7716WAT     H123390   6.326   8.139   2.575
 7716WAT     H223391   6.405   8.278   2.605
 7717WAT      O23392   9.041   5.056   4.529
 7717WAT     H123393   9.056   5.141   4.479
 7717WAT     H223394   8.998   5.075   4.617
 7718WAT      O23395   7.375   3.084   3.106
 7718WAT     H123396   7.373   3.009   3.172
 7718WAT     H223397   7.463   3.131   3.112
 7719WAT      O23398   7.615   3.539   8.339
 7719WAT     H123399   7.627   3.451   8.294
 7719WAT     H223400   7.597   3.526   8.436
 7720WAT      O23401   8.506   0.796   0.058
 7720WAT     H123402   8.552   0.792  -0.030
 7720WAT     H223403   8.458   0.710   0.074
 7721WAT      O23404   1.560   4.542   1.912
 7721WAT     H123405   1.551   4.635   1.877
 7721WAT     H223406   1.657   4.516   1.913
 7722WAT      O23407   3.404   9.455   2.303
 7722WAT     H123408   3.501   9.436   2.287
 7722WAT     H223409   3.368   9.391   2.371
 7723WAT      O23410   1.315   4.268   0.227
 7723WAT     H123411   1.253   4.253   0.304
 7723WAT     H223412   1.361   4.356   0.237
 7724WAT      O23413   2.994   2.482   4.686
 7724WAT     H123414   3.052   2.423   4.742
 7724WAT     H223415   2.956   2.556   4.742
 7725WAT      O23416   8.054   6.424   0.070
 7725WAT     H123417   8.091   6.359   0.004
 7725WAT     H223418   8.027   6.508   0.022
 7726WAT      O23419   3.447   8.576   6.192
 7726WAT     H123420   3.515   8.596   6.121
 7726WAT     H223421   3.359   8.554   6.149
 7727WAT      O23422   8.933   6.342   4.362
 7727WAT     H123423   9.009   6.323   4.300
 7727WAT     H223424   8.968   6.388   4.444
 7728WAT      O23425   2.292   0.476   7.443
 7728WAT     H123426   2.389   0.480   7.418
 7728WAT     H223427   2.283   0.462   7.542
 7729WAT      O23428   3.769   4.316   1.673
 7729WAT     H123429   3.733   4.409   1.685
 7729WAT     H223430   3.868   4.316   1.687
 7730WAT      O23431   6.932   2.657   9.826
 7730WAT     H123432   7.016   2.619   9.788
 7730WAT     H223433   6.931   2.642   9.925
 7731WAT      O23434   6.690   6.322   8.935
 7731WAT     H123435   6.697   6.271   8.849
 7731WAT     H223436   6.750   6.402   8.930
 7732WAT      O23437   0.310   4.396   4.753
 7732WAT     H123438   0.241   4.464   4.776
 7732WAT     H223439   0.322   4.334   4.831
 7733WAT      O23440   2.649   2.438   4.784
 7733WAT     H123441   2.552   2.450   4.765
 7733WAT     H223442   2.686   2.521   4.826
 7734WAT      O23443   3.053   3.867   7.937
 7734WAT     H123444   3.032   3.937   7.869
 7734WAT     H223445   3.088   3.785   7.890
 7735WAT      O23446   8.236   1.659   6.774
 7735WAT     H123447   8.151   1.707   6.753
 7735WAT     H223448   8.314   1.716   6.747
 7736WAT      O23449   9.216   1.106   4.339
 7736WAT     H123450   9.190   1.149   4.426
 7736WAT     H223451   9.159   1.026   4.323
 7737WAT      O23452   8.370   4.530   9.610
 7737WAT     H123453   8.290   4.470   9.602
 7737WAT     H223454   8.441   4.485   9.663
 7738WAT      O23455   5.801   2.227   0.452
 7738WAT     H123456   5.839   2.282   0.526
 7738WAT     H223457   5.775   2.137   0.487
 7739WAT      O23458   4.222   2.035   2.707
 7739WAT     H123459   4.123   2.032   2.719
 7739WAT     H223460   4.250   2.130   2.688
 7740WAT      O23461   8.997   7.983   0.535
 7740WAT     H123462   8.991   7.988   0.435
 7740WAT     H223463   9.025   8.072   0.571
 7741WAT      O23464   5.563   5.668   2.166
 7741WAT     H123465   5.543   5.589   2.225
 7741WAT     H223466   5.613   5.737   2.218
 7742WAT      O23467   1.572   2.861   9.405
 7742WAT     H123468   1.601   2.956   9.417
 7742WAT     H223469   1.573   2.837   9.308
 7743WAT      O23470   2.200   2.150   0.486
 7743WAT     H123471   2.130   2.081   0.470
 7743WAT     H223472   2.259   2.120   0.561
 7744WAT      O23473   3.313   3.505   2.127
 7744WAT     H123474   3.295   3.598   2.095
 7744WAT     H223475   3.230   3.467   2.167
 7745WAT      O23476   0.573   3.490   7.606
 7745WAT     H123477   0.525   3.439   7.535
 7745WAT     H223478   0.630   3.428   7.660
 7746WAT      O23479   2.108   6.477   8.929
 7746WAT     H123480   2.114   6.474   8.829
 7746WAT     H223481   2.087   6.570   8.958
 7747WAT      O23482   9.214   5.310   0.563
 7747WAT     H123483   9.239   5.272   0.653
 7747WAT     H223484   9.232   5.242   0.492
 7748WAT      O23485   0.525   5.809   8.478
 7748WAT     H123486   0.520   5.753   8.395
 7748WAT     H223487   0.547   5.752   8.556
 7749WAT      O23488   1.969   9.761   6.432
 7749WAT     H123489   1.973   9.860   6.449
 7749WAT     H223490   1.880   9.737   6.395
 7750WAT      O23491   0.330   5.042   4.983
 7750WAT     H123492   0.406   4.995   5.028
 7750WAT     H223493   0.318   5.132   5.024
 7751WAT      O23494   4.901   7.425   9.703
 7751WAT     H123495   4.990   7.402   9.663
 7751WAT     H223496   4.854   7.492   9.645
 7752WAT      O23497   6.462   6.618   7.418
 7752WAT     H123498   6.545   6.623   7.362
 7752WAT     H223499   6.435   6.711   7.446
 7753WAT      O23500   0.557   0.530   5.287
 7753WAT     H123501   0.466   0.490   5.289
 7753WAT     H223502   0.626   0.458   5.297
 7754WAT      O23503   8.102   4.306   2.541
 7754WAT     H123504   8.184   4.316   2.598
 7754WAT     H223505   8.096   4.382   2.476
 7755WAT      O23506   5.825   9.618   6.129
 7755WAT     H123507   5.790   9.528   6.157
 7755WAT     H223508   5.757   9.665   6.073
 7756WAT      O23509   5.942   1.404   1.743
 7756WAT     H123510   6.013   1.364   1.800
 7756WAT     H223511   5.985   1.453   1.666
 7757WAT      O23512   3.015   0.352   4.308
 7757WAT     H123513   2.964   0.431   4.273
 7757WAT     H223514   3.031   0.363   4.406
 7758WAT      O23515   1.712   1.781   7.505
 7758WAT     H123516   1.787   1.770   7.440
 7758WAT     H223517   1.736   1.737   7.592
 7759WAT      O23518   4.584   0.882   4.669
 7759WAT     H123519   4.671   0.842   4.639
 7759WAT     H223520   4.592   0.910   4.765
 7760WAT      O23521   5.972   5.095   4.177
 7760WAT     H123522   6.039   5.111   4.249
 7760WAT     H223523   6.019   5.083   4.090
 7761WAT      O23524   9.135   1.944   6.661
 7761WAT     H123525   9.096   1.911   6.747
 7761WAT     H223526   9.132   2.044   6.659
 7762WAT      O23527   6.617   4.499   3.507
 7762WAT     H123528   6.703   4.467   3.468
 7762WAT     H223529   6.636   4.570   3.576
 7763WAT      O23530   0.349   5.881   4.765
 7763WAT     H123531   0.262   5.856   4.723
 7763WAT     H223532   0.337   5.890   4.864
 7764WAT      O23533   6.898   3.797   7.776
 7764WAT     H123534   6.844   3.757   7.702
 7764WAT     H223535   6.848   3.874   7.816
 7765WAT      O23536   7.498   9.139   2.339
 7765WAT     H123537   7.465   9.046   2.350
 7765WAT     H223538   7.592   9.145   2.376
 7766WAT      O23539   6.223   4.520   3.241
 7766WAT     H123540   6.289   4.558   3.306
 7766WAT     H223541   6.257   4.434   3.204
 7767WAT      O23542   7.499   3.911   6.243
 7767WAT     H123543   7.432   3.930   6.171
 7767WAT     H223544   7.500   3.812   6.261
 7768WAT      O23545   4.158   7.136   7.647
 7768WAT     H123546   4.071   7.123   7.695
 7768WAT     H223547   4.195   7.226   7.668
 7769WAT      O23548   1.653   3.506   6.370
 7769WAT     H123549   1.749   3.482   6.390
 7769WAT     H223550   1.601   3.422   6.355
 7770WAT      O23551   2.736   7.090   5.873
 7770WAT     H123552   2.819   7.035   5.873
 7770WAT     H223553   2.742   7.161   5.803
 7771WAT      O23554   4.381   1.365   5.850
 7771WAT     H123555   4.480   1.376   5.847
 7771WAT     H223556   4.358   1.268   5.851
 7772WAT      O23557   1.185   6.603   0.265
 7772WAT     H123558   1.103   6.572   0.313
 7772WAT     H223559   1.165   6.685   0.212
 7773WAT      O23560   8.117   8.729   1.355
 7773WAT     H123561   8.115   8.659   1.427
 7773WAT     H223562   8.158   8.813   1.390
 7774WAT      O23563   0.029   1.333   9.276
 7774WAT     H123564   0.042   1.336   9.177
 7774WAT     H223565  -0.017   1.417   9.306
 7775WAT      O23566   2.919   0.521   3.600
 7775WAT     H123567   2.964   0.542   3.686
 7775WAT     H223568   2.881   0.428   3.605
 7776WAT      O23569   4.121   0.258   1.508
 7776WAT     H123570   4.183   0.313   1.452
 7776WAT     H223571   4.147   0.265   1.604
 7777WAT      O23572   8.027   6.635   6.113
 7777WAT     H123573   7.944   6.609   6.064
 7777WAT     H223574   8.026   6.595   6.205
 7778WAT      O23575   2.389   6.557   1.255
 7778WAT     H123576   2.355   6.463   1.267
 7778WAT     H223577   2.421   6.568   1.161
 7779WAT      O23578   9.331   9.826   3.388
 7779WAT     H123579   9.428   9.809   3.405
 7779WAT     H223580   9.276   9.785   3.460
 7780WAT      O23581   1.867   5.269   2.695
 7780WAT     H123582   1.785   5.214   2.711
 7780WAT     H223583   1.948   5.216   2.721
 7781WAT      O23584   4.651   1.169   0.648
 7781WAT     H123585   4.622   1.089   0.595
 7781WAT     H223586   4.582   1.241   0.641
 7782WAT      O23587   6.433   2.125   4.157
 7782WAT     H123588   6.358   2.189   4.139
 7782WAT     H223589   6.504   2.138   4.087
 7783WAT      O23590   6.165   8.298   9.152
 7783WAT     H123591   6.142   8.353   9.071
 7783WAT     H223592   6.081   8.272   9.199
 7784WAT      O23593   0.024   2.234   5.977
 7784WAT     H123594   0.109   2.272   6.013
 7784WAT     H223595   0.044   2.177   5.897
 7785WAT      O23596   7.000   3.348   7.389
 7785WAT     H123597   7.006   3.254   7.356
 7785WAT     H223598   7.017   3.411   7.313
 7786WAT      O23599   0.580   5.270   6.448
 7786WAT     H123600   0.569   5.205   6.523
 7786WAT     H223601   0.639   5.231   6.378
 7787WAT      O23602   2.330   2.622   7.136
 7787WAT     H123603   2.385   2.641   7.055
 7787WAT     H223604   2.390   2.603   7.213
 7788WAT      O23605   6.278   6.546   7.227
 7788WAT     H123606   6.218   6.625   7.217
 7788WAT     H223607   6.353   6.569   7.289
 7789WAT      O23608   4.450   7.835   2.873
 7789WAT     H123609   4.507   7.903   2.828
 7789WAT     H223610   4.361   7.876   2.895
 7790WAT      O23611   5.246   8.249   6.782
 7790WAT     H123612   5.158   8.218   6.817
 7790WAT     H223613   5.293   8.302   6.852
 7791WAT      O23614   2.480   8.501   5.903
 7791WAT     H123615   2.409   8.492   5.973
 7791WAT     H223616   2.570   8.497   5.946
 7792WAT      O23617   7.470   0.632   7.343
 7792WAT     H123618   7.396   0.664   7.403
 7792WAT     H223619   7.506   0.546   7.378
 7793WAT      O23620   4.900   1.252   1.356
 7793WAT     H123621   4.987   1.298   1.377
 7793WAT     H223622   4.832   1.276   1.425
 7794WAT      O23623   3.929   9.760   4.874
 7794WAT     H123624   3.920   9.722   4.966
 7794WAT     H223625   3.848   9.813   4.852
 7795WAT      O23626   4.383   0.398   5.731
 7795WAT     H123627   4.464   0.365   5.779
 7795WAT     H223628   4.410   0.451   5.652
 7796WAT      O23629   0.976   2.411   2.157
 7796WAT     H123630   0.973   2.389   2.059
 7796WAT     H223631   0.882   2.422   2.191
 7797WAT      O23632   0.415   3.966   4.694
 7797WAT     H123633   0.351   4.040   4.676
 7797WAT     H223634   0.370   3.895   4.749
 7798WAT      O23635   5.856   0.446   0.312
 7798WAT     H123636   5.939   0.455   0.257
 7798WAT     H223637   5.776   0.460   0.254
 7799WAT      O23638   8.213   9.373   2.567
 7799WAT     H123639   8.244   9.331   2.481
 7799WAT     H223640   8.150   9.448   2.547
 7800WAT      O23641   6.710   1.813   8.384
 7800WAT     H123642   6.686   1.907   8.406
 7800WAT     H223643   6.789   1.784   8.438
 7801WAT      O23644   0.196   1.581   1.884
 7801WAT     H123645   0.272   1.542   1.936
 7801WAT     H223646   0.193   1.538   1.793
 7802WAT      O23647   1.489   6.879   5.171
 7802WAT     H123648   1.496   6.973   5.205
 7802WAT     H223649   1.573   6.830   5.192
 7803WAT      O23650   3.830   3.222   4.175
 7803WAT     H123651   3.756   3.206   4.240
 7803WAT     H223652   3.850   3.320   4.172
 7804WAT      O23653   2.214   3.003   2.611
 7804WAT     H123654   2.225   2.982   2.708
 7804WAT     H223655   2.233   3.100   2.595
 7805WAT      O23656   7.867   2.426   9.401
 7805WAT     H123657   7.771   2.408   9.381
 7805WAT     H223658   7.886   2.403   9.497
 7806WAT      O23659   3.615   0.845   9.228
 7806WAT     H123660   3.528   0.849   9.178
 7806WAT     H223661   3.651   0.751   9.223
 7807WAT      O23662   0.322   3.933   3.274
 7807WAT     H123663   0.361   3.901   3.187
 7807WAT     H223664   0.254   3.867   3.307
 7808WAT      O23665   9.368   2.355   4.293
 7808WAT     H123666   9.388   2.260   4.319
 7808WAT     H223667   9.289   2.356   4.230
 7809WAT      O23668   4.354   8.478   4.715
 7809WAT     H123669   4.411   8.421   4.774
 7809WAT     H223670   4.411   8.524   4.647
 7810WAT      O23671   8.022   5.426   6.482
 7810WAT     H123672   8.062   5.336   6.499
 7810WAT     H223673   8.012   5.440   6.383
 7811WAT      O23674   5.060   5.144   8.168
 7811WAT     H123675   5.126   5.075   8.197
 7811WAT     H223676   5.107   5.231   8.154
 7812WAT      O23677   9.772   2.063   0.564
 7812WAT     H123678   9.695   2.123   0.539
 7812WAT     H223679   9.822   2.037   0.481
 7813WAT      O23680   0.172   5.737   6.813
 7813WAT     H123681   0.245   5.746   6.745
 7813WAT     H223682   0.146   5.828   6.847
 7814WAT      O23683   2.273   3.117   6.202
 7814WAT     H123684   2.178   3.107   6.230
 7814WAT     H223685   2.294   3.215   6.191
 7815WAT      O23686   2.816   9.680   6.070
 7815WAT     H123687   2.854   9.593   6.104
 7815WAT     H223688   2.860   9.704   5.984
 7816WAT      O23689   8.207   8.123   9.058
 7816WAT     H123690   8.204   8.046   9.121
 7816WAT     H223691   8.271   8.192   9.092
 7817WAT      O23692   0.605   6.286   4.104
 7817WAT     H123693   0.608   6.269   4.006
 7817WAT     H223694   0.683   6.240   4.148
 7818WAT      O23695   9.234   6.248   1.246
 7818WAT     H123696   9.302   6.273   1.315
 7818WAT     H223697   9.210   6.151   1.257
 7819WAT      O23698   2.988   9.223   8.828
 7819WAT     H123699   3.009   9.186   8.737
 7819WAT     H223700   3.001   9.152   8.897
 7820WAT      O23701   5.059   4.468   8.438
 7820WAT     H123702   5.096   4.444   8.527
 7820WAT     H223703   4.972   4.516   8.449
 7821WAT      O23704   1.986   1.328   5.774
 7821WAT     H123705   1.932   1.358   5.852
 7821WAT     H223706   2.040   1.405   5.739
 7822WAT      O23707   0.779   7.800   5.874
 7822WAT     H123708   0.728   7.815   5.959
 7822WAT     H223709   0.862   7.748   5.894
 7823WAT      O23710   2.636   6.269   1.383
 7823WAT     H123711   2.567   6.303   1.447
 7823WAT     H223712   2.656   6.339   1.314
 7824WAT      O23713   1.998   5.621   8.893
 7824WAT     H123714   2.051   5.591   8.814
 7824WAT     H223715   1.922   5.678   8.863
 7825WAT      O23716   2.615   9.315   9.579
 7825WAT     H123717   2.667   9.230   9.585
 7825WAT     H223718   2.645   9.367   9.499
 7826WAT      O23719   5.077   6.080   2.009
 7826WAT     H123720   5.046   6.161   1.960
 7826WAT     H223721   5.005   6.049   2.072
 7827WAT      O23722   1.150   8.563   8.641
 7827WAT     H123723   1.212   8.608   8.576
 7827WAT     H223724   1.071   8.526   8.592
 7828WAT      O23725   7.557   0.670   8.375
 7828WAT     H123726   7.538   0.610   8.297
 7828WAT     H223727   7.636   0.728   8.354
 7829WAT      O23728   3.510   3.327   6.970
 7829WAT     H123729   3.570   3.251   6.996
 7829WAT     H223730   3.470   3.310   6.880
 7830WAT      O23731   7.527   4.814   6.629
 7830WAT     H123732   7.594   4.794   6.557
 7830WAT     H223733   7.571   4.866   6.702
 7831WAT      O23734   4.090   8.807   7.582
 7831WAT     H123735   4.039   8.775   7.502
 7831WAT     H223736   4.035   8.873   7.633
 7832WAT      O23737   9.849   0.420   5.009
 7832WAT     H123738   9.936   0.429   4.960
 7832WAT     H223739   9.783   0.373   4.951
 7833WAT      O23740   6.885   6.456   6.946
 7833WAT     H123741   6.946   6.405   7.006
 7833WAT     H223742   6.938   6.496   6.871
 7834WAT      O23743   2.622   4.425   0.523
 7834WAT     H123744   2.666   4.514   0.537
 7834WAT     H223745   2.541   4.437   0.467
 7835WAT      O23746   6.217   2.300   1.617
 7835WAT     H123747   6.143   2.362   1.643
 7835WAT     H223748   6.202   2.210   1.659
 7836WAT      O23749   5.814   1.153   1.815
 7836WAT     H123750   5.721   1.175   1.844
 7836WAT     H223751   5.858   1.234   1.777
 7837WAT      O23752   3.231   5.190   0.938
 7837WAT     H123753   3.135   5.174   0.916
 7837WAT     H223754   3.237   5.254   1.015
 7838WAT      O23755   8.771   8.264   8.054
 7838WAT     H123756   8.723   8.312   8.127
 7838WAT     H223757   8.854   8.313   8.030
 7839WAT      O23758   8.790   3.661   6.091
 7839WAT     H123759   8.866   3.725   6.083
 7839WAT     H223760   8.704   3.711   6.096
 7840WAT      O23761   7.135   7.380   7.652
 7840WAT     H123762   7.227   7.348   7.671
 7840WAT     H223763   7.085   7.392   7.738
 7841WAT      O23764   7.335   2.649   6.694
 7841WAT     H123765   7.327   2.550   6.704
 7841WAT     H223766   7.393   2.670   6.615
 7842WAT      O23767   6.887   2.257   7.989
 7842WAT     H123768   6.905   2.212   7.901
 7842WAT     H223769   6.855   2.189   8.055
 7843WAT      O23770   1.677   5.875   1.128
 7843WAT     H123771   1.708   5.781   1.147
 7843WAT     H223772   1.665   5.924   1.215
 7844WAT      O23773   4.103   7.561   4.596
 7844WAT     H123774   4.080   7.472   4.558
 7844WAT     H223775   4.169   7.607   4.537
 7845WAT      O23776   9.796   2.059   5.189
 7845WAT     H123777   9.707   2.025   5.158
 7845WAT     H223778   9.822   2.013   5.274
 7846WAT      O23779   7.571   3.043   7.067
 7846WAT     H123780   7.576   2.994   6.979
 7846WAT     H223781   7.610   3.135   7.056
 7847WAT      O23782   1.280   0.144   6.434
 7847WAT     H123783   1.231   0.129   6.520
 7847WAT     H223784   1.220   0.121   6.357
 7848WAT      O23785   8.690   9.460   7.439
 7848WAT     H123786   8.644   9.537   7.395
 7848WAT     H223787   8.719   9.487   7.531
 7849WAT      O23788   6.325   3.519   1.965
 7849WAT     H123789   6.391   3.506   2.039
 7849WAT     H223790   6.334   3.445   1.898
 7850WAT      O23791   6.449   6.387   8.998
 7850WAT     H123792   6.537   6.344   8.974
 7850WAT     H223793   6.435   6.468   8.942
 7851WAT      O23794   8.422   4.976   3.734
 7851WAT     H123795   8.495   5.003   3.670
 7851WAT     H223796   8.440   5.016   3.823
 7852WAT      O23797   5.850   9.069   6.804
 7852WAT     H123798   5.827   9.078   6.707
 7852WAT     H223799   5.901   9.150   6.833
 7853WAT      O23800   2.862   5.122   8.272
 7853WAT     H123801   2.916   5.190   8.322
 7853WAT     H223802   2.765   5.147   8.277
 7854WAT      O23803   6.520   8.452   7.427
 7854WAT     H123804   6.585   8.432   7.500
 7854WAT     H223805   6.507   8.551   7.421
 7855WAT      O23806   2.079   3.847   8.079
 7855WAT     H123807   2.065   3.877   8.174
 7855WAT     H223808   2.102   3.750   8.078
 7856WAT      O23809   2.786   7.650   2.235
 7856WAT     H123810   2.760   7.698   2.151
 7856WAT     H223811   2.839   7.569   2.212
 7857WAT      O23812   1.842   0.652   8.554
 7857WAT     H123813   1.883   0.664   8.644
 7857WAT     H223814   1.755   0.701   8.551
 7858WAT      O23815   7.880   5.361   3.783
 7858WAT     H123816   7.859   5.436   3.720
 7858WAT     H223817   7.813   5.288   3.770
 7859WAT      O23818   3.097   5.329   1.719
 7859WAT     H123819   3.012   5.381   1.724
 7859WAT     H223820   3.081   5.242   1.673
 7860WAT      O23821   4.433   2.235   1.067
 7860WAT     H123822   4.444   2.234   0.968
 7860WAT     H223823   4.366   2.305   1.092
 7861WAT      O23824   5.809   2.316   5.245
 7861WAT     H123825   5.723   2.279   5.211
 7861WAT     H223826   5.827   2.280   5.337
 7862WAT      O23827   6.152   0.288   4.295
 7862WAT     H123828   6.186   0.350   4.365
 7862WAT     H223829   6.204   0.203   4.298
 7863WAT      O23830   8.644   2.050   5.647
 7863WAT     H123831   8.643   1.952   5.664
 7863WAT     H223832   8.609   2.099   5.727
 7864WAT      O23833   7.979   3.135   2.587
 7864WAT     H123834   7.905   3.105   2.526
 7864WAT     H223835   8.054   3.173   2.533
 7865WAT      O23836   3.435   2.620   2.115
 7865WAT     H123837   3.478   2.708   2.136
 7865WAT     H223838   3.503   2.559   2.075
 7866WAT      O23839   1.787   6.784   9.492
 7866WAT     H123840   1.717   6.716   9.473
 7866WAT     H223841   1.866   6.741   9.535
 7867WAT      O23842   9.659   5.502   9.171
 7867WAT     H123843   9.619   5.592   9.190
 7867WAT     H223844   9.623   5.467   9.085
 7868WAT      O23845   1.586   7.942   1.740
 7868WAT     H123846   1.558   7.974   1.650
 7868WAT     H223847   1.683   7.919   1.739
 7869WAT      O23848   6.964   0.047   3.699
 7869WAT     H123849   6.889   0.097   3.742
 7869WAT     H223850   6.977  -0.040   3.745
 7870WAT      O23851   1.635   5.239   0.757
 7870WAT     H123852   1.580   5.156   0.750
 7870WAT     H223853   1.635   5.287   0.669
 7871WAT      O23854   0.281   0.195   3.111
 7871WAT     H123855   0.341   0.198   3.191
 7871WAT     H223856   0.317   0.255   3.040
 7872WAT      O23857   0.209   0.129   9.769
 7872WAT     H123858   0.153   0.172   9.840
 7872WAT     H223859   0.291   0.090   9.811
 7873WAT      O23860   5.887   6.963   7.587
 7873WAT     H123861   5.946   6.900   7.536
 7873WAT     H223862   5.794   6.958   7.551
 7874WAT      O23863   7.539   4.414   7.509
 7874WAT     H123864   7.530   4.367   7.597
 7874WAT     H223865   7.534   4.513   7.523
 7875WAT      O23866   5.677   1.935   8.578
 7875WAT     H123867   5.650   1.978   8.664
 7875WAT     H223868   5.756   1.982   8.540
 7876WAT      O23869   2.567   2.060   3.264
 7876WAT     H123870   2.496   2.028   3.326
 7876WAT     H223871   2.532   2.061   3.170
 7877WAT      O23872   4.461   7.573   7.719
 7877WAT     H123873   4.542   7.574   7.660
 7877WAT     H223874   4.485   7.610   7.809
 7878WAT      O23875   7.706   1.887   7.677
 7878WAT     H123876   7.790   1.840   7.705
 7878WAT     H223877   7.696   1.881   7.578
 7879WAT      O23878   2.178   3.933   5.646
 7879WAT     H123879   2.183   3.959   5.743
 7879WAT     H223880   2.095   3.971   5.605
 7880WAT      O23881   0.197   0.510   0.716
 7880WAT     H123882   0.287   0.553   0.704
 7880WAT     H223883   0.171   0.514   0.812
 7881WAT      O23884   3.386   5.728   1.144
 7881WAT     H123885   3.475   5.770   1.162
 7881WAT     H223886   3.313   5.788   1.178
 7882WAT      O23887   6.948   8.561   5.463
 7882WAT     H123888   6.916   8.631   5.399
 7882WAT     H223889   6.999   8.491   5.413
 7883WAT      O23890   1.899   3.415   4.233
 7883WAT     H123891   1.911   3.427   4.331
 7883WAT     H223892   1.851   3.329   4.215
 7884WAT      O23893   0.397   2.106   2.359
 7884WAT     H123894   0.351   2.191   2.384
 7884WAT     H223895   0.353   2.030   2.406
 7885WAT      O23896   9.386   8.177   7.440
 7885WAT     H123897   9.432   8.088   7.439
 7885WAT     H223898   9.454   8.249   7.454
 7886WAT      O23899   3.607   3.129   6.388
 7886WAT     H123900   3.680   3.080   6.435
 7886WAT     H223901   3.609   3.226   6.414
 7887WAT      O23902   3.100   8.546   6.650
 7887WAT     H123903   3.015   8.515   6.693
 7887WAT     H223904   3.094   8.533   6.551
 7888WAT      O23905   2.998   5.282   3.153
 7888WAT     H123906   3.094   5.293   3.178
 7888WAT     H223907   2.968   5.190   3.178
 7889WAT      O23908   3.638   2.279   4.565
 7889WAT     H123909   3.711   2.233   4.515
 7889WAT     H223910   3.674   2.362   4.607
 7890WAT      O23911   1.403   8.955   4.438
 7890WAT     H123912   1.476   8.953   4.506
 7890WAT     H223913   1.352   8.869   4.441
 7891WAT      O23914   7.245   2.643   3.145
 7891WAT     H123915   7.153   2.616   3.171
 7891WAT     H223916   7.288   2.694   3.221
 7892WAT      O23917   9.228   1.851   0.075
 7892WAT     H123918   9.230   1.844   0.174
 7892WAT     H223919   9.307   1.903   0.043
 7893WAT      O23920   1.499   2.536   3.147
 7893WAT     H123921   1.463   2.491   3.066
 7893WAT     H223922   1.474   2.633   3.146
 7894WAT      O23923   2.377   5.747   5.109
 7894WAT     H123924   2.366   5.777   5.014
 7894WAT     H223925   2.289   5.750   5.155
 7895WAT      O23926   9.844   2.376   5.525
 7895WAT     H123927   9.797   2.370   5.436
 7895WAT     H223928   9.933   2.420   5.513
 7896WAT      O23929   7.880   2.192   9.292
 7896WAT     H123930   7.956   2.166   9.231
 7896WAT     H223931   7.895   2.285   9.327
 7897WAT      O23932   0.861   0.498   8.971
 7897WAT     H123933   0.811   0.584   8.962
 7897WAT     H223934   0.960   0.517   8.972
 7898WAT      O23935   7.132   8.338   9.759
 7898WAT     H123936   7.149   8.347   9.661
 7898WAT     H223937   7.044   8.381   9.781
 7899WAT      O23938   8.326   9.774   4.843
 7899WAT     H123939   8.322   9.714   4.764
 7899WAT     H223940   8.380   9.730   4.916
 7900WAT      O23941   7.154   8.596   6.031
 7900WAT     H123942   7.246   8.618   6.000
 7900WAT     H223943   7.143   8.497   6.036
 7901WAT      O23944   4.588   3.821   0.626
 7901WAT     H123945   4.610   3.728   0.597
 7901WAT     H223946   4.672   3.876   0.626
 7902WAT      O23947   6.793   8.599   3.219
 7902WAT     H123948   6.836   8.555   3.298
 7902WAT     H223949   6.729   8.669   3.251
 7903WAT      O23950   1.673   3.524   1.737
 7903WAT     H123951   1.667   3.429   1.765
 7903WAT     H223952   1.753   3.566   1.780
 7904WAT      O23953   0.762   2.994   9.228
 7904WAT     H123954   0.809   3.039   9.152
 7904WAT     H223955   0.827   2.976   9.301
 7905WAT      O23956   2.557   8.895   5.415
 7905WAT     H123957   2.573   8.891   5.513
 7905WAT     H223958   2.582   8.985   5.380
 7906WAT      O23959   5.890   5.774   4.041
 7906WAT     H123960   5.921   5.691   4.086
 7906WAT     H223961   5.887   5.850   4.106
 7907WAT      O23962   4.866   5.515   4.628
 7907WAT     H123963   4.893   5.527   4.724
 7907WAT     H223964   4.771   5.484   4.623
 7908WAT      O23965   8.592   0.108   5.551
 7908WAT     H123966   8.681   0.123   5.594
 7908WAT     H223967   8.597   0.135   5.455
 7909WAT      O23968   4.533   6.604   0.612
 7909WAT     H123969   4.467   6.557   0.669
 7909WAT     H223970   4.599   6.654   0.670
 7910WAT      O23971   2.515   3.969   1.536
 7910WAT     H123972   2.607   3.995   1.508
 7910WAT     H223973   2.482   3.895   1.478
 7911WAT      O23974   8.114   8.606   9.647
 7911WAT     H123975   8.210   8.614   9.672
 7911WAT     H223976   8.094   8.667   9.570
 7912WAT      O23977   1.960   3.179   5.942
 7912WAT     H123978   1.923   3.191   5.850
 7912WAT     H223979   1.950   3.264   5.993
 7913WAT      O23980   3.105   3.015   5.320
 7913WAT     H123981   3.181   2.990   5.259
 7913WAT     H223982   3.092   2.943   5.388
 7914WAT      O23983   0.303   9.072   5.371
 7914WAT     H123984   0.380   9.095   5.430
 7914WAT     H223985   0.302   9.133   5.292
 7915WAT      O23986   6.631   9.437   5.993
 7915WAT     H123987   6.655   9.521   6.041
 7915WAT     H223988   6.534   9.417   6.007
 7916WAT      O23989   2.448   7.979   9.494
 7916WAT     H123990   2.528   7.945   9.444
 7916WAT     H223991   2.387   7.903   9.515
 7917WAT      O23992   4.553   2.860   6.460
 7917WAT     H123993   4.555   2.903   6.550
 7917WAT     H223994   4.636   2.805   6.447
 7918WAT      O23995   3.114   3.967   5.903
 7918WAT     H123996   3.042   3.928   5.847
 7918WAT     H223997   3.112   4.067   5.895
 7919WAT      O23998   0.621   5.398   5.909
 7919WAT     H123999   0.598   5.492   5.935
 7919WAT     H224000   0.716   5.379   5.931
 7920WAT      O24001   9.537   8.874   4.140
 7920WAT     H124002   9.626   8.902   4.103
 7920WAT     H224003   9.545   8.781   4.176
 7921WAT      O24004   8.417   7.640   8.054
 7921WAT     H124005   8.359   7.606   7.981
 7921WAT     H224006   8.473   7.565   8.090
 7922WAT      O24007   5.353   7.066   7.979
 7922WAT     H124008   5.328   6.977   7.943
 7922WAT     H224009   5.310   7.079   8.069
 7923WAT      O24010   7.233   0.577   2.045
 7923WAT     H124011   7.251   0.578   2.144
 7923WAT     H224012   7.313   0.540   1.998
 7924WAT      O24013   8.659   9.323   8.674
 7924WAT     H124014   8.583   9.262   8.652
 7924WAT     H224015   8.714   9.338   8.591
 7925WAT      O24016   5.130   2.858   1.391
 7925WAT     H124017   5.189   2.821   1.463
 7925WAT     H224018   5.091   2.782   1.339
 7926WAT      O24019   4.837   4.240   6.644
 7926WAT     H124020   4.894   4.226   6.725
 7926WAT     H224021   4.771   4.312   6.662
 7927WAT      O24022   7.952   6.249   6.574
 7927WAT     H124023   7.890   6.189   6.524
 7927WAT     H224024   7.920   6.343   6.568
 7928WAT      O24025   3.427   3.133   4.189
 7928WAT     H124026   3.360   3.149   4.116
 7928WAT     H224027   3.486   3.057   4.164
 7929WAT      O24028   5.365   5.402   3.346
 7929WAT     H124029   5.356   5.307   3.375
 7929WAT     H224030   5.362   5.407   3.246
 7930WAT      O24031   9.821   0.685   5.696
 7930WAT     H124032   9.732   0.711   5.657
 7930WAT     H224033   9.865   0.619   5.634
 7931WAT      O24034   0.283   4.878   6.217
 7931WAT     H124035   0.220   4.815   6.172
 7931WAT     H224036   0.373   4.873   6.172
 7932WAT      O24037   9.233   3.951   9.409
 7932WAT     H124038   9.188   4.035   9.440
 7932WAT     H224039   9.261   3.962   9.314
 7933WAT      O24040   7.998   7.197   5.283
 7933WAT     H124041   7.954   7.274   5.237
 7933WAT     H224042   7.927   7.137   5.322
 7934WAT      O24043   4.050   2.379   3.301
 7934WAT     H124044   4.101   2.327   3.371
 7934WAT     H224045   3.970   2.326   3.273
 7935WAT      O24046   2.200   4.258   2.229
 7935WAT     H124047   2.252   4.341   2.252
 7935WAT     H224048   2.158   4.270   2.139
 7936WAT      O24049   0.391   9.633   8.925
 7936WAT     H124050   0.423   9.553   8.976
 7936WAT     H224051   0.291   9.638   8.930
 7937WAT      O24052   9.343   5.317   2.914
 7937WAT     H124053   9.320   5.392   2.851
 7937WAT     H224054   9.442   5.313   2.926
 7938WAT      O24055   3.814   6.397   2.675
 7938WAT     H124056   3.838   6.304   2.645
 7938WAT     H224057   3.716   6.412   2.661
 7939WAT      O24058   1.923   1.648   7.301
 7939WAT     H124059   1.965   1.677   7.215
 7939WAT     H224060   1.969   1.692   7.377
 7940WAT      O24061   4.659   7.558   7.539
 7940WAT     H124062   4.751   7.592   7.521
 7940WAT     H224063   4.653   7.462   7.509
 7941WAT      O24064   1.455   3.005   0.976
 7941WAT     H124065   1.476   2.925   0.920
 7941WAT     H224066   1.513   3.005   1.058
 7942WAT      O24067   1.934   5.719   0.691
 7942WAT     H124068   1.952   5.756   0.782
 7942WAT     H224069   2.016   5.672   0.658
 7943WAT      O24070   7.353   0.767   5.135
 7943WAT     H124071   7.295   0.746   5.213
 7943WAT     H224072   7.297   0.778   5.053
 7944WAT      O24073   4.570   1.882   2.913
 7944WAT     H124074   4.485   1.899   2.963
 7944WAT     H224075   4.578   1.784   2.894
 7945WAT      O24076   2.254   8.798   3.369
 7945WAT     H124077   2.299   8.758   3.289
 7945WAT     H224078   2.317   8.797   3.446
 7946WAT      O24079   9.060   8.721   9.830
 7946WAT     H124080   9.139   8.771   9.796
 7946WAT     H224081   9.030   8.654   9.762
 7947WAT      O24082   9.418   4.823   2.180
 7947WAT     H124083   9.325   4.833   2.215
 7947WAT     H224084   9.421   4.851   2.084
 7948WAT      O24085   9.510   9.534   3.831
 7948WAT     H124086   9.542   9.627   3.813
 7948WAT     H224087   9.584   9.469   3.813
 7949WAT      O24088   8.269   7.630   4.779
 7949WAT     H124089   8.252   7.725   4.808
 7949WAT     H224090   8.307   7.630   4.687
 7950WAT      O24091   1.004   7.202   9.484
 7950WAT     H124092   0.996   7.179   9.581
 7950WAT     H224093   0.971   7.295   9.470
 7951WAT      O24094   7.582   1.241   9.331
 7951WAT     H124095   7.519   1.165   9.315
 7951WAT     H224096   7.604   1.285   9.243
 7952WAT      O24097   7.875   9.674   9.373
 7952WAT     H124098   7.880   9.603   9.304
 7952WAT     H224099   7.894   9.763   9.332
 7953WAT      O24100   6.487   6.045   3.626
 7953WAT     H124101   6.524   6.074   3.714
 7953WAT     H224102   6.553   6.062   3.554
 7954WAT      O24103   4.327   0.466   9.290
 7954WAT     H124104   4.339   0.566   9.288
 7954WAT     H224105   4.344   0.429   9.199
 7955WAT      O24106   2.592   4.844   5.648
 7955WAT     H124107   2.593   4.789   5.732
 7955WAT     H224108   2.557   4.935   5.668
 7956WAT      O24109   8.544   0.086   6.393
 7956WAT     H124110   8.503  -0.005   6.392
 7956WAT     H224111   8.568   0.110   6.488
 7957WAT      O24112   0.632   5.711   0.267
 7957WAT     H124113   0.535   5.726   0.289
 7957WAT     H224114   0.649   5.614   0.253
 7958WAT      O24115   5.462   0.031   8.716
 7958WAT     H124116   5.436  -0.002   8.807
 7958WAT     H224117   5.451  -0.043   8.650
 7959WAT      O24118   2.157   0.909   4.977
 7959WAT     H124119   2.207   0.833   5.019
 7959WAT     H224120   2.132   0.884   4.884
 7960WAT      O24121   8.762   8.886   2.816
 7960WAT     H124122   8.834   8.945   2.851
 7960WAT     H224123   8.759   8.892   2.716
 7961WAT      O24124   6.123   9.628   3.137
 7961WAT     H124125   6.174   9.603   3.054
 7961WAT     H224126   6.170   9.704   3.182
 7962WAT      O24127   0.136   5.676   8.386
 7962WAT     H124128   0.136   5.701   8.483
 7962WAT     H224129   0.167   5.582   8.375
 7963WAT      O24130   5.329   9.835   6.370
 7963WAT     H124131   5.428   9.844   6.360
 7963WAT     H224132   5.307   9.782   6.451
 7964WAT      O24133   9.722   1.711   3.056
 7964WAT     H124134   9.675   1.631   3.018
 7964WAT     H224135   9.724   1.784   2.988
 7965WAT      O24136   7.788   0.759   7.638
 7965WAT     H124137   7.870   0.797   7.680
 7965WAT     H224138   7.743   0.828   7.581
 7966WAT      O24139   1.993   9.548   1.717
 7966WAT     H124140   1.965   9.577   1.626
 7966WAT     H224141   1.928   9.481   1.753
 7967WAT      O24142   6.265   8.104   7.853
 7967WAT     H124143   6.238   8.019   7.807
 7967WAT     H224144   6.351   8.090   7.901
 7968WAT      O24145   8.487   3.579   8.620
 7968WAT     H124146   8.494   3.610   8.715
 7968WAT     H224147   8.456   3.484   8.619
 7969WAT      O24148   3.055   7.773   1.445
 7969WAT     H124149   2.957   7.779   1.423
 7969WAT     H224150   3.079   7.677   1.460
 7970WAT      O24151   2.848   2.816   7.312
 7970WAT     H124152   2.887   2.767   7.390
 7970WAT     H224153   2.890   2.907   7.306
 7971WAT      O24154   7.503   5.142   5.400
 7971WAT     H124155   7.540   5.063   5.449
 7971WAT     H224156   7.570   5.216   5.400
 7972WAT      O24157   8.940   3.793   3.771
 7972WAT     H124158   8.950   3.824   3.676
 7972WAT     H224159   8.863   3.729   3.776
 7973WAT      O24160   4.625   7.179   1.219
 7973WAT     H124161   4.554   7.241   1.253
 7973WAT     H224162   4.709   7.230   1.203
 7974WAT      O24163   0.971   5.367   3.314
 7974WAT     H124164   0.993   5.274   3.285
 7974WAT     H224165   1.004   5.432   3.246
 7975WAT      O24166   9.702   9.693   9.233
 7975WAT     H124167   9.700   9.633   9.313
 7975WAT     H224168   9.665   9.782   9.258
 7976WAT      O24169   2.108   2.828   2.435
 7976WAT     H124170   2.155   2.880   2.506
 7976WAT     H224171   2.135   2.732   2.440
 7977WAT      O24172   7.031   6.444   3.279
 7977WAT     H124173   7.098   6.514   3.254
 7977WAT     H224174   6.982   6.472   3.361
 7978WAT      O24175   7.957   0.613   4.410
 7978WAT     H124176   7.956   0.683   4.482
 7978WAT     H224177   7.992   0.652   4.325
 7979WAT      O24178   4.686   4.861   1.702
 7979WAT     H124179   4.602   4.806   1.695
 7979WAT     H224180   4.707   4.900   1.613
 7980WAT      O24181   3.853   6.939   3.016
 7980WAT     H124182   3.898   6.864   2.967
 7980WAT     H224183   3.909   7.022   3.010
 7981WAT      O24184   4.236   0.565   6.700
 7981WAT     H124185   4.310   0.604   6.644
 7981WAT     H224186   4.214   0.473   6.666
 7982WAT      O24187   4.338   1.408   3.233
 7982WAT     H124188   4.266   1.415   3.302
 7982WAT     H224189   4.403   1.337   3.260
 7983WAT      O24190   3.191   3.241   5.989
 7983WAT     H124191   3.256   3.214   6.060
 7983WAT     H224192   3.238   3.244   5.900
 7984WAT      O24193   1.965   9.354   5.942
 7984WAT     H124194   2.036   9.418   5.914
 7984WAT     H224195   1.963   9.275   5.880
 7985WAT      O24196   8.781   2.711   1.522
 7985WAT     H124197   8.692   2.756   1.520
 7985WAT     H224198   8.845   2.761   1.464
 7986WAT      O24199   9.338   1.179   6.458
 7986WAT     H124200   9.389   1.207   6.539
 7986WAT     H224201   9.389   1.107   6.410
 7987WAT      O24202   7.116   1.087   8.442
 7987WAT     H124203   7.136   0.992   8.417
 7987WAT     H224204   7.192   1.125   8.495
 7988WAT      O24205   3.063   5.127   8.828
 7988WAT     H124206   3.120   5.066   8.773
 7988WAT     H224207   2.968   5.096   8.822
 7989WAT      O24208   6.416   0.446   1.391
 7989WAT     H124209   6.322   0.471   1.366
 7989WAT     H224210   6.466   0.416   1.310
 7990WAT      O24211   8.309   3.888   3.439
 7990WAT     H124212   8.276   3.978   3.468
 7990WAT     H224213   8.232   3.828   3.421
 7991WAT      O24214   7.707   5.314   0.493
 7991WAT     H124215   7.716   5.285   0.589
 7991WAT     H224216   7.797   5.325   0.453
 7992WAT      O24217   9.669   1.614   3.494
 7992WAT     H124218   9.706   1.530   3.456
 7992WAT     H224219   9.573   1.622   3.468
 7993WAT      O24220   6.082   2.451   6.755
 7993WAT     H124221   6.050   2.499   6.673
 7993WAT     H224222   6.051   2.500   6.837
 7994WAT      O24223   2.236   5.958   9.404
 7994WAT     H124224   2.142   5.926   9.416
 7994WAT     H224225   2.239   6.057   9.416
 7995WAT      O24226   6.976   4.994   7.545
 7995WAT     H124227   6.879   4.998   7.569
 7995WAT     H224228   6.998   5.068   7.481
 7996WAT      O24229   9.189   9.010   4.034
 7996WAT     H124230   9.137   8.989   3.951
 7996WAT     H224231   9.279   9.046   4.009
 7997WAT      O24232   0.228   3.773   6.175
 7997WAT     H124233   0.160   3.769   6.102
 7997WAT     H224234   0.257   3.868   6.188
 7998WAT      O24235   1.716   8.882   7.010
 7998WAT     H124236   1.743   8.789   7.035
 7998WAT     H224237   1.751   8.904   6.919
 7999WAT      O24238   8.439   4.199   0.798
 7999WAT     H124239   8.503   4.177   0.872
 7999WAT     H224240   8.473   4.278   0.748
 8000WAT      O24241   6.234   5.126   4.243
 8000WAT     H124242   6.230   5.225   4.227
 8000WAT     H224243   6.321   5.090   4.208
 8001WAT      O24244   4.082   8.680   7.825
 8001WAT     H124245   4.121   8.726   7.746
 8001WAT     H224246   3.982   8.685   7.820
 8002WAT      O24247   8.395   7.378   7.890
 8002WAT     H124248   8.321   7.322   7.930
 8002WAT     H224249   8.374   7.398   7.795
 8003WAT      O24250   1.928   7.981   3.100
 8003WAT     H124251   1.932   7.885   3.128
 8003WAT     H224252   1.941   8.040   3.180
 8004WAT      O24253   1.292   0.214   1.615
 8004WAT     H124254   1.291   0.275   1.694
 8004WAT     H224255   1.292   0.270   1.531
 8005WAT      O24256   3.334   1.208   4.634
 8005WAT     H124257   3.328   1.108   4.642
 8005WAT     H224258   3.394   1.244   4.706
 8006WAT      O24259   9.481   5.189   6.434
 8006WAT     H124260   9.535   5.206   6.352
 8006WAT     H224261   9.515   5.246   6.509
 8007WAT      O24262   1.382   0.984   4.803
 8007WAT     H124263   1.371   1.005   4.900
 8007WAT     H224264   1.419   1.064   4.756
 8008WAT      O24265   8.123   4.843   6.413
 8008WAT     H124266   8.220   4.840   6.388
 8008WAT     H224267   8.107   4.922   6.473
 8009WAT      O24268   1.835   3.218   0.930
 8009WAT     H124269   1.893   3.291   0.894
 8009WAT     H224270   1.754   3.258   0.973
 8010WAT      O24271   6.643   6.323   1.282
 8010WAT     H124272   6.597   6.285   1.362
 8010WAT     H224273   6.698   6.252   1.238
 8011WAT      O24274   6.262   0.155   9.040
 8011WAT     H124275   6.216   0.223   8.982
 8011WAT     H224276   6.198   0.122   9.110
 8012WAT      O24277   8.440   7.809   9.809
 8012WAT     H124278   8.409   7.719   9.840
 8012WAT     H224279   8.363   7.872   9.809
 8013WAT      O24280   0.471   0.750   3.782
 8013WAT     H124281   0.476   0.728   3.685
 8013WAT     H224282   0.433   0.842   3.794
 8014WAT      O24283   3.494   0.574   2.917
 8014WAT     H124284   3.467   0.511   2.844
 8014WAT     H224285   3.415   0.595   2.974
 8015WAT      O24286   7.217   7.694   5.010
 8015WAT     H124287   7.301   7.742   4.987
 8015WAT     H224288   7.238   7.599   5.034
 8016WAT      O24289   2.621   4.995   8.145
 8016WAT     H124290   2.609   4.911   8.198
 8016WAT     H224291   2.640   4.972   8.050
 8017WAT      O24292   1.082   7.593   9.708
 8017WAT     H124293   1.153   7.572   9.641
 8017WAT     H224294   1.002   7.630   9.662
 8018WAT      O24295   7.994   4.915   0.481
 8018WAT     H124296   8.002   4.846   0.553
 8018WAT     H224297   7.899   4.943   0.472
 8019WAT      O24298   3.004   2.205   9.779
 8019WAT     H124299   3.073   2.186   9.849
 8019WAT     H224300   2.913   2.185   9.816
 8020WAT      O24301   5.931   4.224   1.525
 8020WAT     H124302   6.023   4.199   1.557
 8020WAT     H224303   5.928   4.217   1.425
 8021WAT      O24304   7.097   3.354   3.517
 8021WAT     H124305   7.118   3.270   3.568
 8021WAT     H224306   7.097   3.334   3.419
 8022WAT      O24307   6.026   7.541   5.871
 8022WAT     H124308   6.024   7.525   5.772
 8022WAT     H224309   6.000   7.456   5.918
 8023WAT      O24310   5.497   2.510   7.926
 8023WAT     H124311   5.435   2.573   7.972
 8023WAT     H224312   5.524   2.437   7.989
 8024WAT      O24313   1.009   7.137   8.616
 8024WAT     H124314   1.042   7.043   8.610
 8024WAT     H224315   0.909   7.137   8.610
 8025WAT      O24316   1.043   0.139   2.579
 8025WAT     H124317   1.128   0.187   2.602
 8025WAT     H224318   1.050   0.043   2.603
 8026WAT      O24319   6.022   8.288   1.588
 8026WAT     H124320   5.958   8.261   1.661
 8026WAT     H224321   6.061   8.206   1.546
 8027WAT      O24322   9.491   1.195   5.374
 8027WAT     H124323   9.590   1.183   5.368
 8027WAT     H224324   9.470   1.267   5.440
 8028WAT      O24325   2.505   1.276   1.256
 8028WAT     H124326   2.455   1.322   1.182
 8028WAT     H224327   2.581   1.334   1.286
 8029WAT      O24328   0.683   8.635   3.408
 8029WAT     H124329   0.609   8.596   3.462
 8029WAT     H224330   0.650   8.716   3.360
 8030WAT      O24331   4.364   8.659   8.246
 8030WAT     H124332   4.269   8.629   8.235
 8030WAT     H224333   4.403   8.678   8.156
 8031WAT      O24334   5.991   1.982   8.039
 8031WAT     H124335   6.040   1.927   8.106
 8031WAT     H224336   6.039   2.069   8.026
 8032WAT      O24337   2.604   8.632   1.087
 8032WAT     H124338   2.507   8.629   1.112
 8032WAT     H224339   2.613   8.618   0.988
 8033WAT      O24340   6.659   4.161   1.551
 8033WAT     H124341   6.731   4.229   1.565
 8033WAT     H224342   6.687   4.097   1.480
 8034WAT      O24343   3.481   9.841   2.620
 8034WAT     H124344   3.511   9.747   2.634
 8034WAT     H224345   3.432   9.872   2.702
 8035WAT      O24346   9.661   6.073   6.128
 8035WAT     H124347   9.637   6.010   6.202
 8035WAT     H224348   9.751   6.112   6.145
 8036WAT      O24349   3.398   2.662   2.781
 8036WAT     H124350   3.410   2.758   2.758
 8036WAT     H224351   3.395   2.651   2.881
 8037WAT      O24352   6.764   0.525   7.670
 8037WAT     H124353   6.824   0.596   7.706
 8037WAT     H224354   6.729   0.554   7.580
 8038WAT      O24355   4.569   5.679   6.212
 8038WAT     H124356   4.641   5.725   6.264
 8038WAT     H224357   4.610   5.622   6.141
 8039WAT      O24358   5.496   4.432   1.401
 8039WAT     H124359   5.575   4.412   1.459
 8039WAT     H224360   5.497   4.528   1.374
 8040WAT      O24361   3.499   8.468   6.451
 8040WAT     H124362   3.485   8.492   6.355
 8040WAT     H224363   3.436   8.521   6.508
 8041WAT      O24364   2.284   7.189   9.775
 8041WAT     H124365   2.353   7.217   9.708
 8041WAT     H224366   2.250   7.269   9.824
 8042WAT      O24367   1.530   4.385   9.484
 8042WAT     H124368   1.541   4.337   9.397
 8042WAT     H224369   1.510   4.482   9.467
 8043WAT      O24370   3.724   7.701   7.739
 8043WAT     H124371   3.771   7.789   7.733
 8043WAT     H224372   3.674   7.696   7.826
 8044WAT      O24373   8.900   4.429   8.102
 8044WAT     H124374   8.988   4.396   8.136
 8044WAT     H224375   8.836   4.352   8.097
 8045WAT      O24376   8.435   6.133   4.726
 8045WAT     H124377   8.525   6.155   4.688
 8045WAT     H224378   8.400   6.212   4.777
 8046WAT      O24379   5.813   3.518   1.722
 8046WAT     H124380   5.858   3.556   1.641
 8046WAT     H224381   5.835   3.420   1.729
 8047WAT      O24382   5.560   6.159   8.978
 8047WAT     H124383   5.509   6.158   8.892
 8047WAT     H224384   5.597   6.251   8.994
 8048WAT      O24385   6.136   9.282   4.837
 8048WAT     H124386   6.126   9.269   4.739
 8048WAT     H224387   6.071   9.352   4.867
 8049WAT      O24388   6.430   5.944   4.049
 8049WAT     H124389   6.388   6.026   4.008
 8049WAT     H224390   6.495   5.972   4.119
 8050WAT      O24391   6.770   7.949   4.070
 8050WAT     H124392   6.718   8.003   4.004
 8050WAT     H224393   6.719   7.945   4.157
 8051WAT      O24394   9.659   2.389   3.610
 8051WAT     H124395   9.705   2.466   3.653
 8051WAT     H224396   9.562   2.390   3.634
 8052WAT      O24397   2.612   6.524   7.883
 8052WAT     H124398   2.672   6.512   7.803
 8052WAT     H224399   2.618   6.619   7.915
 8053WAT      O24400   5.753   8.937   8.412
 8053WAT     H124401   5.846   8.958   8.380
 8053WAT     H224402   5.745   8.959   8.509
 8054WAT      O24403   2.344   3.781   9.409
 8054WAT     H124404   2.285   3.835   9.469
 8054WAT     H224405   2.381   3.839   9.336
 8055WAT      O24406   2.060   7.314   4.739
 8055WAT     H124407   1.984   7.307   4.803
 8055WAT     H224408   2.059   7.236   4.676
 8056WAT      O24409   0.726   3.305   2.961
 8056WAT     H124410   0.700   3.334   3.053
 8056WAT     H224411   0.790   3.228   2.966
 8057WAT      O24412   7.118   4.055   8.234
 8057WAT     H124413   7.174   4.110   8.173
 8057WAT     H224414   7.144   3.959   8.226
 8058WAT      O24415   1.601   8.426   8.274
 8058WAT     H124416   1.512   8.407   8.315
 8058WAT     H224417   1.659   8.345   8.280
 8059WAT      O24418   4.402   1.723   3.617
 8059WAT     H124419   4.472   1.725   3.545
 8059WAT     H224420   4.380   1.816   3.645
 8060WAT      O24421   4.727   8.813   6.325
 8060WAT     H124422   4.794   8.847   6.259
 8060WAT     H224423   4.666   8.888   6.353
 8061WAT      O24424   6.451   0.300   6.524
 8061WAT     H124425   6.473   0.363   6.448
 8061WAT     H224426   6.471   0.206   6.496
 8062WAT      O24427   5.208   2.435   8.946
 8062WAT     H124428   5.173   2.346   8.974
 8062WAT     H224429   5.307   2.439   8.962
 8063WAT      O24430   3.953   9.188   7.883
 8063WAT     H124431   3.879   9.153   7.940
 8063WAT     H224432   3.936   9.284   7.861
 8064WAT      O24433   3.280   0.871   0.712
 8064WAT     H124434   3.348   0.944   0.716
 8064WAT     H224435   3.209   0.895   0.645
 8065WAT      O24436   5.659   3.719   7.001
 8065WAT     H124437   5.644   3.735   6.904
 8065WAT     H224438   5.701   3.629   7.013
 8066WAT      O24439   8.392   1.019   6.100
 8066WAT     H124440   8.433   0.984   6.184
 8066WAT     H224441   8.435   0.976   6.021
 8067WAT      O24442   7.514   0.714   3.279
 8067WAT     H124443   7.497   0.813   3.284
 8067WAT     H224444   7.445   0.666   3.333
 8068WAT      O24445   6.622   0.576   1.559
 8068WAT     H124446   6.546   0.519   1.529
 8068WAT     H224447   6.689   0.521   1.608
 8069WAT      O24448   2.274   5.939   2.011
 8069WAT     H124449   2.373   5.930   2.019
 8069WAT     H224450   2.242   5.894   1.927
 8070WAT      O24451   2.694   6.751   3.451
 8070WAT     H124452   2.681   6.674   3.514
 8070WAT     H224453   2.627   6.823   3.473
 8071WAT      O24454   7.781   5.662   3.981
 8071WAT     H124455   7.697   5.653   4.035
 8071WAT     H224456   7.801   5.759   3.967
 8072WAT      O24457   9.218   3.076   5.339
 8072WAT     H124458   9.267   3.061   5.253
 8072WAT     H224459   9.148   3.005   5.351
 8073WAT      O24460   0.875   8.167   5.028
 8073WAT     H124461   0.793   8.155   5.084
 8073WAT     H224462   0.936   8.233   5.071
 8074WAT      O24463   4.787   1.806   7.751
 8074WAT     H124464   4.882   1.806   7.722
 8074WAT     H224465   4.750   1.899   7.746
 8075WAT      O24466   1.272   3.854   1.612
 8075WAT     H124467   1.254   3.942   1.567
 8075WAT     H224468   1.371   3.841   1.620
 8076WAT      O24469   1.876   3.681   1.846
 8076WAT     H124470   1.862   3.718   1.938
 8076WAT     H224471   1.867   3.754   1.779
 8077WAT      O24472   5.390   7.580   0.715
 8077WAT     H124473   5.403   7.504   0.778
 8077WAT     H224474   5.422   7.552   0.624
 8078WAT      O24475   6.477   6.227   4.588
 8078WAT     H124476   6.506   6.321   4.606
 8078WAT     H224477   6.378   6.221   4.597
 8079WAT      O24478   0.169   1.263   7.091
 8079WAT     H124479   0.229   1.338   7.118
 8079WAT     H224480   0.219   1.176   7.102
 8080WAT      O24481   2.821   1.089   0.692
 8080WAT     H124482   2.877   1.169   0.669
 8080WAT     H224483   2.783   1.050   0.609
 8081WAT      O24484   5.865   9.376   6.533
 8081WAT     H124485   5.810   9.454   6.505
 8081WAT     H224486   5.852   9.360   6.631
 8082WAT      O24487   2.874   9.416   8.225
 8082WAT     H124488   2.829   9.340   8.274
 8082WAT     H224489   2.972   9.413   8.242
 8083WAT      O24490   8.122   8.458   5.250
 8083WAT     H124491   8.207   8.510   5.235
 8083WAT     H224492   8.067   8.504   5.320
 8084WAT      O24493   1.993   9.023   8.943
 8084WAT     H124494   1.973   9.024   8.846
 8084WAT     H224495   1.915   9.058   8.994
 8085WAT      O24496   3.634   7.904   8.324
 8085WAT     H124497   3.598   7.812   8.315
 8085WAT     H224498   3.720   7.912   8.274
 8086WAT      O24499   5.724   4.709   2.427
 8086WAT     H124500   5.804   4.743   2.477
 8086WAT     H224501   5.752   4.677   2.337
 8087WAT      O24502   5.477   4.405   7.087
 8087WAT     H124503   5.503   4.502   7.093
 8087WAT     H224504   5.552   4.349   7.123
 8088WAT      O24505   2.030   5.418   0.851
 8088WAT     H124506   2.121   5.389   0.881
 8088WAT     H224507   2.038   5.491   0.783
 8089WAT      O24508   5.921   8.575   1.774
 8089WAT     H124509   6.014   8.611   1.761
 8089WAT     H224510   5.896   8.519   1.695
 8090WAT      O24511   1.204   9.826   9.179
 8090WAT     H124512   1.242   9.877   9.256
 8090WAT     H224513   1.263   9.837   9.099
 8091WAT      O24514   7.577   5.461   2.573
 8091WAT     H124515   7.639   5.484   2.498
 8091WAT     H224516   7.601   5.515   2.654
 8092WAT      O24517   3.015   0.635   3.386
 8092WAT     H124518   3.113   0.643   3.399
 8092WAT     H224519   2.974   0.589   3.464
 8093WAT      O24520   4.077   9.330   5.644
 8093WAT     H124521   4.045   9.407   5.699
 8093WAT     H224522   3.999   9.271   5.623
 8094WAT      O24523   1.717   2.342   3.027
 8094WAT     H124524   1.645   2.409   3.008
 8094WAT     H224525   1.789   2.385   3.081
 8095WAT      O24526   1.235   7.126   5.755
 8095WAT     H124527   1.165   7.058   5.773
 8095WAT     H224528   1.230   7.156   5.660
 8096WAT      O24529   3.677   9.644   3.377
 8096WAT     H124530   3.590   9.605   3.348
 8096WAT     H224531   3.669   9.678   3.471
 8097WAT      O24532   3.211   4.060   4.188
 8097WAT     H124533   3.293   4.095   4.142
 8097WAT     H224534   3.150   4.018   4.121
 8098WAT      O24535   8.402   4.179   4.497
 8098WAT     H124536   8.452   4.263   4.477
 8098WAT     H224537   8.351   4.151   4.416
 8099WAT      O24538   8.506   9.251   5.494
 8099WAT     H124539   8.523   9.338   5.540
 8099WAT     H224540   8.567   9.241   5.415
 8100WAT      O24541   1.557   3.952   6.474
 8100WAT     H124542   1.489   3.894   6.430
 8100WAT     H224543   1.556   4.043   6.432
 8101WAT      O24544   4.111   7.259   8.384
 8101WAT     H124545   4.194   7.204   8.377
 8101WAT     H224546   4.129   7.351   8.351
 8102WAT      O24547   5.335   4.419   1.697
 8102WAT     H124548   5.273   4.446   1.623
 8102WAT     H224549   5.393   4.343   1.667
 8103WAT      O24550   4.449   4.379   3.081
 8103WAT     H124551   4.466   4.422   3.170
 8103WAT     H224552   4.351   4.378   3.063
 8104WAT      O24553   3.801   5.992   7.234
 8104WAT     H124554   3.735   5.976   7.308
 8104WAT     H224555   3.893   5.994   7.271
 8105WAT      O24556   8.149   1.107   5.061
 8105WAT     H124557   8.087   1.096   4.983
 8105WAT     H224558   8.095   1.111   5.146
 8106WAT      O24559   0.982   8.543   2.043
 8106WAT     H124560   1.014   8.637   2.045
 8106WAT     H224561   0.993   8.505   1.952
 8107WAT      O24562   8.991   6.888   8.749
 8107WAT     H124563   8.896   6.898   8.717
 8107WAT     H224564   9.006   6.948   8.828
 8108WAT      O24565   6.104   5.246   3.259
 8108WAT     H124566   6.092   5.146   3.258
 8108WAT     H224567   6.174   5.272   3.193
 8109WAT      O24568   6.201   7.553   7.618
 8109WAT     H124569   6.131   7.588   7.681
 8109WAT     H224570   6.171   7.465   7.581
 8110WAT      O24571   6.103   8.040   0.507
 8110WAT     H124572   6.101   8.133   0.471
 8110WAT     H224573   6.158   7.981   0.447
 8111WAT      O24574   2.193   1.938   6.392
 8111WAT     H124575   2.125   1.893   6.450
 8111WAT     H224576   2.164   1.934   6.297
 8112WAT      O24577   7.864   2.959   7.270
 8112WAT     H124578   7.944   2.977   7.328
 8112WAT     H224579   7.858   3.028   7.198
 8113WAT      O24580   0.527   1.356   9.553
 8113WAT     H124581   0.438   1.367   9.598
 8113WAT     H224582   0.576   1.279   9.596
 8114WAT      O24583   6.850   6.515   1.302
 8114WAT     H124584   6.776   6.447   1.297
 8114WAT     H224585   6.858   6.562   1.214
 8115WAT      O24586   7.027   5.636   6.375
 8115WAT     H124587   7.074   5.659   6.461
 8115WAT     H224588   7.019   5.537   6.367
 8116WAT      O24589   6.338   1.940   0.937
 8116WAT     H124590   6.264   1.906   0.879
 8116WAT     H224591   6.332   2.040   0.942
 8117WAT      O24592   5.761   6.416   5.004
 8117WAT     H124593   5.794   6.477   4.931
 8117WAT     H224594   5.687   6.359   4.968
 8118WAT      O24595   4.561   8.821   4.005
 8118WAT     H124596   4.653   8.784   3.989
 8118WAT     H224597   4.556   8.860   4.097
 8119WAT      O24598   3.484   3.833   3.891
 8119WAT     H124599   3.500   3.801   3.984
 8119WAT     H224600   3.514   3.928   3.883
 8120WAT      O24601   4.628   2.841   8.030
 8120WAT     H124602   4.608   2.802   8.120
 8120WAT     H224603   4.718   2.885   8.032
 8121WAT      O24604   8.476   8.425   0.251
 8121WAT     H124605   8.418   8.489   0.201
 8121WAT     H224606   8.469   8.334   0.209
 8122WAT      O24607   4.291   0.952   8.638
 8122WAT     H124608   4.301   0.925   8.542
 8122WAT     H224609   4.224   0.893   8.682
 8123WAT      O24610   1.241   7.358   0.775
 8123WAT     H124611   1.262   7.288   0.843
 8123WAT     H224612   1.153   7.338   0.731
 8124WAT      O24613   2.439   5.876   6.016
 8124WAT     H124614   2.465   5.799   6.075
 8124WAT     H224615   2.479   5.960   6.052
 8125WAT      O24616   3.284   5.815   7.137
 8125WAT     H124617   3.302   5.720   7.164
 8125WAT     H224618   3.186   5.828   7.123
 8126WAT      O24619   6.442   5.864   3.300
 8126WAT     H124620   6.436   5.774   3.343
 8126WAT     H224621   6.352   5.889   3.264
 8127WAT      O24622   9.397   8.431   8.250
 8127WAT     H124623   9.410   8.525   8.283
 8127WAT     H224624   9.345   8.432   8.165
 8128WAT      O24625   0.295   8.523   5.534
 8128WAT     H124626   0.305   8.528   5.435
 8128WAT     H224627   0.212   8.570   5.562
 8129WAT      O24628   5.674   5.882   1.000
 8129WAT     H124629   5.623   5.807   0.959
 8129WAT     H224630   5.772   5.869   0.982
 8130WAT      O24631   2.414   4.104   5.987
 8130WAT     H124632   2.479   4.045   5.940
 8130WAT     H224633   2.464   4.164   6.051
 8131WAT      O24634   4.253   0.950   4.782
 8131WAT     H124635   4.336   0.964   4.836
 8131WAT     H224636   4.222   0.855   4.793
 8132WAT      O24637   2.258   4.804   1.827
 8132WAT     H124638   2.238   4.808   1.925
 8132WAT     H224639   2.235   4.714   1.791
 8133WAT      O24640   5.283   5.223   9.083
 8133WAT     H124641   5.271   5.317   9.117
 8133WAT     H224642   5.348   5.223   9.008
 8134WAT      O24643   4.018   3.930   4.225
 8134WAT     H124644   4.095   3.988   4.199
 8134WAT     H224645   3.936   3.986   4.235
 8135WAT      O24646   4.961   6.219   9.794
 8135WAT     H124647   4.926   6.249   9.705
 8135WAT     H224648   4.918   6.132   9.819
 8136WAT      O24649   1.806   1.704   1.835
 8136WAT     H124650   1.753   1.625   1.863
 8136WAT     H224651   1.878   1.722   1.902
 8137WAT      O24652   8.801   3.164   4.357
 8137WAT     H124653   8.844   3.242   4.311
 8137WAT     H224654   8.817   3.081   4.304
 8138WAT      O24655   0.428   2.447   9.632
 8138WAT     H124656   0.352   2.389   9.657
 8138WAT     H224657   0.415   2.539   9.670
 8139WAT      O24658   7.915   5.676   6.320
 8139WAT     H124659   7.995   5.730   6.293
 8139WAT     H224660   7.945   5.588   6.357
 8140WAT      O24661   2.614   7.189   1.270
 8140WAT     H124662   2.589   7.206   1.365
 8140WAT     H224663   2.607   7.274   1.218
 8141WAT      O24664   0.847   6.468   9.483
 8141WAT     H124665   0.843   6.527   9.563
 8141WAT     H224666   0.941   6.459   9.452
 8142WAT      O24667   3.848   8.763   4.935
 8142WAT     H124668   3.859   8.705   4.854
 8142WAT     H224669   3.925   8.826   4.940
 8143WAT      O24670   2.441   1.396   0.276
 8143WAT     H124671   2.458   1.465   0.206
 8143WAT     H224672   2.528   1.358   0.307
 8144WAT      O24673   7.496   4.918   1.046
 8144WAT     H124674   7.403   4.901   1.076
 8144WAT     H224675   7.522   5.012   1.067
 8145WAT      O24676   7.309   0.695   3.864
 8145WAT     H124677   7.302   0.702   3.964
 8145WAT     H224678   7.399   0.729   3.835
 8146WAT      O24679   2.545   6.036   1.470
 8146WAT     H124680   2.582   6.028   1.563
 8146WAT     H224681   2.590   6.112   1.423
 8147WAT      O24682   9.441   1.874   9.666
 8147WAT     H124683   9.358   1.876   9.611
 8147WAT     H224684   9.437   1.945   9.736
 8148WAT      O24685   9.550   1.966   8.763
 8148WAT     H124686   9.622   2.030   8.738
 8148WAT     H224687   9.589   1.889   8.812
 8149WAT      O24688   4.035   1.522   6.392
 8149WAT     H124689   4.117   1.564   6.430
 8149WAT     H224690   3.971   1.502   6.466
 8150WAT      O24691   7.909   5.916   6.713
 8150WAT     H124692   7.998   5.877   6.692
 8150WAT     H224693   7.913   6.016   6.703
 8151WAT      O24694   3.829   1.986   6.316
 8151WAT     H124695   3.779   1.990   6.403
 8151WAT     H224696   3.825   1.893   6.280
 8152WAT      O24697   3.139   0.065   3.716
 8152WAT     H124698   3.227   0.028   3.687
 8152WAT     H224699   3.086   0.090   3.635
 8153WAT      O24700   0.979   5.883   9.182
 8153WAT     H124701   0.964   5.785   9.169
 8153WAT     H224702   1.047   5.897   9.255
 8154WAT      O24703   7.960   6.807   7.708
 8154WAT     H124704   8.045   6.781   7.754
 8154WAT     H224705   7.884   6.796   7.772
 8155WAT      O24706   5.125   2.556   6.261
 8155WAT     H124707   5.034   2.582   6.293
 8155WAT     H224708   5.181   2.638   6.250
 8156WAT      O24709   4.535   9.305   0.404
 8156WAT     H124710   4.474   9.377   0.436
 8156WAT     H224711   4.520   9.289   0.306
 8157WAT      O24712   8.385   8.193   2.947
 8157WAT     H124713   8.479   8.213   2.974
 8157WAT     H224714   8.332   8.278   2.946
 8158WAT      O24715   6.873   4.129   9.268
 8158WAT     H124716   6.910   4.214   9.231
 8158WAT     H224717   6.935   4.094   9.339
 8159WAT      O24718   5.924   0.264   2.607
 8159WAT     H124719   5.873   0.179   2.617
 8159WAT     H224720   5.871   0.340   2.644
 8160WAT      O24721   5.937   3.854   5.538
 8160WAT     H124722   6.034   3.876   5.531
 8160WAT     H224723   5.917   3.771   5.485
 8161WAT      O24724   4.551   8.382   3.490
 8161WAT     H124725   4.605   8.456   3.450
 8161WAT     H224726   4.519   8.320   3.418
 8162WAT      O24727   6.770   4.347   8.136
 8162WAT     H124728   6.681   4.391   8.151
 8162WAT     H224729   6.758   4.248   8.134
 8163WAT      O24730   1.764   6.598   2.553
 8163WAT     H124731   1.831   6.667   2.579
 8163WAT     H224732   1.680   6.643   2.523
 8164WAT      O24733   4.533   1.343   2.009
 8164WAT     H124734   4.579   1.350   2.097
 8164WAT     H224735   4.450   1.288   2.018
 8165WAT      O24736   7.822   1.158   7.255
 8165WAT     H124737   7.868   1.198   7.334
 8165WAT     H224738   7.831   1.219   7.176
 8166WAT      O24739   1.236   1.538   5.097
 8166WAT     H124740   1.261   1.522   5.002
 8166WAT     H224741   1.313   1.580   5.145
 8167WAT      O24742   5.976   9.519   7.769
 8167WAT     H124743   6.064   9.546   7.807
 8167WAT     H224744   5.956   9.576   7.689
 8168WAT      O24745   6.798   1.114   3.865
 8168WAT     H124746   6.856   1.169   3.805
 8168WAT     H224747   6.770   1.169   3.944
 8169WAT      O24748   9.367   0.439   4.916
 8169WAT     H124749   9.305   0.511   4.948
 8169WAT     H224750   9.317   0.352   4.912
 8170WAT      O24751   9.339   9.308   5.727
 8170WAT     H124752   9.351   9.371   5.803
 8170WAT     H224753   9.392   9.224   5.744
 8171WAT      O24754   4.510   3.876   0.345
 8171WAT     H124755   4.516   3.891   0.443
 8171WAT     H224756   4.599   3.844   0.311
 8172WAT      O24757   2.831   6.946   7.102
 8172WAT     H124758   2.875   6.958   7.012
 8172WAT     H224759   2.861   6.859   7.142
 8173WAT      O24760   3.525   9.560   2.689
 8173WAT     H124761   3.504   9.463   2.678
 8173WAT     H224762   3.613   9.580   2.645
 8174WAT      O24763   6.224   2.296   0.070
 8174WAT     H124764   6.150   2.282   0.136
 8174WAT     H224765   6.193   2.358  -0.002
 8175WAT      O24766   2.355   8.238   9.433
 8175WAT     H124767   2.377   8.143   9.456
 8175WAT     H224768   2.440   8.287   9.412
 8176WAT      O24769   4.104   8.200   8.756
 8176WAT     H124770   4.008   8.208   8.783
 8176WAT     H224771   4.153   8.282   8.785
 8177WAT      O24772   0.876   1.227   1.992
 8177WAT     H124773   0.829   1.306   1.952
 8177WAT     H224774   0.840   1.210   2.084
 8178WAT      O24775   1.795   1.281   0.110
 8178WAT     H124776   1.878   1.335   0.093
 8178WAT     H224777   1.785   1.213   0.037
 8179WAT      O24778   3.802   9.344   4.382
 8179WAT     H124779   3.858   9.274   4.338
 8179WAT     H224780   3.706   9.328   4.361
 8180WAT      O24781   2.179   3.422   9.811
 8180WAT     H124782   2.203   3.515   9.785
 8180WAT     H224783   2.131   3.377   9.736
 8181WAT      O24784   9.264   7.880   3.883
 8181WAT     H124785   9.356   7.904   3.913
 8181WAT     H224786   9.259   7.882   3.783
 8182WAT      O24787   8.519   5.812   0.515
 8182WAT     H124788   8.507   5.909   0.492
 8182WAT     H224789   8.595   5.775   0.462
 8183WAT      O24790   7.737   8.997   3.382
 8183WAT     H124791   7.831   8.998   3.348
 8183WAT     H224792   7.738   8.990   3.482
 8184WAT      O24793   0.736   9.012   0.060
 8184WAT     H124794   0.811   8.960   0.101
 8184WAT     H224795   0.764   9.046  -0.030
 8185WAT      O24796   8.719   8.896   0.196
 8185WAT     H124797   8.765   8.811   0.222
 8185WAT     H224798   8.767   8.938   0.119
 8186WAT      O24799   6.511   5.342   2.292
 8186WAT     H124800   6.511   5.331   2.193
 8186WAT     H224801   6.574   5.416   2.317
 8187WAT      O24802   8.310   6.766   4.334
 8187WAT     H124803   8.252   6.845   4.318
 8187WAT     H224804   8.289   6.726   4.423
 8188WAT      O24805   5.000   6.420   4.048
 8188WAT     H124806   5.050   6.475   4.115
 8188WAT     H224807   5.012   6.323   4.070
 8189WAT      O24808   9.105   2.807   6.040
 8189WAT     H124809   9.100   2.710   6.062
 8189WAT     H224810   9.048   2.859   6.103
 8190WAT      O24811   4.506   1.725   9.340
 8190WAT     H124812   4.496   1.796   9.271
 8190WAT     H224813   4.420   1.675   9.350
 8191WAT      O24814   9.371   9.123   2.860
 8191WAT     H124815   9.316   9.164   2.933
 8191WAT     H224816   9.345   9.027   2.848
 8192WAT      O24817   3.351   3.967   9.365
 8192WAT     H124818   3.306   4.056   9.353
 8192WAT     H224819   3.432   3.963   9.307
 8193WAT      O24820   0.113   3.221   2.766
 8193WAT     H124821   0.210   3.233   2.743
 8193WAT     H224822   0.105   3.181   2.857
 8194WAT      O24823   0.345   1.760   5.751
 8194WAT     H124824   0.290   1.683   5.782
 8194WAT     H224825   0.342   1.765   5.651
 8195WAT      O24826   0.975   9.519   3.400
 8195WAT     H124827   0.965   9.537   3.302
 8195WAT     H224828   1.031   9.437   3.414
 8196WAT      O24829   5.289   7.441   2.736
 8196WAT     H124830   5.334   7.388   2.808
 8196WAT     H224831   5.250   7.379   2.668
 8197WAT      O24832   6.178   3.020   9.581
 8197WAT     H124833   6.084   3.012   9.549
 8197WAT     H224834   6.241   2.988   9.510
 8198WAT      O24835   8.699   8.839   6.369
 8198WAT     H124836   8.699   8.743   6.343
 8198WAT     H224837   8.793   8.871   6.380
 8199WAT      O24838   9.271   8.354   5.431
 8199WAT     H124839   9.207   8.294   5.479
 8199WAT     H224840   9.301   8.310   5.346
 8200WAT      O24841   3.633   8.180   6.218
 8200WAT     H124842   3.602   8.255   6.160
 8200WAT     H224843   3.579   8.179   6.302
 8201WAT      O24844   3.555   9.096   6.394
 8201WAT     H124845   3.518   9.177   6.440
 8201WAT     H224846   3.487   9.023   6.396
 8202WAT      O24847   6.067   6.589   3.882
 8202WAT     H124848   6.088   6.655   3.810
 8202WAT     H224849   5.968   6.572   3.883
 8203WAT      O24850   1.732  -0.001   1.819
 8203WAT     H124851   1.782  -0.043   1.896
 8203WAT     H224852   1.790   0.066   1.774
 8204WAT      O24853   6.062   6.948   6.055
 8204WAT     H124854   5.977   6.997   6.074
 8204WAT     H224855   6.119   7.004   5.995
 8205WAT      O24856   9.749   9.190   1.526
 8205WAT     H124857   9.700   9.245   1.459
 8205WAT     H224858   9.686   9.125   1.568
 8206WAT      O24859   3.468   6.773   2.083
 8206WAT     H124860   3.534   6.760   2.009
 8206WAT     H224861   3.393   6.831   2.052
 8207WAT      O24862   8.204   4.450   4.817
 8207WAT     H124863   8.159   4.434   4.904
 8207WAT     H224864   8.175   4.539   4.780
 8208WAT      O24865   2.964   0.564   2.408
 8208WAT     H124866   3.026   0.619   2.352
 8208WAT     H224867   2.893   0.624   2.445
 8209WAT      O24868   9.448   3.044   7.532
 8209WAT     H124869   9.435   3.080   7.625
 8209WAT     H224870   9.461   2.945   7.536
 8210WAT      O24871   1.512   0.724   4.568
 8210WAT     H124872   1.585   0.658   4.550
 8210WAT     H224873   1.438   0.709   4.502
 8211WAT      O24874   5.311   5.313   1.397
 8211WAT     H124875   5.299   5.358   1.485
 8211WAT     H224876   5.303   5.380   1.324
 8212WAT      O24877   0.705   0.704   1.048
 8212WAT     H124878   0.677   0.614   1.015
 8212WAT     H224879   0.731   0.697   1.144
 8213WAT      O24880   3.050   7.803   4.679
 8213WAT     H124881   3.127   7.858   4.647
 8213WAT     H224882   2.979   7.803   4.609
 8214WAT      O24883   2.348   0.895   6.195
 8214WAT     H124884   2.275   0.959   6.221
 8214WAT     H224885   2.354   0.822   6.263
 8215WAT      O24886   0.964   6.984   7.547
 8215WAT     H124887   1.061   7.005   7.560
 8215WAT     H224888   0.919   7.061   7.501
 8216WAT      O24889   2.348   6.774   4.943
 8216WAT     H124890   2.307   6.733   5.025
 8216WAT     H224891   2.307   6.864   4.928
 8217WAT      O24892   7.963   8.547   8.741
 8217WAT     H124893   7.926   8.461   8.706
 8217WAT     H224894   7.890   8.615   8.748
 8218WAT      O24895   5.200   2.417   8.008
 8218WAT     H124896   5.174   2.399   7.913
 8218WAT     H224897   5.241   2.508   8.014
 8219WAT      O24898   3.725   2.849   0.467
 8219WAT     H124899   3.667   2.907   0.526
 8219WAT     H224900   3.788   2.907   0.415
 8220WAT      O24901   5.781   9.532   4.284
 8220WAT     H124902   5.762   9.571   4.374
 8220WAT     H224903   5.702   9.479   4.253
 8221WAT      O24904   3.477   8.211   4.455
 8221WAT     H124905   3.432   8.300   4.454
 8221WAT     H224906   3.488   8.180   4.550
 8222WAT      O24907   8.628   4.724   4.099
 8222WAT     H124908   8.539   4.757   4.129
 8222WAT     H224909   8.633   4.729   3.999
 8223WAT      O24910   0.124   0.745   7.495
 8223WAT     H124911   0.031   0.759   7.528
 8223WAT     H224912   0.169   0.675   7.551
 8224WAT      O24913   9.660   2.691   8.312
 8224WAT     H124914   9.611   2.776   8.292
 8224WAT     H224915   9.604   2.612   8.287
 8225WAT      O24916   1.088   7.337   8.377
 8225WAT     H124917   1.072   7.242   8.350
 8225WAT     H224918   1.045   7.355   8.465
 8226WAT      O24919   1.078   1.611   9.848
 8226WAT     H124920   1.069   1.639   9.943
 8226WAT     H224921   0.989   1.582   9.812
 8227WAT      O24922   6.158   1.174   3.639
 8227WAT     H124923   6.132   1.252   3.697
 8227WAT     H224924   6.206   1.106   3.695
 8228WAT      O24925   1.060   2.487   2.576
 8228WAT     H124926   0.985   2.548   2.549
 8228WAT     H224927   1.069   2.414   2.508
 8229WAT      O24928   8.620   8.624   0.364
 8229WAT     H124929   8.603   8.527   0.347
 8229WAT     H224930   8.588   8.678   0.286
 8230WAT      O24931   1.338   3.493   5.661
 8230WAT     H124932   1.408   3.426   5.685
 8230WAT     H224933   1.287   3.461   5.581
 8231WAT      O24934   7.716   4.856   3.520
 8231WAT     H124935   7.633   4.800   3.519
 8231WAT     H224936   7.760   4.847   3.610
 8232WAT      O24937   4.525   3.167   4.466
 8232WAT     H124938   4.544   3.116   4.383
 8232WAT     H224939   4.510   3.264   4.443
 8233WAT      O24940   2.285   1.200   8.969
 8233WAT     H124941   2.260   1.188   8.873
 8233WAT     H224942   2.259   1.292   8.999
 8234WAT      O24943   6.223   3.112   0.836
 8234WAT     H124944   6.290   3.119   0.910
 8234WAT     H224945   6.132   3.099   0.874
 8235WAT      O24946   3.047   5.292   2.442
 8235WAT     H124947   3.092   5.244   2.518
 8235WAT     H224948   3.016   5.224   2.375
 8236WAT      O24949   7.314   5.134   3.892
 8236WAT     H124950   7.225   5.180   3.892
 8236WAT     H224951   7.322   5.078   3.809
 8237WAT      O24952   0.307   7.934   4.793
 8237WAT     H124953   0.351   7.989   4.722
 8237WAT     H224954   0.225   7.981   4.825
 8238WAT      O24955   1.748   6.611   4.352
 8238WAT     H124956   1.672   6.583   4.292
 8238WAT     H224957   1.834   6.579   4.313
 8239WAT      O24958   2.788   2.926   1.678
 8239WAT     H124959   2.745   2.892   1.595
 8239WAT     H224960   2.740   3.009   1.709
 8240WAT      O24961   5.855   9.659   7.260
 8240WAT     H124962   5.884   9.733   7.199
 8240WAT     H224963   5.927   9.589   7.262
 8241WAT      O24964   0.196   8.217   4.611
 8241WAT     H124965   0.266   8.283   4.637
 8241WAT     H224966   0.240   8.134   4.577
 8242WAT      O24967   1.592   6.438   8.337
 8242WAT     H124968   1.547   6.528   8.334
 8242WAT     H224969   1.559   6.383   8.261
 8243WAT      O24970   6.858   8.131   9.058
 8243WAT     H124971   6.936   8.096   9.108
 8243WAT     H224972   6.780   8.070   9.070
 8244WAT      O24973   1.523   8.683   3.018
 8244WAT     H124974   1.515   8.667   2.919
 8244WAT     H224975   1.620   8.683   3.043
 8245WAT      O24976   3.139   2.510   3.965
 8245WAT     H124977   3.103   2.569   3.893
 8245WAT     H224978   3.186   2.567   4.033
 8246WAT      O24979   6.405   9.312   9.636
 8246WAT     H124980   6.478   9.250   9.609
 8246WAT     H224981   6.416   9.399   9.588
 8247WAT      O24982   9.843   5.246   2.621
 8247WAT     H124983   9.866   5.338   2.654
 8247WAT     H224984   9.879   5.178   2.685
 8248WAT      O24985   6.694   4.861   9.429
 8248WAT     H124986   6.635   4.793   9.386
 8248WAT     H224987   6.638   4.925   9.482
 8249WAT      O24988   9.187   0.131   3.218
 8249WAT     H124989   9.240   0.074   3.281
 8249WAT     H224990   9.132   0.197   3.271
 8250WAT      O24991   7.799   2.712   4.345
 8250WAT     H124992   7.779   2.803   4.311
 8250WAT     H224993   7.830   2.654   4.270
 8251WAT      O24994   4.906   9.297   1.556
 8251WAT     H124995   4.932   9.305   1.652
 8251WAT     H224996   4.969   9.351   1.500
 8252WAT      O24997   3.616   3.176   7.863
 8252WAT     H124998   3.565   3.146   7.943
 8252WAT     H224999   3.654   3.267   7.880
 8253WAT      O25000   4.954   6.480   5.817
 8253WAT     H125001   4.956   6.566   5.868
 8253WAT     H225002   4.970   6.498   5.720
 8254WAT      O25003   6.705   8.929   5.402
 8254WAT     H125004   6.647   8.896   5.476
 8254WAT     H225005   6.648   8.944   5.320
 8255WAT      O25006   7.087   5.380   7.807
 8255WAT     H125007   7.049   5.437   7.880
 8255WAT     H225008   7.020   5.311   7.781
 8256WAT      O25009   4.829   5.631   1.998
 8256WAT     H125010   4.884   5.639   1.914
 8256WAT     H225011   4.891   5.620   2.076
 8257WAT      O25012   0.221   2.262   9.683
 8257WAT     H125013   0.164   2.223   9.611
 8257WAT     H225014   0.277   2.190   9.724
 8258WAT      O25015   7.794   0.970   4.701
 8258WAT     H125016   7.738   0.930   4.774
 8258WAT     H225017   7.734   1.013   4.634
 8259WAT      O25018   1.805   2.591   1.504
 8259WAT     H125019   1.815   2.593   1.604
 8259WAT     H225020   1.775   2.680   1.472
 8260WAT      O25021   6.208   8.260   5.119
 8260WAT     H125022   6.280   8.238   5.054
 8260WAT     H225023   6.191   8.359   5.118
 8261WAT      O25024   2.521   7.079   1.814
 8261WAT     H125025   2.575   7.161   1.831
 8261WAT     H225026   2.576   6.998   1.835
 8262WAT      O25027   8.784   5.453   4.550
 8262WAT     H125028   8.853   5.446   4.478
 8262WAT     H225029   8.745   5.362   4.569
 8263WAT      O25030   8.737   7.756   4.115
 8263WAT     H125031   8.750   7.804   4.029
 8263WAT     H225032   8.649   7.708   4.113
 8264WAT      O25033   5.575   4.808   8.303
 8264WAT     H125034   5.518   4.736   8.262
 8264WAT     H225035   5.668   4.773   8.315
 8265WAT      O25036   9.175   3.817   7.249
 8265WAT     H125037   9.255   3.861   7.208
 8265WAT     H225038   9.094   3.873   7.233
 8266WAT      O25039   6.507   1.636   3.162
 8266WAT     H125040   6.545   1.699   3.094
 8266WAT     H225041   6.428   1.680   3.206
 8267WAT      O25042   3.429   3.106   4.701
 8267WAT     H125043   3.528   3.101   4.695
 8267WAT     H225044   3.391   3.135   4.613
 8268WAT      O25045   9.381   3.614   3.050
 8268WAT     H125046   9.431   3.535   3.085
 8268WAT     H225047   9.291   3.586   3.019
 8269WAT      O25048   6.778   8.015   4.663
 8269WAT     H125049   6.774   7.966   4.576
 8269WAT     H225050   6.746   8.108   4.651
 8270WAT      O25051   2.817   4.272   3.561
 8270WAT     H125052   2.796   4.180   3.595
 8270WAT     H225053   2.734   4.328   3.564
 8271WAT      O25054   3.676   6.896   3.689
 8271WAT     H125055   3.655   6.825   3.755
 8271WAT     H225056   3.737   6.859   3.619
 8272WAT      O25057   5.645   5.652   8.936
 8272WAT     H125058   5.592   5.668   8.853
 8272WAT     H225059   5.742   5.646   8.913
 8273WAT      O25060   7.756   6.108   7.368
 8273WAT     H125061   7.676   6.049   7.378
 8273WAT     H225062   7.833   6.069   7.417
 8274WAT      O25063   1.344   7.991   8.023
 8274WAT     H125064   1.412   8.011   7.952
 8274WAT     H225065   1.385   8.006   8.113
 8275WAT      O25066   9.532   8.898   8.570
 8275WAT     H125067   9.584   8.892   8.485
 8275WAT     H225068   9.552   8.819   8.628
 8276WAT      O25069   9.418   1.118   8.285
 8276WAT     H125070   9.458   1.048   8.225
 8276WAT     H225071   9.422   1.086   8.380
 8277WAT      O25072   7.808   0.378   1.425
 8277WAT     H125073   7.773   0.408   1.336
 8277WAT     H225074   7.758   0.425   1.498
 8278WAT      O25075   9.512   5.246   7.743
 8278WAT     H125076   9.488   5.223   7.837
 8278WAT     H225077   9.474   5.178   7.681
 8279WAT      O25078   8.538   5.310   9.886
 8279WAT     H125079   8.539   5.245   9.810
 8279WAT     H225080   8.623   5.364   9.884
 8280WAT      O25081   0.238   1.934   2.486
 8280WAT     H125082   0.170   1.951   2.414
 8280WAT     H225083   0.212   1.984   2.569
 8281WAT      O25084   0.177   4.325   8.380
 8281WAT     H125085   0.166   4.232   8.415
 8281WAT     H225086   0.200   4.387   8.455
 8282WAT      O25087   3.153   3.547   9.799
 8282WAT     H125088   3.162   3.454   9.835
 8282WAT     H225089   3.238   3.573   9.752
 8283WAT      O25090   6.478   7.220   2.263
 8283WAT     H125091   6.381   7.214   2.238
 8283WAT     H225092   6.530   7.154   2.209
 8284WAT      O25093   6.967   6.754   3.174
 8284WAT     H125094   6.956   6.847   3.209
 8284WAT     H225095   6.892   6.731   3.113
 8285WAT      O25096   2.550   4.695   2.328
 8285WAT     H125097   2.551   4.621   2.395
 8285WAT     H225098   2.581   4.660   2.239
 8286WAT      O25099   2.844   8.032   1.680
 8286WAT     H125100   2.776   7.984   1.735
 8286WAT     H225101   2.891   8.099   1.738
 8287WAT      O25102   7.448   5.672   6.426
 8287WAT     H125103   7.507   5.737   6.378
 8287WAT     H225104   7.455   5.582   6.382
 8288WAT      O25105   9.521   0.565   0.988
 8288WAT     H125106   9.436   0.555   1.041
 8288WAT     H225107   9.502   0.615   0.904
 8289WAT      O25108   7.980   9.414   8.967
 8289WAT     H125109   7.949   9.475   8.893
 8289WAT     H225110   8.072   9.441   8.995
 8290WAT      O25111   4.994   1.632   3.373
 8290WAT     H125112   5.010   1.648   3.275
 8290WAT     H225113   4.948   1.544   3.385
 8291WAT      O25114   8.619   3.598   5.644
 8291WAT     H125115   8.696   3.567   5.698
 8291WAT     H225116   8.649   3.670   5.580
 8292WAT      O25117   1.746   2.669   7.403
 8292WAT     H125118   1.696   2.672   7.490
 8292WAT     H225119   1.684   2.697   7.329
 8293WAT      O25120   5.198   3.951   9.154
 8293WAT     H125121   5.212   3.896   9.072
 8293WAT     H225122   5.177   3.891   9.231
 8294WAT      O25123   4.963   0.513   3.727
 8294WAT     H125124   4.971   0.586   3.794
 8294WAT     H225125   5.054   0.476   3.706
 8295WAT      O25126   0.398   1.682   2.946
 8295WAT     H125127   0.442   1.757   2.995
 8295WAT     H225128   0.302   1.675   2.974
 8296WAT      O25129   1.977   2.037   2.558
 8296WAT     H125130   1.969   1.939   2.540
 8296WAT     H225131   1.910   2.063   2.628
 8297WAT      O25132   5.244   8.981   1.480
 8297WAT     H125133   5.177   8.908   1.489
 8297WAT     H225134   5.260   9.022   1.570
 8298WAT      O25135   2.900   7.799   2.435
 8298WAT     H125136   2.959   7.866   2.392
 8298WAT     H225137   2.852   7.746   2.364
 8299WAT      O25138   3.524   1.868   1.403
 8299WAT     H125139   3.432   1.880   1.366
 8299WAT     H225140   3.568   1.789   1.360
 8300WAT      O25141   9.580   4.539   7.877
 8300WAT     H125142   9.523   4.515   7.798
 8300WAT     H225143   9.553   4.629   7.912
 8301WAT      O25144   3.670   4.550   0.447
 8301WAT     H125145   3.712   4.593   0.526
 8301WAT     H225146   3.704   4.456   0.438
 8302WAT      O25147   2.292   0.424   8.000
 8302WAT     H125148   2.260   0.331   8.019
 8302WAT     H225149   2.379   0.440   8.047
 8303WAT      O25150   2.759   5.649   5.971
 8303WAT     H125151   2.820   5.596   5.911
 8303WAT     H225152   2.766   5.746   5.949
 8304WAT      O25153   3.571   5.482   9.285
 8304WAT     H125154   3.475   5.489   9.311
 8304WAT     H225155   3.617   5.569   9.303
 8305WAT      O25156   1.687   1.252   1.784
 8305WAT     H125157   1.781   1.241   1.752
 8305WAT     H225158   1.671   1.346   1.812
 8306WAT      O25159   3.560   2.597   9.003
 8306WAT     H125160   3.616   2.661   8.951
 8306WAT     H225161   3.463   2.615   8.986
 8307WAT      O25162   7.247   0.774   8.620
 8307WAT     H125163   7.220   0.857   8.670
 8307WAT     H225164   7.184   0.760   8.544
 8308WAT      O25165   2.826   3.004   2.364
 8308WAT     H125166   2.741   3.049   2.335
 8308WAT     H225167   2.880   3.068   2.418
 8309WAT      O25168   4.681   4.787   6.503
 8309WAT     H125169   4.672   4.877   6.460
 8309WAT     H225170   4.694   4.717   6.432
 8310WAT      O25171   9.294   9.441   4.024
 8310WAT     H125172   9.350   9.461   3.944
 8310WAT     H225173   9.215   9.386   3.996
 8311WAT      O25174   9.192   4.843   1.582
 8311WAT     H125175   9.163   4.937   1.566
 8311WAT     H225176   9.289   4.833   1.559
 8312WAT      O25177   5.110   2.218   4.377
 8312WAT     H125178   5.130   2.315   4.391
 8312WAT     H225179   5.117   2.196   4.279
 8313WAT      O25180   6.384   1.338   8.308
 8313WAT     H125181   6.422   1.407   8.370
 8313WAT     H225182   6.440   1.255   8.313
 8314WAT      O25183   8.952   3.704   6.383
 8314WAT     H125184   8.905   3.723   6.469
 8314WAT     H225185   8.917   3.619   6.344
 8315WAT      O25186   5.462   4.935   0.695
 8315WAT     H125187   5.400   4.912   0.770
 8315WAT     H225188   5.469   4.856   0.633
 8316WAT      O25189   0.816   2.363   3.326
 8316WAT     H125190   0.807   2.430   3.399
 8316WAT     H225191   0.798   2.405   3.238
 8317WAT      O25192   4.741   7.443   5.562
 8317WAT     H125193   4.837   7.419   5.553
 8317WAT     H225194   4.729   7.501   5.643
 8318WAT      O25195   8.595   3.220   5.442
 8318WAT     H125196   8.614   3.223   5.540
 8318WAT     H225197   8.595   3.313   5.405
 8319WAT      O25198   7.245   5.226   0.411
 8319WAT     H125199   7.280   5.145   0.366
 8319WAT     H225200   7.181   5.200   0.484
 8320WAT      O25201   7.273   6.938   1.276
 8320WAT     H125202   7.355   6.965   1.225
 8320WAT     H225203   7.237   7.017   1.326
 8321WAT      O25204   2.526   3.151   1.949
 8321WAT     H125205   2.445   3.094   1.933
 8321WAT     H225206   2.502   3.247   1.933
 8322WAT      O25207   6.896   6.377   3.789
 8322WAT     H125208   6.953   6.436   3.845
 8322WAT     H225209   6.952   6.303   3.751
 8323WAT      O25210   0.024   0.179   7.241
 8323WAT     H125211   0.094   0.108   7.245
 8323WAT     H225212  -0.038   0.160   7.164
 8324WAT      O25213   8.172   9.454   1.708
 8324WAT     H125214   8.083   9.447   1.663
 8324WAT     H225215   8.179   9.384   1.778
 8325WAT      O25216   7.892   8.635   7.448
 8325WAT     H125217   7.984   8.627   7.488
 8325WAT     H225218   7.900   8.652   7.350
 8326WAT      O25219   5.654   9.548   2.892
 8326WAT     H125220   5.714   9.620   2.927
 8326WAT     H225221   5.592   9.587   2.824
 8327WAT      O25222   8.291   2.124   1.659
 8327WAT     H125223   8.378   2.095   1.620
 8327WAT     H225224   8.305   2.208   1.712
 8328WAT      O25225   3.784   8.507   4.588
 8328WAT     H125226   3.743   8.499   4.679
 8328WAT     H225227   3.868   8.560   4.593
 8329WAT      O25228   8.465   5.360   4.279
 8329WAT     H125229   8.407   5.358   4.361
 8329WAT     H225230   8.515   5.273   4.272
 8330WAT      O25231   1.493   8.472   1.314
 8330WAT     H125232   1.583   8.438   1.285
 8330WAT     H225233   1.428   8.463   1.238
 8331WAT      O25234   2.963   0.543   4.838
 8331WAT     H125235   2.989   0.447   4.827
 8331WAT     H225236   2.955   0.586   4.748
 8332WAT      O25237   7.487   9.674   9.377
 8332WAT     H125238   7.516   9.736   9.449
 8332WAT     H225239   7.401   9.630   9.403
 8333WAT      O25240   2.751   2.162   0.176
 8333WAT     H125241   2.703   2.235   0.225
 8333WAT     H225242   2.745   2.077   0.229
 8334WAT      O25243   3.892   4.948   6.566
 8334WAT     H125244   3.953   4.917   6.639
 8334WAT     H225245   3.816   4.999   6.606
 8335WAT      O25246   9.449   4.836   6.733
 8335WAT     H125247   9.448   4.908   6.803
 8335WAT     H225248   9.523   4.771   6.753
 8336WAT      O25249   2.520   5.800   5.485
 8336WAT     H125250   2.520   5.900   5.473
 8336WAT     H225251   2.609   5.763   5.456
 8337WAT      O25252   7.786   2.572   9.828
 8337WAT     H125253   7.751   2.576   9.922
 8337WAT     H225254   7.710   2.584   9.764
 8338WAT      O25255   7.971   1.664   5.558
 8338WAT     H125256   7.917   1.741   5.591
 8338WAT     H225257   7.995   1.605   5.635
 8339WAT      O25258   7.369   3.052   7.831
 8339WAT     H125259   7.299   3.103   7.881
 8339WAT     H225260   7.405   3.109   7.757
 8340WAT      O25261   6.607   6.298   7.274
 8340WAT     H125262   6.603   6.398   7.282
 8340WAT     H225263   6.634   6.259   7.362
 8341WAT      O25264   8.244   0.710   9.714
 8341WAT     H125265   8.328   0.656   9.713
 8341WAT     H225266   8.257   0.794   9.662
 8342WAT      O25267   1.480   7.057   7.218
 8342WAT     H125268   1.398   7.004   7.242
 8342WAT     H225269   1.542   6.999   7.166
 8343WAT      O25270   9.726   6.909   9.192
 8343WAT     H125271   9.780   6.994   9.191
 8343WAT     H225272   9.769   6.844   9.255
 8344WAT      O25273   9.401   8.933   6.433
 8344WAT     H125274   9.339   8.974   6.500
 8344WAT     H225275   9.348   8.891   6.360
 8345WAT      O25276   5.548   5.821   7.318
 8345WAT     H125277   5.504   5.796   7.231
 8345WAT     H225278   5.494   5.784   7.394
 8346WAT      O25279   0.301   4.678   8.295
 8346WAT     H125280   0.370   4.749   8.287
 8346WAT     H225281   0.313   4.629   8.381
 8347WAT      O25282   1.538   7.176   9.421
 8347WAT     H125283   1.588   7.126   9.493
 8347WAT     H225284   1.444   7.191   9.450
 8348WAT      O25285   0.165   7.217   6.294
 8348WAT     H125286   0.097   7.284   6.265
 8348WAT     H225287   0.143   7.185   6.386
 8349WAT      O25288   3.245   3.749   4.734
 8349WAT     H125289   3.296   3.831   4.760
 8349WAT     H225290   3.239   3.688   4.813
 8350WAT      O25291   2.630   3.357   0.465
 8350WAT     H125292   2.539   3.324   0.439
 8350WAT     H225293   2.680   3.285   0.512
 8351WAT      O25294   6.183   6.410   4.319
 8351WAT     H125295   6.237   6.326   4.312
 8351WAT     H225296   6.223   6.480   4.261
 8352WAT      O25297   9.079   5.145   9.744
 8352WAT     H125298   9.087   5.168   9.841
 8352WAT     H225299   9.120   5.056   9.727
 8353WAT      O25300   6.028   1.400   6.344
 8353WAT     H125301   5.929   1.388   6.337
 8353WAT     H225302   6.060   1.361   6.430
 8354WAT      O25303   9.595   4.189   2.843
 8354WAT     H125304   9.595   4.196   2.743
 8354WAT     H225305   9.622   4.097   2.871
 8355WAT      O25306   0.323   2.467   4.798
 8355WAT     H125307   0.271   2.385   4.772
 8355WAT     H225308   0.310   2.486   4.895
 8356WAT      O25309   1.628   4.162   5.693
 8356WAT     H125310   1.658   4.203   5.606
 8356WAT     H225311   1.528   4.166   5.698
 8357WAT      O25312   7.298   9.450   6.490
 8357WAT     H125313   7.339   9.359   6.492
 8357WAT     H225314   7.311   9.495   6.579
 8358WAT      O25315   7.416   2.164   0.621
 8358WAT     H125316   7.364   2.220   0.556
 8358WAT     H225317   7.399   2.067   0.601
 8359WAT      O25318   9.120   4.321   2.172
 8359WAT     H125319   9.022   4.341   2.168
 8359WAT     H225320   9.161   4.342   2.083
 8360WAT      O25321   8.535   0.593   2.872
 8360WAT     H125322   8.610   0.527   2.878
 8360WAT     H225323   8.456   0.551   2.828
 8361WAT      O25324   0.277   2.044   6.139
 8361WAT     H125325   0.182   2.013   6.150
 8361WAT     H225326   0.281   2.143   6.150
 8362WAT      O25327   4.864   3.494   1.087
 8362WAT     H125328   4.793   3.439   1.043
 8362WAT     H225329   4.933   3.433   1.128
 8363WAT      O25330   0.852   9.597   9.071
 8363WAT     H125331   0.935   9.616   9.123
 8363WAT     H225332   0.865   9.624   8.975
 8364WAT      O25333   6.686   2.343   8.492
 8364WAT     H125334   6.690   2.412   8.420
 8364WAT     H225335   6.650   2.383   8.576
 8365WAT      O25336   5.229   9.414   2.211
 8365WAT     H125337   5.154   9.439   2.272
 8365WAT     H225338   5.316   9.441   2.252
 8366WAT      O25339   1.079   7.510   9.071
 8366WAT     H125340   1.058   7.417   9.100
 8366WAT     H225341   1.092   7.569   9.151
 8367WAT      O25342   3.796   8.671   5.473
 8367WAT     H125343   3.756   8.734   5.407
 8367WAT     H225344   3.728   8.600   5.496
 8368WAT      O25345   6.658   1.496   4.554
 8368WAT     H125346   6.662   1.425   4.483
 8368WAT     H225347   6.715   1.573   4.527
 8369WAT      O25348   0.722   4.009   2.388
 8369WAT     H125349   0.668   3.938   2.344
 8369WAT     H225350   0.803   4.029   2.333
 8370WAT      O25351   9.282   4.388   9.142
 8370WAT     H125352   9.200   4.353   9.098
 8370WAT     H225353   9.349   4.315   9.150
 8371WAT      O25354   0.942   7.225   1.806
 8371WAT     H125355   1.016   7.292   1.799
 8371WAT     H225356   0.862   7.268   1.849
 8372WAT      O25357   0.105   0.666   4.173
 8372WAT     H125358   0.117   0.707   4.083
 8372WAT     H225359   0.084   0.739   4.239
 8373WAT      O25360   4.576   2.280   3.046
 8373WAT     H125361   4.622   2.272   3.134
 8373WAT     H225362   4.619   2.219   2.979
 8374WAT      O25363   3.469   9.695   9.073
 8374WAT     H125364   3.399   9.664   9.137
 8374WAT     H225365   3.553   9.718   9.123
 8375WAT      O25366   4.118   2.113   1.530
 8375WAT     H125367   4.118   2.187   1.463
 8375WAT     H225368   4.083   2.030   1.488
 8376WAT      O25369   9.163   3.696   0.584
 8376WAT     H125370   9.177   3.718   0.487
 8376WAT     H225371   9.075   3.733   0.614
 8377WAT      O25372   5.343   3.544   7.012
 8377WAT     H125373   5.415   3.611   7.030
 8377WAT     H225374   5.265   3.562   7.072
 8378WAT      O25375   2.821   3.682   9.479
 8378WAT     H125376   2.821   3.592   9.435
 8378WAT     H225377   2.728   3.704   9.508
 8379WAT      O25378   2.262   1.590   3.353
 8379WAT     H125379   2.187   1.650   3.325
 8379WAT     H225380   2.225   1.506   3.392
 8380WAT      O25381   1.901   8.658   0.122
 8380WAT     H125382   1.993   8.683   0.093
 8380WAT     H225383   1.868   8.723   0.190
 8381WAT      O25384   9.843   6.165   4.916
 8381WAT     H125385   9.747   6.167   4.887
 8381WAT     H225386   9.901   6.195   4.839
 8382WAT      O25387   3.020   0.450   9.435
 8382WAT     H125388   3.082   0.496   9.498
 8382WAT     H225389   2.991   0.514   9.364
 8383WAT      O25390   8.552   5.203   7.213
 8383WAT     H125391   8.535   5.197   7.311
 8383WAT     H225392   8.535   5.114   7.171
 8384WAT      O25393   8.258   0.129   8.629
 8384WAT     H125394   8.201   0.099   8.553
 8384WAT     H225395   8.246   0.227   8.643
 8385WAT      O25396   2.481   1.834   0.344
 8385WAT     H125397   2.493   1.737   0.366
 8385WAT     H225398   2.389   1.862   0.370
 8386WAT      O25399   5.065   7.819   2.593
 8386WAT     H125400   5.146   7.860   2.636
 8386WAT     H225401   5.067   7.837   2.495
 8387WAT      O25402   5.389   4.076   8.171
 8387WAT     H125403   5.389   4.163   8.121
 8387WAT     H225404   5.466   4.020   8.141
 8388WAT      O25405   6.966   2.499   6.006
 8388WAT     H125406   6.936   2.434   5.936
 8388WAT     H225407   7.064   2.485   6.024
 8389WAT      O25408   2.200   8.686   6.688
 8389WAT     H125409   2.247   8.598   6.699
 8389WAT     H225410   2.176   8.698   6.592
 8390WAT      O25411   9.728   2.621   3.774
 8390WAT     H125412   9.790   2.687   3.816
 8390WAT     H225413   9.666   2.670   3.712
 8391WAT      O25414   7.741   6.027   4.211
 8391WAT     H125415   7.758   6.043   4.308
 8391WAT     H225416   7.783   6.101   4.157
 8392WAT      O25417   2.651   0.023   3.452
 8392WAT     H125418   2.705  -0.051   3.491
 8392WAT     H225419   2.644   0.011   3.353
 8393WAT      O25420   6.068   8.151   5.801
 8393WAT     H125421   6.068   8.052   5.817
 8393WAT     H225422   6.131   8.173   5.727
 8394WAT      O25423   4.196   2.420   8.593
 8394WAT     H125424   4.148   2.341   8.552
 8394WAT     H225425   4.173   2.502   8.541
 8395WAT      O25426   3.212   8.424   5.316
 8395WAT     H125427   3.290   8.373   5.353
 8395WAT     H225428   3.204   8.512   5.364
 8396WAT      O25429   7.251   3.708   9.786
 8396WAT     H125430   7.256   3.750   9.696
 8396WAT     H225431   7.183   3.756   9.841
 8397WAT      O25432   1.141   9.539   8.278
 8397WAT     H125433   1.070   9.478   8.243
 8397WAT     H225434   1.129   9.630   8.238
 8398WAT      O25435   0.416   6.148   2.198
 8398WAT     H125436   0.405   6.241   2.232
 8398WAT     H225437   0.448   6.089   2.271
 8399WAT      O25438   5.246   7.845   5.056
 8399WAT     H125439   5.187   7.920   5.025
 8399WAT     H225440   5.272   7.861   5.151
 8400WAT      O25441   0.359   2.848   0.825
 8400WAT     H125442   0.398   2.778   0.764
 8400WAT     H225443   0.432   2.909   0.856
 8401WAT      O25444   5.808   7.876   4.041
 8401WAT     H125445   5.871   7.949   4.014
 8401WAT     H225446   5.742   7.911   4.107
 8402WAT      O25447   7.393   9.567   6.230
 8402WAT     H125448   7.367   9.553   6.325
 8402WAT     H225449   7.409   9.665   6.213
 8403WAT      O25450   9.789   3.457   4.764
 8403WAT     H125451   9.776   3.436   4.861
 8403WAT     H225452   9.705   3.436   4.714
 8404WAT      O25453   1.318   3.934   8.476
 8404WAT     H125454   1.409   3.901   8.450
 8404WAT     H225455   1.320   4.033   8.483
 8405WAT      O25456   2.545   7.011   9.222
 8405WAT     H125457   2.474   7.081   9.214
 8405WAT     H225458   2.507   6.922   9.198
 8406WAT      O25459   5.946   3.866   1.917
 8406WAT     H125460   6.005   3.867   1.998
 8406WAT     H225461   5.896   3.779   1.914
 8407WAT      O25462   6.015   6.878   9.523
 8407WAT     H125463   5.970   6.951   9.471
 8407WAT     H225464   5.956   6.797   9.525
 8408WAT      O25465   1.488   5.813   5.657
 8408WAT     H125466   1.438   5.782   5.738
 8408WAT     H225467   1.583   5.781   5.663
 8409WAT      O25468   5.851   0.092   0.146
 8409WAT     H125469   5.798   0.008   0.138
 8409WAT     H225470   5.846   0.143   0.060
 8410WAT      O25471   9.172   1.143   1.167
 8410WAT     H125472   9.130   1.129   1.077
 8410WAT     H225473   9.103   1.178   1.230
 8411WAT      O25474   9.359   9.557   0.415
 8411WAT     H125475   9.431   9.490   0.432
 8411WAT     H225476   9.358   9.625   0.488
 8412WAT      O25477   9.333   0.903   9.112
 8412WAT     H125478   9.384   0.890   9.198
 8412WAT     H225479   9.340   0.821   9.056
 8413WAT      O25480   7.704   4.309   1.743
 8413WAT     H125481   7.611   4.290   1.775
 8413WAT     H225482   7.738   4.232   1.690
 8414WAT      O25483   0.146   5.851   0.083
 8414WAT     H125484   0.090   5.771   0.106
 8414WAT     H225485   0.242   5.831   0.104
 8415WAT      O25486   5.367   4.180   0.830
 8415WAT     H125487   5.299   4.172   0.903
 8415WAT     H225488   5.366   4.097   0.774
 8416WAT      O25489   6.372   6.653   5.910
 8416WAT     H125490   6.296   6.667   5.973
 8416WAT     H225491   6.379   6.556   5.886
 8417WAT      O25492   0.169   7.253   0.175
 8417WAT     H125493   0.121   7.338   0.154
 8417WAT     H225494   0.243   7.271   0.239
 8418WAT      O25495   9.425   8.302   3.013
 8418WAT     H125496   9.502   8.271   2.958
 8418WAT     H225497   9.383   8.224   3.059
 8419WAT      O25498   8.839   4.863   5.532
 8419WAT     H125499   8.750   4.823   5.515
 8419WAT     H225500   8.868   4.917   5.453
 8420WAT      O25501   1.550   4.807   1.768
 8420WAT     H125502   1.563   4.813   1.669
 8420WAT     H225503   1.513   4.893   1.802
 8421WAT      O25504   6.190   5.241   0.418
 8421WAT     H125505   6.279   5.242   0.464
 8421WAT     H225506   6.121   5.283   0.476
 8422WAT      O25507   6.926   1.305   1.935
 8422WAT     H125508   6.952   1.386   1.988
 8422WAT     H225509   6.869   1.333   1.857
 8423WAT      O25510   4.293   1.855   3.331
 8423WAT     H125511   4.360   1.787   3.362
 8423WAT     H225512   4.222   1.866   3.400
 8424WAT      O25513   4.944   2.683   0.227
 8424WAT     H125514   4.875   2.619   0.262
 8424WAT     H225515   4.938   2.769   0.278
 8425WAT      O25516   5.002   6.220   0.342
 8425WAT     H125517   5.094   6.181   0.330
 8425WAT     H225518   4.983   6.283   0.268
 8426WAT      O25519   2.295   0.757   3.935
 8426WAT     H125520   2.277   0.837   3.878
 8426WAT     H225521   2.276   0.674   3.882
 8427WAT      O25522   8.047   2.506   2.828
 8427WAT     H125523   7.954   2.470   2.823
 8427WAT     H225524   8.058   2.580   2.762
 8428WAT      O25525   9.713   8.230   5.649
 8428WAT     H125526   9.644   8.280   5.598
 8428WAT     H225527   9.744   8.285   5.727
 8429WAT      O25528   8.171   6.618   1.822
 8429WAT     H125529   8.157   6.645   1.726
 8429WAT     H225530   8.211   6.695   1.872
 8430WAT      O25531   8.757   4.817   6.910
 8430WAT     H125532   8.800   4.847   6.825
 8430WAT     H225533   8.808   4.854   6.988
 8431WAT      O25534   3.995   1.598   8.231
 8431WAT     H125535   4.008   1.594   8.132
 8431WAT     H225536   4.080   1.628   8.274
 8432WAT      O25537   3.669   9.693   3.641
 8432WAT     H125538   3.681   9.614   3.701
 8432WAT     H225539   3.746   9.755   3.653
 8433WAT      O25540   0.960   4.759   4.461
 8433WAT     H125541   0.938   4.672   4.418
 8433WAT     H225542   0.922   4.834   4.405
 8434WAT      O25543   8.678   7.845   6.709
 8434WAT     H125544   8.595   7.798   6.741
 8434WAT     H225545   8.707   7.804   6.622
 8435WAT      O25546   6.358   2.414   8.313
 8435WAT     H125547   6.345   2.396   8.411
 8435WAT     H225548   6.448   2.457   8.299
 8436WAT      O25549   7.747   3.598   6.315
 8436WAT     H125550   7.814   3.672   6.305
 8436WAT     H225551   7.655   3.636   6.308
 8437WAT      O25552   2.320   3.934   2.889
 8437WAT     H125553   2.418   3.943   2.908
 8437WAT     H225554   2.307   3.874   2.811
 8438WAT      O25555   1.581   9.701   5.336
 8438WAT     H125556   1.532   9.736   5.417
 8438WAT     H225557   1.662   9.756   5.320
 8439WAT      O25558   3.722   4.579   7.641
 8439WAT     H125559   3.739   4.636   7.722
 8439WAT     H225560   3.792   4.508   7.635
 8440WAT      O25561   6.469   2.936   7.029
 8440WAT     H125562   6.499   2.878   6.953
 8440WAT     H225563   6.546   2.953   7.091
 8441WAT      O25564   8.087   7.516   0.031
 8441WAT     H125565   8.164   7.579   0.043
 8441WAT     H225566   8.117   7.423   0.052
 8442WAT      O25567   7.427   3.895   4.160
 8442WAT     H125568   7.490   3.967   4.132
 8442WAT     H225569   7.337   3.912   4.119
 8443WAT      O25570   0.100   8.057   8.621
 8443WAT     H125571   0.120   8.155   8.623
 8443WAT     H225572   0.160   8.009   8.686
 8444WAT      O25573   8.764   1.361   2.148
 8444WAT     H125574   8.807   1.271   2.160
 8444WAT     H225575   8.740   1.397   2.238
 8445WAT      O25576   4.927   5.510   2.973
 8445WAT     H125577   4.843   5.563   2.986
 8445WAT     H225578   4.998   5.542   3.035
 8446WAT      O25579   8.529   4.869   2.880
 8446WAT     H125580   8.558   4.792   2.824
 8446WAT     H225581   8.508   4.947   2.822
 8447WAT      O25582   8.772   7.091   4.037
 8447WAT     H125583   8.863   7.099   4.076
 8447WAT     H225584   8.775   7.110   3.938
 8448WAT      O25585   7.780   5.363   3.519
 8448WAT     H125586   7.845   5.427   3.478
 8448WAT     H225587   7.822   5.273   3.526
 8449WAT      O25588   9.864   4.433   4.491
 8449WAT     H125589   9.946   4.488   4.473
 8449WAT     H225590   9.851   4.367   4.417
 8450WAT      O25591   5.352   7.851   9.232
 8450WAT     H125592   5.383   7.765   9.272
 8450WAT     H225593   5.374   7.853   9.134
 8451WAT      O25594   9.421   3.409   2.473
 8451WAT     H125595   9.461   3.339   2.533
 8451WAT     H225596   9.325   3.423   2.497
 8452WAT      O25597   1.002   7.076   3.509
 8452WAT     H125598   1.058   7.021   3.447
 8452WAT     H225599   0.945   7.138   3.455
 8453WAT      O25600   3.420   6.211   7.423
 8453WAT     H125601   3.336   6.261   7.447
 8453WAT     H225602   3.404   6.159   7.339
 8454WAT      O25603   9.789   3.382   9.366
 8454WAT     H125604   9.809   3.286   9.345
 8454WAT     H225605   9.815   3.401   9.461
 8455WAT      O25606   5.639   6.477   8.276
 8455WAT     H125607   5.717   6.414   8.274
 8455WAT     H225608   5.666   6.562   8.323
 8456WAT      O25609   9.258   0.794   9.691
 8456WAT     H125610   9.172   0.789   9.742
 8456WAT     H225611   9.307   0.877   9.718
 8457WAT      O25612   7.309   8.638   3.968
 8457WAT     H125613   7.227   8.610   3.920
 8457WAT     H225614   7.378   8.566   3.961
 8458WAT      O25615   3.884   9.144   5.607
 8458WAT     H125616   3.822   9.176   5.678
 8458WAT     H225617   3.917   9.052   5.629
 8459WAT      O25618   9.224   7.033   5.316
 8459WAT     H125619   9.153   6.989   5.370
 8459WAT     H225620   9.279   7.093   5.374
 8460WAT      O25621   3.626   3.587   3.295
 8460WAT     H125622   3.595   3.572   3.389
 8460WAT     H225623   3.699   3.523   3.272
 8461WAT      O25624   1.598   5.712   0.408
 8461WAT     H125625   1.631   5.700   0.502
 8461WAT     H225626   1.592   5.809   0.387
 8462WAT      O25627   6.140   4.338   8.208
 8462WAT     H125628   6.106   4.245   8.196
 8462WAT     H225629   6.086   4.384   8.280
 8463WAT      O25630   7.468   4.715   2.621
 8463WAT     H125631   7.554   4.672   2.595
 8463WAT     H225632   7.434   4.771   2.546
 8464WAT      O25633   9.026   0.344   3.289
 8464WAT     H125634   9.067   0.425   3.331
 8464WAT     H225635   8.980   0.370   3.204
 8465WAT      O25636   0.282   6.774   1.052
 8465WAT     H125637   0.267   6.795   0.956
 8465WAT     H225638   0.279   6.858   1.106
 8466WAT      O25639   2.598   4.179   8.543
 8466WAT     H125640   2.659   4.127   8.603
 8466WAT     H225641   2.524   4.218   8.597
 8467WAT      O25642   5.111   6.375   1.654
 8467WAT     H125643   5.210   6.372   1.665
 8467WAT     H225644   5.088   6.385   1.557
 8468WAT      O25645   1.608   3.013   2.082
 8468WAT     H125646   1.563   3.045   1.999
 8468WAT     H225647   1.562   2.931   2.116
 8469WAT      O25648   3.124   1.671   8.407
 8469WAT     H125649   3.141   1.583   8.363
 8469WAT     H225650   3.201   1.732   8.392
 8470WAT      O25651   2.919   4.093   7.101
 8470WAT     H125652   2.934   4.028   7.027
 8470WAT     H225653   2.881   4.178   7.064
 8471WAT      O25654   6.924   5.655   0.990
 8471WAT     H125655   7.016   5.669   0.953
 8471WAT     H225656   6.922   5.571   1.044
 8472WAT      O25657   6.791   6.164   8.433
 8472WAT     H125658   6.888   6.151   8.451
 8472WAT     H225659   6.778   6.243   8.373
 8473WAT      O25660   8.233   3.302   8.800
 8473WAT     H125661   8.201   3.375   8.860
 8473WAT     H225662   8.301   3.338   8.736
 8474WAT      O25663   0.929   7.972   6.186
 8474WAT     H125664   0.964   7.980   6.093
 8474WAT     H225665   0.886   8.059   6.212
 8475WAT      O25666   8.953   6.065   9.147
 8475WAT     H125667   9.028   6.018   9.194
 8475WAT     H225668   8.952   6.161   9.174
 8476WAT      O25669   5.117   9.130   7.104
 8476WAT     H125670   5.055   9.184   7.047
 8476WAT     H225671   5.212   9.151   7.079
 8477WAT      O25672   8.683   1.042   2.641
 8477WAT     H125673   8.669   0.943   2.637
 8477WAT     H225674   8.632   1.080   2.718
 8478WAT      O25675   0.910   3.189   9.717
 8478WAT     H125676   0.997   3.146   9.743
 8478WAT     H225677   0.853   3.122   9.670
 8479WAT      O25678   0.764   1.321   9.295
 8479WAT     H125679   0.665   1.336   9.301
 8479WAT     H225680   0.782   1.245   9.232
 8480WAT      O25681   7.465   8.704   6.404
 8480WAT     H125682   7.367   8.704   6.385
 8480WAT     H225683   7.516   8.695   6.319
 8481WAT      O25684   9.006   4.977   0.491
 8481WAT     H125685   9.055   4.889   0.486
 8481WAT     H225686   9.057   5.040   0.549
 8482WAT      O25687   3.224   7.497   8.401
 8482WAT     H125688   3.134   7.540   8.405
 8482WAT     H225689   3.241   7.462   8.309
 8483WAT      O25690   8.312   2.032   8.482
 8483WAT     H125691   8.246   2.023   8.557
 8483WAT     H225692   8.317   1.946   8.432
 8484WAT      O25693   1.136   2.862   0.915
 8484WAT     H125694   1.150   2.901   1.006
 8484WAT     H225695   1.053   2.806   0.915
 8485WAT      O25696   9.100   7.077   8.911
 8485WAT     H125697   9.135   7.034   8.994
 8485WAT     H225698   9.166   7.063   8.836
 8486WAT      O25699   8.730   9.639   2.405
 8486WAT     H125700   8.677   9.554   2.403
 8486WAT     H225701   8.706   9.691   2.486
 8487WAT      O25702   4.407   3.543   5.866
 8487WAT     H125703   4.457   3.526   5.951
 8487WAT     H225704   4.469   3.583   5.798
 8488WAT      O25705   0.101   1.173   8.884
 8488WAT     H125706   0.144   1.122   8.959
 8488WAT     H225707   0.062   1.108   8.819
 8489WAT      O25708   1.626   1.694   3.615
 8489WAT     H125709   1.526   1.686   3.616
 8489WAT     H225710   1.657   1.709   3.522
 8490WAT      O25711   2.199   1.731   4.047
 8490WAT     H125712   2.109   1.690   4.064
 8490WAT     H225713   2.208   1.755   3.950
 8491WAT      O25714   7.955   6.839   3.792
 8491WAT     H125715   7.919   6.925   3.754
 8491WAT     H225716   7.984   6.854   3.887
 8492WAT      O25717   7.452   0.226   7.276
 8492WAT     H125718   7.423   0.235   7.181
 8492WAT     H225719   7.425   0.136   7.311
 8493WAT      O25720   6.056   8.784   4.271
 8493WAT     H125721   6.123   8.858   4.274
 8493WAT     H225722   6.066   8.728   4.353
 8494WAT      O25723   2.371   7.892   8.473
 8494WAT     H125724   2.325   7.855   8.392
 8494WAT     H225725   2.464   7.856   8.478
 8495WAT      O25726   1.971   6.495   7.057
 8495WAT     H125727   1.988   6.462   7.150
 8495WAT     H225728   2.046   6.555   7.028
 8496WAT      O25729   5.132   4.466   8.139
 8496WAT     H125730   5.134   4.561   8.170
 8496WAT     H225731   5.076   4.411   8.201
 8497WAT      O25732   3.832   5.415   2.529
 8497WAT     H125733   3.927   5.386   2.545
 8497WAT     H225734   3.786   5.348   2.471
 8498WAT      O25735   7.809   0.139   0.293
 8498WAT     H125736   7.862   0.215   0.331
 8498WAT     H225737   7.768   0.087   0.368
 8499WAT      O25738   3.344   3.887   1.071
 8499WAT     H125739   3.330   3.793   1.041
 8499WAT     H225740   3.313   3.897   1.166
 8500WAT      O25741   7.398   0.150   4.597
 8500WAT     H125742   7.443   0.153   4.508
 8500WAT     H225743   7.413   0.237   4.644
 8501WAT      O25744   1.591   5.128   4.721
 8501WAT     H125745   1.600   5.069   4.801
 8501WAT     H225746   1.662   5.198   4.722
 8502WAT      O25747   8.603   7.344   0.180
 8502WAT     H125748   8.612   7.260   0.234
 8502WAT     H225749   8.546   7.325   0.099
 8503WAT      O25750   8.111   0.534   3.528
 8503WAT     H125751   8.210   0.534   3.520
 8503WAT     H225752   8.077   0.440   3.519
 8504WAT      O25753   5.385   2.267   9.832
 8504WAT     H125754   5.336   2.283   9.746
 8504WAT     H225755   5.353   2.182   9.873
 8505WAT      O25756   8.727   5.990   7.286
 8505WAT     H125757   8.632   5.970   7.310
 8505WAT     H225758   8.737   6.088   7.269
 8506WAT      O25759   8.972   8.613   5.511
 8506WAT     H125760   9.016   8.604   5.601
 8506WAT     H225761   9.035   8.583   5.440
 8507WAT      O25762   0.674   5.396   8.936
 8507WAT     H125763   0.676   5.298   8.953
 8507WAT     H225764   0.766   5.429   8.915
 8508WAT      O25765   9.806   8.927   4.022
 8508WAT     H125766   9.825   8.877   3.938
 8508WAT     H225767   9.862   8.890   4.096
 8509WAT      O25768   1.342   0.349   8.917
 8509WAT     H125769   1.284   0.318   8.841
 8509WAT     H225770   1.422   0.395   8.880
 8510WAT      O25771   1.107   6.182   9.327
 8510WAT     H125772   1.119   6.266   9.381
 8510WAT     H225773   1.094   6.105   9.389
 8511WAT      O25774   4.500   1.014   5.433
 8511WAT     H125775   4.572   1.049   5.373
 8511WAT     H225776   4.449   0.942   5.384
 8512WAT      O25777   2.792   6.897   8.516
 8512WAT     H125778   2.746   6.888   8.428
 8512WAT     H225779   2.890   6.906   8.503
 8513WAT      O25780   7.271   0.910   9.030
 8513WAT     H125781   7.240   0.918   8.936
 8513WAT     H225782   7.205   0.856   9.083
 8514WAT      O25783   8.213   1.787   8.101
 8514WAT     H125784   8.226   1.688   8.103
 8514WAT     H225785   8.115   1.808   8.106
 8515WAT      O25786   4.859   3.063   4.750
 8515WAT     H125787   4.947   3.072   4.797
 8515WAT     H225788   4.867   3.100   4.658
 8516WAT      O25789   7.008   6.450   2.635
 8516WAT     H125790   6.974   6.521   2.697
 8516WAT     H225791   7.014   6.363   2.684
 8517WAT      O25792   8.541   8.778   4.321
 8517WAT     H125793   8.631   8.742   4.297
 8517WAT     H225794   8.523   8.759   4.418
 8518WAT      O25795   0.500   4.660   4.134
 8518WAT     H125796   0.481   4.563   4.119
 8518WAT     H225797   0.546   4.671   4.222
 8519WAT      O25798   0.087   8.005   3.349
 8519WAT     H125799   0.137   8.064   3.285
 8519WAT     H225800   0.079   7.913   3.311
 8520WAT      O25801   5.062   6.459   8.911
 8520WAT     H125802   5.135   6.520   8.878
 8520WAT     H225803   4.974   6.506   8.903
 8521WAT      O25804   2.102   7.495   3.838
 8521WAT     H125805   2.094   7.398   3.818
 8521WAT     H225806   2.012   7.533   3.859
 8522WAT      O25807   3.753   0.981   7.253
 8522WAT     H125808   3.801   0.970   7.166
 8522WAT     H225809   3.690   1.059   7.247
 8523WAT      O25810   8.917   7.870   4.518
 8523WAT     H125811   8.845   7.801   4.530
 8523WAT     H225812   8.979   7.868   4.597
 8524WAT      O25813   8.587   4.707   0.560
 8524WAT     H125814   8.501   4.751   0.533
 8524WAT     H225815   8.571   4.609   0.573
 8525WAT      O25816   6.500   4.158   8.569
 8525WAT     H125817   6.596   4.175   8.547
 8525WAT     H225818   6.475   4.211   8.650
 8526WAT      O25819   1.548   2.756   5.299
 8526WAT     H125820   1.565   2.844   5.254
 8526WAT     H225821   1.602   2.751   5.383
 8527WAT      O25822   6.027   7.567   5.610
 8527WAT     H125823   5.938   7.597   5.577
 8527WAT     H225824   6.095   7.638   5.591
 8528WAT      O25825   9.616   7.229   6.500
 8528WAT     H125826   9.592   7.299   6.568
 8528WAT     H225827   9.551   7.154   6.506
 8529WAT      O25828   1.671   6.934   8.719
 8529WAT     H125829   1.665   6.892   8.628
 8529WAT     H225830   1.767   6.954   8.740
 8530WAT      O25831   8.508   4.017   6.244
 8530WAT     H125832   8.526   4.113   6.224
 8530WAT     H225833   8.466   4.010   6.335
 8531WAT      O25834   4.992   4.318   1.487
 8531WAT     H125835   5.030   4.272   1.567
 8531WAT     H225836   5.048   4.298   1.407
 8532WAT      O25837   7.731   8.732   9.132
 8532WAT     H125838   7.817   8.731   9.082
 8532WAT     H225839   7.656   8.707   9.070
 8533WAT      O25840   8.827   4.444   0.783
 8533WAT     H125841   8.844   4.398   0.870
 8533WAT     H225842   8.827   4.543   0.798
 8534WAT      O25843   2.475   5.029   4.293
 8534WAT     H125844   2.452   5.100   4.227
 8534WAT     H225845   2.574   5.027   4.307
 8535WAT      O25846   4.798   1.227   9.345
 8535WAT     H125847   4.812   1.326   9.358
 8535WAT     H225848   4.710   1.201   9.383
 8536WAT      O25849   3.036   6.875   6.014
 8536WAT     H125850   3.107   6.805   6.020
 8536WAT     H225851   3.034   6.928   6.099
 8537WAT      O25852   6.946   7.407   4.685
 8537WAT     H125853   6.901   7.491   4.654
 8537WAT     H225854   6.973   7.352   4.606
 8538WAT      O25855   0.284   0.876   0.853
 8538WAT     H125856   0.290   0.975   0.860
 8538WAT     H225857   0.317   0.847   0.763
 8539WAT      O25858   4.809   6.148   8.715
 8539WAT     H125859   4.779   6.216   8.782
 8539WAT     H225860   4.907   6.161   8.696
 8540WAT      O25861   8.048   7.099   6.143
 8540WAT     H125862   8.097   7.126   6.060
 8540WAT     H225863   8.103   7.032   6.194
 8541WAT      O25864   8.960   9.108   2.946
 8541WAT     H125865   9.043   9.053   2.932
 8541WAT     H225866   8.978   9.175   3.018
 8542WAT      O25867   3.225   5.928   1.267
 8542WAT     H125868   3.265   5.958   1.353
 8542WAT     H225869   3.125   5.941   1.271
 8543WAT      O25870   4.943   7.565   1.837
 8543WAT     H125871   4.990   7.652   1.822
 8543WAT     H225872   4.879   7.574   1.913
 8544WAT      O25873   6.125   7.941   9.641
 8544WAT     H125874   6.142   8.000   9.562
 8544WAT     H225875   6.053   7.981   9.698
 8545WAT      O25876   8.080   5.082   2.830
 8545WAT     H125877   7.990   5.121   2.845
 8545WAT     H225878   8.149   5.154   2.836
 8546WAT      O25879   1.226   4.841   6.515
 8546WAT     H125880   1.225   4.744   6.493
 8546WAT     H225881   1.319   4.871   6.532
 8547WAT      O25882   9.850   4.289   6.270
 8547WAT     H125883   9.827   4.192   6.260
 8547WAT     H225884   9.769   4.345   6.254
 8548WAT      O25885   4.569   9.790   4.713
 8548WAT     H125886   4.551   9.721   4.783
 8548WAT     H225887   4.482   9.831   4.685
 8549WAT      O25888   4.194   0.518   2.272
 8549WAT     H125889   4.212   0.593   2.209
 8549WAT     H225890   4.246   0.533   2.357
 8550WAT      O25891   0.568   7.303   0.189
 8550WAT     H125892   0.477   7.315   0.229
 8550WAT     H225893   0.599   7.390   0.149
 8551WAT      O25894   2.663   6.913   1.384
 8551WAT     H125895   2.592   6.980   1.362
 8551WAT     H225896   2.719   6.947   1.459
 8552WAT      O25897   1.459   3.116   3.379
 8552WAT     H125898   1.416   3.123   3.289
 8552WAT     H225899   1.446   3.203   3.428
 8553WAT      O25900   6.152   9.496   2.610
 8553WAT     H125901   6.083   9.489   2.682
 8553WAT     H225902   6.239   9.526   2.649
 8554WAT      O25903   0.746   6.752   5.774
 8554WAT     H125904   0.829   6.803   5.793
 8554WAT     H225905   0.668   6.815   5.771
 8555WAT      O25906   9.625   1.112   8.955
 8555WAT     H125907   9.684   1.161   8.890
 8555WAT     H225908   9.530   1.137   8.939
 8556WAT      O25909   4.725   6.734   0.737
 8556WAT     H125910   4.818   6.727   0.700
 8556WAT     H225911   4.714   6.670   0.812
 8557WAT      O25912   7.111   7.224   3.108
 8557WAT     H125913   7.164   7.237   3.025
 8557WAT     H225914   7.168   7.180   3.177
 8558WAT      O25915   3.359   2.407   2.307
 8558WAT     H125916   3.360   2.448   2.398
 8558WAT     H225917   3.363   2.479   2.238
 8559WAT      O25918   1.804   5.810   4.920
 8559WAT     H125919   1.753   5.869   4.857
 8559WAT     H225920   1.770   5.716   4.912
 8560WAT      O25921   6.128   9.249   8.876
 8560WAT     H125922   6.162   9.306   8.801
 8560WAT     H225923   6.124   9.303   8.960
 8561WAT      O25924   9.652   2.234   8.259
 8561WAT     H125925   9.729   2.291   8.231
 8561WAT     H225926   9.686   2.152   8.306
 8562WAT      O25927   4.264   8.288   0.741
 8562WAT     H125928   4.240   8.216   0.806
 8562WAT     H225929   4.304   8.247   0.659
 8563WAT      O25930   8.175   7.423   7.729
 8563WAT     H125931   8.158   7.332   7.767
 8563WAT     H225932   8.190   7.416   7.631
 8564WAT      O25933   9.713   4.451   7.499
 8564WAT     H125934   9.688   4.503   7.417
 8564WAT     H225935   9.733   4.514   7.574
 8565WAT      O25936   3.277   4.377   0.054
 8565WAT     H125937   3.338   4.298   0.055
 8565WAT     H225938   3.184   4.348   0.077
 8566WAT      O25939   0.285   5.116   0.617
 8566WAT     H125940   0.345   5.194   0.600
 8566WAT     H225941   0.263   5.071   0.530
 8567WAT      O25942   5.763   6.866   0.367
 8567WAT     H125943   5.710   6.903   0.291
 8567WAT     H225944   5.711   6.876   0.452
 8568WAT      O25945   3.499   6.606   8.420
 8568WAT     H125946   3.460   6.694   8.396
 8568WAT     H225947   3.439   6.533   8.387
 8569WAT      O25948   7.414   2.642   1.828
 8569WAT     H125949   7.404   2.670   1.732
 8569WAT     H225950   7.510   2.625   1.847
 8570WAT      O25951   1.454   4.918   7.716
 8570WAT     H125952   1.466   5.008   7.675
 8570WAT     H225953   1.487   4.919   7.810
 8571WAT      O25954   4.536   6.935   8.402
 8571WAT     H125955   4.632   6.949   8.427
 8571WAT     H225956   4.530   6.898   8.310
 8572WAT      O25957   6.409   9.309   1.417
 8572WAT     H125958   6.496   9.303   1.368
 8572WAT     H225959   6.381   9.218   1.448
 8573WAT      O25960   3.966   0.465   7.049
 8573WAT     H125961   4.044   0.406   7.028
 8573WAT     H225962   3.988   0.522   7.128
 8574WAT      O25963   1.737   1.358   2.690
 8574WAT     H125964   1.821   1.306   2.675
 8574WAT     H225965   1.707   1.346   2.784
 8575WAT      O25966   5.571   9.028   5.802
 8575WAT     H125967   5.651   9.018   5.743
 8575WAT     H225968   5.545   9.124   5.808
 8576WAT      O25969   7.082   2.817   1.802
 8576WAT     H125970   7.127   2.848   1.886
 8576WAT     H225971   7.134   2.849   1.723
 8577WAT      O25972   4.100   0.793   8.714
 8577WAT     H125973   4.037   0.799   8.791
 8577WAT     H225974   4.155   0.710   8.723
 8578WAT      O25975   5.295   1.349   5.904
 8578WAT     H125976   5.200   1.363   5.879
 8578WAT     H225977   5.303   1.266   5.959
 8579WAT      O25978   5.402   0.143   5.908
 8579WAT     H125979   5.443   0.074   5.849
 8579WAT     H225980   5.472   0.183   5.968
 8580WAT      O25981   2.887   1.079   6.498
 8580WAT     H125982   2.794   1.096   6.531
 8580WAT     H225983   2.939   1.164   6.497
 8581WAT      O25984   9.070   8.773   8.746
 8581WAT     H125985   9.128   8.757   8.666
 8581WAT     H225986   8.979   8.734   8.730
 8582WAT      O25987   3.968   2.699   1.077
 8582WAT     H125988   4.010   2.647   1.151
 8582WAT     H225989   4.029   2.772   1.048
 8583WAT      O25990   8.797   1.914   0.133
 8583WAT     H125991   8.703   1.916   0.100
 8583WAT     H225992   8.857   1.879   0.061
 8584WAT      O25993   3.475   6.501   5.985
 8584WAT     H125994   3.379   6.476   5.993
 8584WAT     H225995   3.509   6.475   5.895
 8585WAT      O25996   2.661   3.754   0.091
 8585WAT     H125997   2.752   3.795   0.095
 8585WAT     H225998   2.660   3.669   0.143
 8586WAT      O25999   1.385   1.520   5.896
 8586WAT     H126000   1.349   1.447   5.953
 8586WAT     H226001   1.332   1.527   5.811
 8587WAT      O26002   9.391   1.806   7.398
 8587WAT     H126003   9.328   1.771   7.468
 8587WAT     H226004   9.414   1.731   7.335
 8588WAT      O26005   4.442   5.569   3.043
 8588WAT     H126006   4.410   5.540   2.953
 8588WAT     H226007   4.409   5.661   3.062
 8589WAT      O26008   3.283   6.703   9.845
 8589WAT     H126009   3.241   6.761   9.775
 8589WAT     H226010   3.222   6.627   9.866
 8590WAT      O26011   0.985   8.903   4.050
 8590WAT     H126012   0.978   8.803   4.050
 8590WAT     H226013   1.070   8.931   4.006
 8591WAT      O26014   5.006   7.739   7.733
 8591WAT     H126015   5.008   7.698   7.824
 8591WAT     H226016   4.965   7.675   7.668
 8592WAT      O26017   3.890   2.062   3.646
 8592WAT     H126018   3.805   2.010   3.647
 8592WAT     H226019   3.871   2.159   3.630
 8593WAT      O26020   1.652   0.074   2.342
 8593WAT     H126021   1.609   0.107   2.426
 8593WAT     H226022   1.742   0.118   2.331
 8594WAT      O26023   7.835   0.633   0.760
 8594WAT     H126024   7.745   0.598   0.735
 8594WAT     H226025   7.830   0.674   0.851
 8595WAT      O26026   6.191   4.455   2.485
 8595WAT     H126027   6.265   4.483   2.423
 8595WAT     H226028   6.103   4.467   2.440
 8596WAT      O26029   0.797   8.345   9.272
 8596WAT     H126030   0.848   8.383   9.195
 8596WAT     H226031   0.700   8.367   9.262
 8597WAT      O26032   3.686   0.583   7.351
 8597WAT     H126033   3.668   0.487   7.374
 8597WAT     H226034   3.773   0.589   7.302
 8598WAT      O26035   8.677   3.371   2.738
 8598WAT     H126036   8.741   3.379   2.662
 8598WAT     H226037   8.694   3.285   2.787
 8599WAT      O26038   9.781   5.083   4.251
 8599WAT     H126039   9.755   5.089   4.155
 8599WAT     H226040   9.701   5.058   4.306
 8600WAT      O26041   7.402   4.475   8.117
 8600WAT     H126042   7.331   4.497   8.184
 8600WAT     H226043   7.415   4.375   8.114
 8601WAT      O26044   0.409   0.426   9.583
 8601WAT     H126045   0.461   0.482   9.518
 8601WAT     H226046   0.376   0.344   9.537
 8602WAT      O26047   1.998   6.095   4.347
 8602WAT     H126048   2.085   6.138   4.374
 8602WAT     H226049   1.922   6.142   4.392
 8603WAT      O26050   7.888   3.786   0.951
 8603WAT     H126051   7.904   3.801   0.853
 8603WAT     H226052   7.883   3.688   0.969
 8604WAT      O26053   4.138   3.450   7.055
 8604WAT     H126054   4.221   3.402   7.028
 8604WAT     H226055   4.060   3.387   7.051
 8605WAT      O26056   4.908   0.725   3.168
 8605WAT     H126057   4.816   0.689   3.154
 8605WAT     H226058   4.909   0.823   3.148
 8606WAT      O26059   9.823   1.897   0.153
 8606WAT     H126060   9.849   1.943   0.237
 8606WAT     H226061   9.886   1.923   0.080
 8607WAT      O26062   2.112   2.689   2.138
 8607WAT     H126063   2.142   2.728   2.225
 8607WAT     H226064   2.040   2.621   2.155
 8608WAT      O26065   2.306   1.966   5.957
 8608WAT     H126066   2.358   1.990   5.875
 8608WAT     H226067   2.364   1.978   6.038
 8609WAT      O26068   7.299   9.274   5.187
 8609WAT     H126069   7.379   9.230   5.146
 8609WAT     H226070   7.328   9.351   5.244
 8610WAT      O26071   7.772   4.172   1.070
 8610WAT     H126072   7.744   4.076   1.078
 8610WAT     H226073   7.863   4.176   1.028
 8611WAT      O26074   2.448   5.386   8.453
 8611WAT     H126075   2.375   5.384   8.384
 8611WAT     H226076   2.525   5.439   8.419
 8612WAT      O26077   9.380   2.990   7.101
 8612WAT     H126078   9.448   3.030   7.163
 8612WAT     H226079   9.395   2.892   7.095
 8613WAT      O26080   0.331   3.343   2.506
 8613WAT     H126081   0.367   3.361   2.415
 8613WAT     H226082   0.346   3.247   2.530
 8614WAT      O26083   4.190   5.730   2.645
 8614WAT     H126084   4.158   5.699   2.555
 8614WAT     H226085   4.289   5.718   2.651
 8615WAT      O26086   2.458   4.999   9.104
 8615WAT     H126087   2.484   5.034   9.014
 8615WAT     H226088   2.405   5.069   9.153
 8616WAT      O26089   6.826   7.666   3.902
 8616WAT     H126090   6.808   7.635   3.995
 8616WAT     H226091   6.745   7.713   3.866
 8617WAT      O26092   1.765   4.329   7.050
 8617WAT     H126093   1.802   4.410   7.006
 8617WAT     H226094   1.824   4.250   7.032
 8618WAT      O26095   4.127   0.310   2.652
 8618WAT     H126096   4.043   0.356   2.625
 8618WAT     H226097   4.111   0.211   2.657
 8619WAT      O26098   7.651   7.567   5.357
 8619WAT     H126099   7.648   7.522   5.446
 8619WAT     H226100   7.701   7.654   5.365
 8620WAT      O26101   7.731   0.173   3.632
 8620WAT     H126102   7.826   0.151   3.652
 8620WAT     H226103   7.700   0.247   3.692
 8621WAT      O26104   5.462   0.793   3.204
 8621WAT     H126105   5.492   0.888   3.189
 8621WAT     H226106   5.363   0.792   3.219
 8622WAT      O26107   2.732   7.506   0.003
 8622WAT     H126108   2.714   7.581   0.066
 8622WAT     H226109   2.770   7.428   0.053
 8623WAT      O26110   6.897   8.032   3.055
 8623WAT     H126111   6.798   8.025   3.042
 8623WAT     H226112   6.924   7.986   3.139
 8624WAT      O26113   2.548   5.774   3.179
 8624WAT     H126114   2.600   5.689   3.185
 8624WAT     H226115   2.602   5.843   3.130
 8625WAT      O26116   9.044   3.462   3.255
 8625WAT     H126117   9.070   3.527   3.327
 8625WAT     H226118   8.949   3.478   3.229
 8626WAT      O26119   4.106   7.976   0.576
 8626WAT     H126120   4.024   7.984   0.633
 8626WAT     H226121   4.089   7.913   0.501
 8627WAT      O26122   1.825   0.639   0.772
 8627WAT     H126123   1.895   0.592   0.826
 8627WAT     H226124   1.751   0.669   0.831
 8628WAT      O26125   2.890   3.817   0.387
 8628WAT     H126126   2.799   3.783   0.410
 8628WAT     H226127   2.885   3.915   0.367
 8629WAT      O26128   0.609   3.406   0.664
 8629WAT     H126129   0.628   3.459   0.581
 8629WAT     H226130   0.544   3.333   0.643
 8630WAT      O26131   4.813   8.390   2.562
 8630WAT     H126132   4.848   8.427   2.648
 8630WAT     H226133   4.887   8.385   2.495
 8631WAT      O26134   3.333   7.962   3.700
 8631WAT     H126135   3.235   7.951   3.682
 8631WAT     H226136   3.383   7.888   3.655
 8632WAT      O26137   2.776   1.038   3.369
 8632WAT     H126138   2.728   0.953   3.344
 8632WAT     H226139   2.863   1.015   3.413
 8633WAT      O26140   0.991   1.102   7.786
 8633WAT     H126141   1.035   1.167   7.848
 8633WAT     H226142   1.006   1.132   7.692
 8634WAT      O26143   4.223   1.138   4.417
 8634WAT     H126144   4.180   1.141   4.507
 8634WAT     H226145   4.247   1.231   4.389
 8635WAT      O26146   5.092   5.428   5.558
 8635WAT     H126147   5.086   5.377   5.644
 8635WAT     H226148   5.014   5.491   5.551
 8636WAT      O26149   6.370   6.372   5.873
 8636WAT     H126150   6.399   6.329   5.788
 8636WAT     H226151   6.270   6.375   5.876
 8637WAT      O26152   8.184   5.869   3.059
 8637WAT     H126153   8.180   5.785   3.114
 8637WAT     H226154   8.105   5.873   2.998
 8638WAT      O26155   2.855   3.364   6.771
 8638WAT     H126156   2.860   3.441   6.708
 8638WAT     H226157   2.799   3.291   6.730
 8639WAT      O26158   3.281   3.505   0.277
 8639WAT     H126159   3.228   3.548   0.349
 8639WAT     H226160   3.362   3.560   0.257
 8640WAT      O26161   8.613   8.752   8.467
 8640WAT     H126162   8.683   8.689   8.500
 8640WAT     H226163   8.635   8.780   8.374
 8641WAT      O26164   0.888   3.442   7.695
 8641WAT     H126165   0.813   3.378   7.678
 8641WAT     H226166   0.874   3.525   7.639
 8642WAT      O26167   3.572   4.565   8.226
 8642WAT     H126168   3.474   4.555   8.205
 8642WAT     H226169   3.586   4.554   8.324
 8643WAT      O26170   0.862   5.959   7.800
 8643WAT     H126171   0.887   5.976   7.896
 8643WAT     H226172   0.911   6.022   7.741
 8644WAT      O26173   7.127   6.364   1.622
 8644WAT     H126174   7.157   6.276   1.660
 8644WAT     H226175   7.123   6.357   1.522
 8645WAT      O26176   9.581   6.081   8.940
 8645WAT     H126177   9.524   6.040   8.869
 8645WAT     H226178   9.526   6.144   8.995
 8646WAT      O26179   2.285   9.797   7.938
 8646WAT     H126180   2.280   9.822   7.841
 8646WAT     H226181   2.229   9.716   7.954
 8647WAT      O26182   7.396   9.594   2.620
 8647WAT     H126183   7.401   9.603   2.521
 8647WAT     H226184   7.468   9.532   2.652
 8648WAT      O26185   6.493   1.416   4.190
 8648WAT     H126186   6.423   1.486   4.172
 8648WAT     H226187   6.482   1.383   4.284
 8649WAT      O26188   4.472   9.312   9.451
 8649WAT     H126189   4.508   9.240   9.391
 8649WAT     H226190   4.539   9.331   9.523
 8650WAT      O26191   8.815   0.129   8.450
 8650WAT     H126192   8.814   0.045   8.503
 8650WAT     H226193   8.803   0.208   8.510
 8651WAT      O26194   8.529   0.175   2.444
 8651WAT     H126195   8.438   0.149   2.413
 8651WAT     H226196   8.564   0.106   2.507
 8652WAT      O26197   0.211   2.462   4.088
 8652WAT     H126198   0.192   2.436   4.183
 8652WAT     H226199   0.125   2.465   4.037
 8653WAT      O26200   9.035   8.255   5.537
 8653WAT     H126201   9.034   8.161   5.573
 8653WAT     H226202   8.948   8.274   5.491
 8654WAT      O26203   1.556   1.485   8.806
 8654WAT     H126204   1.558   1.548   8.729
 8654WAT     H226205   1.611   1.404   8.784
 8655WAT      O26206   5.857   6.521   0.250
 8655WAT     H126207   5.880   6.605   0.201
 8655WAT     H226208   5.932   6.496   0.310
 8656WAT      O26209   2.034   3.659   7.322
 8656WAT     H126210   1.965   3.589   7.343
 8656WAT     H226211   1.994   3.726   7.259
 8657WAT      O26212   1.880   7.695   8.448
 8657WAT     H126213   1.966   7.658   8.481
 8657WAT     H226214   1.806   7.632   8.470
 8658WAT      O26215   1.063   9.203   6.134
 8658WAT     H126216   0.984   9.145   6.114
 8658WAT     H226217   1.137   9.184   6.069
 8659WAT      O26218   1.065   3.612   0.739
 8659WAT     H126219   0.995   3.542   0.725
 8659WAT     H226220   1.025   3.702   0.725
 8660WAT      O26221   0.554   1.253   4.415
 8660WAT     H126222   0.636   1.221   4.367
 8660WAT     H226223   0.484   1.279   4.348
 8661WAT      O26224   4.981   8.063   6.888
 8661WAT     H126225   4.991   7.984   6.949
 8661WAT     H226226   4.982   8.031   6.793
 8662WAT      O26227   9.389   0.843   3.127
 8662WAT     H126228   9.358   0.837   3.222
 8662WAT     H226229   9.381   0.754   3.084
 8663WAT      O26230   8.264   0.961   8.527
 8663WAT     H126231   8.288   0.953   8.430
 8663WAT     H226232   8.338   0.923   8.583
 8664WAT      O26233   1.705   0.598   3.339
 8664WAT     H126234   1.790   0.601   3.287
 8664WAT     H226235   1.706   0.519   3.400
 8665WAT      O26236   5.263   2.578   4.680
 8665WAT     H126237   5.192   2.577   4.610
 8665WAT     H226238   5.343   2.528   4.647
 8666WAT      O26239   1.070   6.692   1.071
 8666WAT     H126240   1.135   6.758   1.035
 8666WAT     H226241   1.115   6.602   1.080
 8667WAT      O26242   9.130   5.948   0.345
 8667WAT     H126243   9.226   5.971   0.355
 8667WAT     H226244   9.078   6.030   0.322
 8668WAT      O26245   2.875   8.980   9.605
 8668WAT     H126246   2.933   8.898   9.608
 8668WAT     H226247   2.911   9.043   9.537
 8669WAT      O26248   3.360   8.028   1.976
 8669WAT     H126249   3.456   8.040   2.003
 8669WAT     H226250   3.356   7.968   1.896
 8670WAT      O26251   0.673   8.148   0.615
 8670WAT     H126252   0.642   8.167   0.708
 8670WAT     H226253   0.603   8.098   0.565
 8671WAT      O26254   3.857   9.209   7.435
 8671WAT     H126255   3.774   9.266   7.438
 8671WAT     H226256   3.863   9.165   7.346
 8672WAT      O26257   0.413   7.745   4.478
 8672WAT     H126258   0.324   7.706   4.501
 8672WAT     H226259   0.483   7.706   4.539
 8673WAT      O26260   2.369   4.861   3.760
 8673WAT     H126261   2.416   4.921   3.825
 8673WAT     H226262   2.353   4.911   3.675
 8674WAT      O26263   5.137   0.382   6.112
 8674WAT     H126264   5.156   0.477   6.135
 8674WAT     H226265   5.192   0.322   6.170
 8675WAT      O26266   2.729   1.010   9.293
 8675WAT     H126267   2.657   0.961   9.243
 8675WAT     H226268   2.755   1.091   9.241
 8676WAT      O26269   4.170   5.824   8.130
 8676WAT     H126270   4.229   5.744   8.117
 8676WAT     H226271   4.206   5.881   8.203
 8677WAT      O26272   8.014   2.659   8.207
 8677WAT     H126273   8.024   2.560   8.221
 8677WAT     H226274   8.083   2.691   8.142
 8678WAT      O26275   0.476   0.435   8.759
 8678WAT     H126276   0.559   0.382   8.778
 8678WAT     H226277   0.500   0.515   8.704
 8679WAT      O26278   6.102   5.476   4.812
 8679WAT     H126279   6.155   5.510   4.890
 8679WAT     H226280   6.031   5.413   4.844
 8680WAT      O26281   3.096   2.821   4.270
 8680WAT     H126282   3.038   2.741   4.287
 8680WAT     H226283   3.134   2.853   4.357
 8681WAT      O26284   6.664   7.418   5.420
 8681WAT     H126285   6.740   7.406   5.356
 8681WAT     H226286   6.589   7.464   5.374
 8682WAT      O26287   3.010   8.353   8.324
 8682WAT     H126288   3.047   8.285   8.260
 8682WAT     H226289   2.989   8.437   8.274
 8683WAT      O26290   5.612   6.110   6.598
 8683WAT     H126291   5.655   6.199   6.582
 8683WAT     H226292   5.683   6.040   6.610
 8684WAT      O26293   4.320   8.774   2.365
 8684WAT     H126294   4.245   8.712   2.343
 8684WAT     H226295   4.348   8.823   2.282
 8685WAT      O26296   6.294   2.090   6.901
 8685WAT     H126297   6.335   2.150   6.832
 8685WAT     H226298   6.232   2.025   6.856
 8686WAT      O26299   8.221   6.988   3.684
 8686WAT     H126300   8.153   6.944   3.625
 8686WAT     H226301   8.292   7.029   3.628
 8687WAT      O26302   9.842   9.837   6.199
 8687WAT     H126303   9.854   9.807   6.294
 8687WAT     H226304   9.875   9.931   6.190
 8688WAT      O26305   5.286   3.284   2.495
 8688WAT     H126306   5.355   3.234   2.548
 8688WAT     H226307   5.197   3.277   2.540
 8689WAT      O26308   4.700   3.451   0.577
 8689WAT     H126309   4.669   3.496   0.661
 8689WAT     H226310   4.674   3.354   0.580
 8690WAT      O26311   0.597   9.190   0.967
 8690WAT     H126312   0.689   9.216   0.998
 8690WAT     H226313   0.577   9.237   0.881
 8691WAT      O26314   7.904   6.150   1.441
 8691WAT     H126315   7.905   6.105   1.530
 8691WAT     H226316   7.846   6.231   1.444
 8692WAT      O26317   3.091   2.092   4.941
 8692WAT     H126318   3.001   2.073   4.903
 8692WAT     H226319   3.081   2.149   5.023
 8693WAT      O26320   7.202   2.713   4.757
 8693WAT     H126321   7.137   2.681   4.826
 8693WAT     H226322   7.175   2.805   4.726
 8694WAT      O26323   8.819   9.493   1.046
 8694WAT     H126324   8.761   9.430   0.993
 8694WAT     H226325   8.772   9.517   1.131
 8695WAT      O26326   4.048   8.569   1.797
 8695WAT     H126327   4.011   8.586   1.706
 8695WAT     H226328   3.979   8.592   1.866
 8696WAT      O26329   4.550   8.052   1.775
 8696WAT     H126330   4.585   8.084   1.862
 8696WAT     H226331   4.574   8.117   1.703
 8697WAT      O26332   4.015   2.658   5.599
 8697WAT     H126333   4.000   2.572   5.646
 8697WAT     H226334   4.056   2.640   5.509
 8698WAT      O26335   9.411   3.368   7.750
 8698WAT     H126336   9.425   3.273   7.777
 8698WAT     H226337   9.499   3.415   7.750
 8699WAT      O26338   2.446   0.503   7.163
 8699WAT     H126339   2.362   0.451   7.170
 8699WAT     H226340   2.477   0.505   7.068
 8700WAT      O26341   4.418   1.931   9.196
 8700WAT     H126342   4.393   1.964   9.287
 8700WAT     H226343   4.337   1.895   9.149
 8701WAT      O26344   0.388   0.224   2.485
 8701WAT     H126345   0.484   0.253   2.491
 8701WAT     H226346   0.371   0.150   2.549
 8702WAT      O26347   0.189   0.405   9.315
 8702WAT     H126348   0.211   0.331   9.380
 8702WAT     H226349   0.211   0.375   9.222
 8703WAT      O26350   6.149   8.302   4.177
 8703WAT     H126351   6.227   8.339   4.227
 8703WAT     H226352   6.069   8.360   4.191
 8704WAT      O26353   6.832   5.572   6.715
 8704WAT     H126354   6.881   5.572   6.802
 8704WAT     H226355   6.805   5.665   6.691
 8705WAT      O26356   6.427   1.681   2.264
 8705WAT     H126357   6.473   1.617   2.203
 8705WAT     H226358   6.347   1.638   2.304
 8706WAT      O26359   8.550   9.222   2.111
 8706WAT     H126360   8.477   9.167   2.152
 8706WAT     H226361   8.616   9.247   2.182
 8707WAT      O26362   8.978   5.315   9.293
 8707WAT     H126363   8.934   5.232   9.259
 8707WAT     H226364   9.010   5.300   9.386
 8708WAT      O26365   0.917   8.703   2.960
 8708WAT     H126366   0.986   8.636   2.991
 8708WAT     H226367   0.961   8.791   2.945
 8709WAT      O26368   7.360   6.127   8.208
 8709WAT     H126369   7.282   6.145   8.149
 8709WAT     H226370   7.373   6.204   8.270
 8710WAT      O26371   1.996   0.853   3.454
 8710WAT     H126372   1.953   0.911   3.524
 8710WAT     H226373   2.043   0.777   3.498
 8711WAT      O26374   9.599   3.199   8.203
 8711WAT     H126375   9.592   3.168   8.108
 8711WAT     H226376   9.680   3.256   8.213
 8712WAT      O26377   9.398   2.080   4.296
 8712WAT     H126378   9.312   2.085   4.347
 8712WAT     H226379   9.448   1.997   4.323
 8713WAT      O26380   0.660   6.515   7.839
 8713WAT     H126381   0.701   6.444   7.782
 8713WAT     H226382   0.569   6.485   7.870
 8714WAT      O26383   6.943   9.125   0.680
 8714WAT     H126384   6.961   9.028   0.665
 8714WAT     H226385   6.860   9.136   0.734
 8715WAT      O26386   4.298   3.683   7.474
 8715WAT     H126387   4.260   3.660   7.564
 8715WAT     H226388   4.352   3.767   7.481
 8716WAT      O26389   2.775   6.255   8.765
 8716WAT     H126390   2.822   6.247   8.853
 8716WAT     H226391   2.781   6.350   8.732
 8717WAT      O26392   9.302   2.833   3.688
 8717WAT     H126393   9.265   2.851   3.597
 8717WAT     H226394   9.380   2.771   3.681
 8718WAT      O26395   4.413   9.235   1.666
 8718WAT     H126396   4.502   9.254   1.623
 8718WAT     H226397   4.359   9.176   1.606
 8719WAT      O26398   5.969   2.683   1.269
 8719WAT     H126399   6.045   2.725   1.317
 8719WAT     H226400   5.924   2.751   1.211
 8720WAT      O26401   9.053   3.983   4.521
 8720WAT     H126402   9.077   4.018   4.430
 8720WAT     H226403   9.096   4.040   4.591
 8721WAT      O26404   7.399   3.123   5.261
 8721WAT     H126405   7.457   3.053   5.305
 8721WAT     H226406   7.454   3.205   5.244
 8722WAT      O26407   1.115   3.981   1.198
 8722WAT     H126408   1.155   3.939   1.116
 8722WAT     H226409   1.022   3.948   1.211
 8723WAT      O26410   7.008   2.322   4.368
 8723WAT     H126411   6.983   2.233   4.407
 8723WAT     H226412   7.057   2.376   4.437
 8724WAT      O26413   0.457   2.651   0.622
 8724WAT     H126414   0.509   2.589   0.680
 8724WAT     H226415   0.518   2.695   0.556
 8725WAT      O26416   3.525   1.641   8.363
 8725WAT     H126417   3.620   1.659   8.337
 8725WAT     H226418   3.510   1.543   8.371
 8726WAT      O26419   5.591   1.122   8.436
 8726WAT     H126420   5.655   1.199   8.440
 8726WAT     H226421   5.510   1.148   8.384
 8727WAT      O26422   1.980   5.746   7.095
 8727WAT     H126423   2.043   5.678   7.133
 8727WAT     H226424   2.029   5.833   7.084
 8728WAT      O26425   9.745   9.156   8.443
 8728WAT     H126426   9.687   9.084   8.403
 8728WAT     H226427   9.692   9.207   8.511
 8729WAT      O26428   6.250   0.218   1.101
 8729WAT     H126429   6.175   0.176   1.151
 8729WAT     H226430   6.215   0.289   1.041
 8730WAT      O26431   3.377   6.088   1.446
 8730WAT     H126432   3.471   6.093   1.412
 8730WAT     H226433   3.378   6.085   1.546
 8731WAT      O26434   5.104   0.259   7.004
 8731WAT     H126435   5.155   0.256   6.918
 8731WAT     H226436   5.133   0.183   7.062
 8732WAT      O26437   1.416   9.119   9.168
 8732WAT     H126438   1.504   9.112   9.214
 8732WAT     H226439   1.424   9.183   9.091
 8733WAT      O26440   6.574   2.764   4.138
 8733WAT     H126441   6.641   2.825   4.181
 8733WAT     H226442   6.622   2.701   4.077
 8734WAT      O26443   1.513   7.156   1.421
 8734WAT     H126444   1.505   7.060   1.448
 8734WAT     H226445   1.449   7.211   1.474
 8735WAT      O26446   3.478   3.343   5.459
 8735WAT     H126447   3.395   3.308   5.416
 8735WAT     H226448   3.480   3.442   5.452
 8736WAT      O26449   4.908   7.482   6.691
 8736WAT     H126450   4.828   7.494   6.749
 8736WAT     H226451   4.881   7.445   6.602
 8737WAT      O26452   5.389   5.646   0.512
 8737WAT     H126453   5.359   5.573   0.450
 8737WAT     H226454   5.409   5.728   0.458
 8738WAT      O26455   6.281   0.165   7.313
 8738WAT     H126456   6.247   0.209   7.230
 8738WAT     H226457   6.259   0.222   7.392
 8739WAT      O26458   6.923   1.313   6.678
 8739WAT     H126459   6.939   1.354   6.588
 8739WAT     H226460   6.915   1.214   6.669
 8740WAT      O26461   5.199   5.759   9.881
 8740WAT     H126462   5.178   5.756   9.979
 8740WAT     H226463   5.290   5.721   9.865
 8741WAT      O26464   5.543   9.288   2.494
 8741WAT     H126465   5.565   9.298   2.591
 8741WAT     H226466   5.466   9.226   2.484
 8742WAT      O26467   9.107   2.121   0.456
 8742WAT     H126468   9.132   2.217   0.446
 8742WAT     H226469   9.189   2.064   0.453
 8743WAT      O26470   2.912   8.915   5.114
 8743WAT     H126471   2.979   8.862   5.063
 8743WAT     H226472   2.864   8.854   5.178
 8744WAT      O26473   4.073   7.261   3.725
 8744WAT     H126474   4.090   7.177   3.775
 8744WAT     H226475   3.988   7.253   3.673
 8745WAT      O26476   6.446   6.825   4.578
 8745WAT     H126477   6.410   6.796   4.667
 8745WAT     H226478   6.538   6.786   4.566
 8746WAT      O26479   9.390   4.187   6.204
 8746WAT     H126480   9.437   4.275   6.203
 8746WAT     H226481   9.323   4.183   6.130
 8747WAT      O26482   5.839   5.991   3.559
 8747WAT     H126483   5.861   6.068   3.620
 8747WAT     H226484   5.790   6.025   3.479
 8748WAT      O26485   0.869   9.584   8.797
 8748WAT     H126486   0.944   9.611   8.738
 8748WAT     H226487   0.784   9.583   8.745
 8749WAT      O26488   7.555   6.569   7.340
 8749WAT     H126489   7.613   6.497   7.303
 8749WAT     H226490   7.599   6.610   7.419
 8750WAT      O26491   7.079   0.042   1.222
 8750WAT     H126492   6.984   0.072   1.225
 8750WAT     H226493   7.108   0.035   1.126
 8751WAT      O26494   5.280   2.874   1.057
 8751WAT     H126495   5.352   2.929   1.100
 8751WAT     H226496   5.322   2.804   1.000
 8752WAT      O26497   2.509   6.225   0.557
 8752WAT     H126498   2.495   6.127   0.539
 8752WAT     H226499   2.443   6.256   0.626
 8753WAT      O26500   9.710   4.859   6.026
 8753WAT     H126501   9.710   4.815   5.936
 8753WAT     H226502   9.796   4.908   6.039
 8754WAT      O26503   1.965   3.694   2.298
 8754WAT     H126504   1.883   3.663   2.346
 8754WAT     H226505   2.031   3.619   2.292
 8755WAT      O26506   1.423   9.479   4.209
 8755WAT     H126507   1.461   9.420   4.137
 8755WAT     H226508   1.342   9.526   4.174
 8756WAT      O26509   0.010   5.337   6.176
 8756WAT     H126510   0.086   5.273   6.166
 8756WAT     H226511   0.027   5.418   6.120
 8757WAT      O26512   8.173   2.608   9.205
 8757WAT     H126513   8.077   2.615   9.180
 8757WAT     H226514   8.184   2.627   9.302
 8758WAT      O26515   2.233   3.465   8.547
 8758WAT     H126516   2.309   3.403   8.529
 8758WAT     H226517   2.175   3.427   8.620
 8759WAT      O26518   4.477   9.457   9.011
 8759WAT     H126519   4.527   9.522   8.953
 8759WAT     H226520   4.543   9.400   9.061
 8760WAT      O26521   4.891   2.874   7.252
 8760WAT     H126522   4.899   2.963   7.297
 8760WAT     H226523   4.856   2.807   7.318
 8761WAT      O26524   7.746   8.661   5.603
 8761WAT     H126525   7.758   8.689   5.698
 8761WAT     H226526   7.649   8.652   5.583
 8762WAT      O26527   8.155   1.483   5.280
 8762WAT     H126528   8.138   1.462   5.184
 8762WAT     H226529   8.148   1.582   5.295
 8763WAT      O26530   5.767   0.412   6.838
 8763WAT     H126531   5.674   0.379   6.857
 8763WAT     H226532   5.763   0.505   6.802
 8764WAT      O26533   2.139   4.635   5.175
 8764WAT     H126534   2.044   4.615   5.152
 8764WAT     H226535   2.174   4.563   5.235
 8765WAT      O26536   8.409   0.895   9.172
 8765WAT     H126537   8.366   0.976   9.212
 8765WAT     H226538   8.363   0.813   9.206
 8766WAT      O26539   6.576   1.493   3.699
 8766WAT     H126540   6.586   1.429   3.623
 8766WAT     H226541   6.641   1.568   3.689
 8767WAT      O26542   2.745   9.253   1.074
 8767WAT     H126543   2.756   9.261   1.173
 8767WAT     H226544   2.827   9.212   1.034
 8768WAT      O26545   1.093   0.920   9.535
 8768WAT     H126546   1.005   0.871   9.531
 8768WAT     H226547   1.116   0.955   9.444
 8769WAT      O26548   1.327   8.932   6.914
 8769WAT     H126549   1.378   8.978   6.841
 8769WAT     H226550   1.229   8.952   6.903
 8770WAT      O26551   6.849   4.806   5.338
 8770WAT     H126552   6.942   4.769   5.333
 8770WAT     H226553   6.785   4.733   5.358
 8771WAT      O26554   2.940   7.321   9.614
 8771WAT     H126555   2.917   7.227   9.586
 8771WAT     H226556   3.000   7.318   9.693
 8772WAT      O26557   1.509   1.385   4.936
 8772WAT     H126558   1.486   1.326   4.859
 8772WAT     H226559   1.558   1.333   5.006
 8773WAT      O26560   9.386   7.871   3.239
 8773WAT     H126561   9.295   7.843   3.271
 8773WAT     H226562   9.432   7.923   3.311
 8774WAT      O26563   3.148   7.054   2.830
 8774WAT     H126564   3.071   7.058   2.895
 8774WAT     H226565   3.219   7.118   2.858
 8775WAT      O26566   7.810   5.024   6.572
 8775WAT     H126567   7.744   5.011   6.646
 8775WAT     H226568   7.900   5.044   6.611
 8776WAT      O26569   1.102   2.187   9.586
 8776WAT     H126570   1.078   2.111   9.525
 8776WAT     H226571   1.199   2.210   9.573
 8777WAT      O26572   6.039   3.777   6.848
 8777WAT     H126573   6.009   3.854   6.791
 8777WAT     H226574   6.085   3.812   6.929
 8778WAT      O26575   0.844   0.956   3.327
 8778WAT     H126576   0.944   0.948   3.323
 8778WAT     H226577   0.809   0.898   3.400
 8779WAT      O26578   4.785   1.242   8.177
 8779WAT     H126579   4.853   1.205   8.240
 8779WAT     H226580   4.749   1.328   8.213
 8780WAT      O26581   5.055   7.621   7.263
 8780WAT     H126582   5.146   7.596   7.296
 8780WAT     H226583   5.059   7.708   7.214
 8781WAT      O26584   5.947   4.422   0.534
 8781WAT     H126585   5.863   4.392   0.578
 8781WAT     H226586   6.017   4.440   0.604
 8782WAT      O26587   7.350   9.344   4.229
 8782WAT     H126588   7.316   9.432   4.195
 8782WAT     H226589   7.406   9.359   4.310
 8783WAT      O26590   4.886   1.363   3.411
 8783WAT     H126591   4.814   1.338   3.346
 8783WAT     H226592   4.971   1.320   3.384
 8784WAT      O26593   3.487   0.740   2.209
 8784WAT     H126594   3.579   0.705   2.194
 8784WAT     H226595   3.493   0.827   2.259
 8785WAT      O26596   7.600   8.549   7.271
 8785WAT     H126597   7.616   8.612   7.194
 8785WAT     H226598   7.683   8.543   7.326
 8786WAT      O26599   0.644   3.353   2.726
 8786WAT     H126600   0.642   3.273   2.666
 8786WAT     H226601   0.672   3.324   2.818
 8787WAT      O26602   1.301   1.787   7.825
 8787WAT     H126603   1.280   1.727   7.902
 8787WAT     H226604   1.220   1.841   7.801
 8788WAT      O26605   3.189   8.455   0.758
 8788WAT     H126606   3.195   8.377   0.820
 8788WAT     H226607   3.145   8.427   0.673
 8789WAT      O26608   2.943   5.597   2.352
 8789WAT     H126609   3.029   5.649   2.350
 8789WAT     H226610   2.936   5.546   2.437
 8790WAT      O26611   2.266   3.370   5.785
 8790WAT     H126612   2.268   3.296   5.718
 8790WAT     H226613   2.218   3.449   5.746
 8791WAT      O26614   8.406   2.287   9.471
 8791WAT     H126615   8.483   2.286   9.535
 8791WAT     H226616   8.361   2.198   9.471
 8792WAT      O26617   6.344   4.731   6.199
 8792WAT     H126618   6.418   4.664   6.203
 8792WAT     H226619   6.360   4.794   6.123
 8793WAT      O26620   7.856   7.194   6.513
 8793WAT     H126621   7.852   7.221   6.417
 8793WAT     H226622   7.768   7.212   6.557
 8794WAT      O26623   5.375   8.920   2.109
 8794WAT     H126624   5.409   9.013   2.101
 8794WAT     H226625   5.277   8.918   2.088
 8795WAT      O26626   4.658   6.752   3.583
 8795WAT     H126627   4.655   6.851   3.594
 8795WAT     H226628   4.713   6.729   3.502
 8796WAT      O26629   4.445   7.737   9.580
 8796WAT     H126630   4.454   7.716   9.677
 8796WAT     H226631   4.493   7.821   9.559
 8797WAT      O26632   9.652   1.670   0.616
 8797WAT     H126633   9.745   1.707   0.618
 8797WAT     H226634   9.622   1.649   0.709
 8798WAT      O26635   2.929   0.447   6.659
 8798WAT     H126636   2.880   0.505   6.594
 8798WAT     H226637   2.926   0.352   6.627
 8799WAT      O26638   2.262   3.414   1.005
 8799WAT     H126639   2.181   3.375   1.050
 8799WAT     H226640   2.343   3.365   1.037
 8800WAT      O26641   7.354   5.190   4.303
 8800WAT     H126642   7.398   5.108   4.339
 8800WAT     H226643   7.266   5.165   4.263
 8801WAT      O26644   3.939   9.652   9.823
 8801WAT     H126645   4.005   9.578   9.820
 8801WAT     H226646   3.847   9.615   9.817
 8802WAT      O26647   3.820   7.390   6.946
 8802WAT     H126648   3.722   7.406   6.933
 8802WAT     H226649   3.850   7.431   7.032
 8803WAT      O26650   3.294   7.380   0.923
 8803WAT     H126651   3.231   7.356   0.849
 8803WAT     H226652   3.383   7.406   0.884
 8804WAT      O26653   3.342   1.320   8.653
 8804WAT     H126654   3.272   1.289   8.589
 8804WAT     H226655   3.298   1.341   8.741
 8805WAT      O26656   8.470   8.485   7.970
 8805WAT     H126657   8.386   8.458   7.924
 8805WAT     H226658   8.490   8.419   8.043
 8806WAT      O26659   2.445   1.209   5.052
 8806WAT     H126660   2.518   1.261   5.009
 8806WAT     H226661   2.356   1.249   5.028
 8807WAT      O26662   0.654   3.510   5.352
 8807WAT     H126663   0.751   3.514   5.375
 8807WAT     H226664   0.635   3.570   5.275
 8808WAT      O26665   9.355   0.782   5.545
 8808WAT     H126666   9.434   0.742   5.500
 8808WAT     H226667   9.292   0.709   5.573
 8809WAT      O26668   9.338   3.854   1.164
 8809WAT     H126669   9.392   3.893   1.238
 8809WAT     H226670   9.396   3.839   1.084
 8810WAT      O26671   8.390   3.137   4.359
 8810WAT     H126672   8.454   3.196   4.408
 8810WAT     H226673   8.432   3.048   4.343
 8811WAT      O26674   9.194   6.082   9.617
 8811WAT     H126675   9.116   6.112   9.671
 8811WAT     H226676   9.250   6.162   9.592
 8812WAT      O26677   8.372   4.872   4.140
 8812WAT     H126678   8.362   4.964   4.100
 8812WAT     H226679   8.374   4.880   4.240
 8813WAT      O26680   5.742   4.000   2.817
 8813WAT     H126681   5.755   3.952   2.904
 8813WAT     H226682   5.653   4.046   2.818
 8814WAT      O26683   2.721   4.657   9.806
 8814WAT     H126684   2.679   4.576   9.764
 8814WAT     H226685   2.699   4.659   9.904
 8815WAT      O26686   7.367   0.256   3.503
 8815WAT     H126687   7.355   0.234   3.600
 8815WAT     H226688   7.463   0.277   3.485
 8816WAT      O26689   6.041   7.444   6.770
 8816WAT     H126690   5.989   7.493   6.700
 8816WAT     H226691   6.074   7.357   6.733
 8817WAT      O26692   2.510   6.813   6.761
 8817WAT     H126693   2.492   6.896   6.814
 8817WAT     H226694   2.608   6.796   6.757
 8818WAT      O26695   3.347   3.545   5.923
 8818WAT     H126696   3.306   3.586   5.842
 8818WAT     H226697   3.349   3.446   5.914
 8819WAT      O26698   1.109   4.549   6.274
 8819WAT     H126699   1.034   4.496   6.233
 8819WAT     H226700   1.092   4.560   6.372
 8820WAT      O26701   1.575   7.165   7.621
 8820WAT     H126702   1.555   7.204   7.532
 8820WAT     H226703   1.494   7.115   7.655
 8821WAT      O26704   9.497   0.036   0.465
 8821WAT     H126705   9.436  -0.011   0.528
 8821WAT     H226706   9.572  -0.025   0.439
 8822WAT      O26707   7.576   7.748   2.781
 8822WAT     H126708   7.538   7.695   2.856
 8822WAT     H226709   7.529   7.725   2.696
 8823WAT      O26710   1.104   7.613   2.385
 8823WAT     H126711   1.099   7.667   2.301
 8823WAT     H226712   1.067   7.666   2.461
 8824WAT      O26713   1.316   3.060   9.860
 8824WAT     H126714   1.231   3.009   9.874
 8824WAT     H226715   1.324   3.131   9.930
 8825WAT      O26716   7.453   3.952   8.094
 8825WAT     H126717   7.520   3.949   8.169
 8825WAT     H226718   7.423   3.859   8.074
 8826WAT      O26719   7.636   2.252   8.511
 8826WAT     H126720   7.555   2.229   8.457
 8826WAT     H226721   7.683   2.329   8.469
 8827WAT      O26722   2.760   2.752   7.066
 8827WAT     H126723   2.760   2.654   7.086
 8827WAT     H226724   2.787   2.802   7.148
 8828WAT      O26725   0.291   3.001   5.824
 8828WAT     H126726   0.319   2.980   5.730
 8828WAT     H226727   0.207   3.055   5.823
 8829WAT      O26728   7.555   4.052   8.905
 8829WAT     H126729   7.634   4.032   8.848
 8829WAT     H226730   7.581   4.115   8.978
 8830WAT      O26731   9.373   7.020   6.178
 8830WAT     H126732   9.437   6.997   6.251
 8830WAT     H226733   9.282   6.985   6.201
 8831WAT      O26734   4.881   9.019   5.470
 8831WAT     H126735   4.816   9.065   5.408
 8831WAT     H226736   4.961   9.076   5.482
 8832WAT      O26737   0.445   6.802   4.637
 8832WAT     H126738   0.444   6.712   4.593
 8832WAT     H226739   0.538   6.836   4.642
 8833WAT      O26740   3.746   9.666   2.609
 8833WAT     H126741   3.819   9.616   2.562
 8833WAT     H226742   3.773   9.761   2.621
 8834WAT      O26743   8.226   8.665   3.095
 8834WAT     H126744   8.249   8.758   3.067
 8834WAT     H226745   8.293   8.633   3.162
 8835WAT      O26746   3.982   2.978   4.183
 8835WAT     H126747   3.917   3.048   4.153
 8835WAT     H226748   4.005   2.918   4.105
 8836WAT      O26749   7.699   7.512   9.874
 8836WAT     H126750   7.758   7.570   9.931
 8836WAT     H226751   7.714   7.534   9.777
 8837WAT      O26752   2.362   1.114   2.176
 8837WAT     H126753   2.266   1.097   2.198
 8837WAT     H226754   2.411   1.027   2.171
 8838WAT      O26755   3.799   4.732   9.261
 8838WAT     H126756   3.845   4.702   9.344
 8838WAT     H226757   3.725   4.796   9.285
 8839WAT      O26758   6.290   9.772   6.088
 8839WAT     H126759   6.229   9.729   6.154
 8839WAT     H226760   6.237   9.809   6.012
 8840WAT      O26761   5.246   9.651   3.613
 8840WAT     H126762   5.217   9.680   3.705
 8840WAT     H226763   5.346   9.643   3.611
 8841WAT      O26764   0.698   8.956   8.094
 8841WAT     H126765   0.704   8.947   8.194
 8841WAT     H226766   0.635   9.030   8.071
 8842WAT      O26767   1.399   8.606   4.941
 8842WAT     H126768   1.429   8.527   4.888
 8842WAT     H226769   1.478   8.666   4.959
 8843WAT      O26770   4.295   6.077   1.513
 8843WAT     H126771   4.322   6.057   1.607
 8843WAT     H226772   4.319   6.172   1.491
 8844WAT      O26773   8.192   5.114   5.318
 8844WAT     H126774   8.166   5.062   5.399
 8844WAT     H226775   8.170   5.061   5.236
 8845WAT      O26776   9.307   4.146   8.367
 8845WAT     H126777   9.341   4.085   8.439
 8845WAT     H226778   9.377   4.154   8.295
 8846WAT      O26779   5.014   0.661   8.758
 8846WAT     H126780   5.091   0.707   8.802
 8846WAT     H226781   4.928   0.688   8.802
 8847WAT      O26782   8.822   3.903   6.854
 8847WAT     H126783   8.860   3.918   6.945
 8847WAT     H226784   8.737   3.954   6.845
 8848WAT      O26785   4.105   4.548   7.900
 8848WAT     H126786   4.064   4.533   7.990
 8848WAT     H226787   4.199   4.580   7.911
 8849WAT      O26788   7.547   9.287   9.189
 8849WAT     H126789   7.545   9.381   9.224
 8849WAT     H226790   7.636   9.246   9.208
 8850WAT      O26791   3.679   2.741   9.848
 8850WAT     H126792   3.702   2.837   9.831
 8850WAT     H226793   3.642   2.700   9.765
 8851WAT      O26794   1.994   2.026   0.403
 8851WAT     H126795   1.908   2.026   0.454
 8851WAT     H226796   1.998   2.106   0.343
 8852WAT      O26797   2.605   5.920   9.403
 8852WAT     H126798   2.553   5.931   9.319
 8852WAT     H226799   2.597   5.826   9.436
 8853WAT      O26800   6.489   3.246   0.105
 8853WAT     H126801   6.492   3.266   0.007
 8853WAT     H226802   6.533   3.320   0.155
 8854WAT      O26803   2.212   1.042   1.148
 8854WAT     H126804   2.254   1.011   1.234
 8854WAT     H226805   2.284   1.072   1.085
 8855WAT      O26806   4.242   4.858   0.312
 8855WAT     H126807   4.197   4.772   0.338
 8855WAT     H226808   4.184   4.907   0.247
 8856WAT      O26809   6.694   3.160   9.618
 8856WAT     H126810   6.771   3.175   9.556
 8856WAT     H226811   6.664   3.065   9.612
 8857WAT      O26812   7.372   9.557   1.624
 8857WAT     H126813   7.456   9.587   1.667
 8857WAT     H226814   7.376   9.576   1.525
 8858WAT      O26815   8.395   4.604   1.087
 8858WAT     H126816   8.434   4.640   1.002
 8858WAT     H226817   8.364   4.680   1.144
 8859WAT      O26818   0.853   4.465   5.718
 8859WAT     H126819   0.924   4.463   5.788
 8859WAT     H226820   0.851   4.554   5.674
 8860WAT      O26821   6.919   0.281   0.879
 8860WAT     H126822   6.922   0.183   0.902
 8860WAT     H226823   6.901   0.334   0.962
 8861WAT      O26824   8.075   5.170   1.766
 8861WAT     H126825   8.000   5.155   1.701
 8861WAT     H226826   8.142   5.231   1.724
 8862WAT      O26827   4.146   4.058   3.029
 8862WAT     H126828   4.167   4.035   2.934
 8862WAT     H226829   4.069   4.003   3.061
 8863WAT      O26830   4.042   2.548   7.218
 8863WAT     H126831   4.133   2.511   7.198
 8863WAT     H226832   4.037   2.643   7.188
 8864WAT      O26833   2.259   9.762   7.660
 8864WAT     H126834   2.234   9.699   7.586
 8864WAT     H226835   2.225   9.854   7.639
 8865WAT      O26836   4.868   6.787   9.148
 8865WAT     H126837   4.784   6.781   9.202
 8865WAT     H226838   4.942   6.742   9.197
 8866WAT      O26839   3.101   5.816   3.093
 8866WAT     H126840   3.137   5.723   3.106
 8866WAT     H226841   3.058   5.822   3.003
 8867WAT      O26842   3.335   7.336   2.756
 8867WAT     H126843   3.254   7.293   2.717
 8867WAT     H226844   3.407   7.341   2.687
 8868WAT      O26845   0.845   7.262   3.385
 8868WAT     H126846   0.855   7.292   3.290
 8868WAT     H226847   0.809   7.337   3.440
 8869WAT      O26848   5.259   5.136   2.674
 8869WAT     H126849   5.296   5.087   2.753
 8869WAT     H226850   5.290   5.231   2.676
 8870WAT      O26851   7.643   8.949   3.660
 8870WAT     H126852   7.722   8.935   3.720
 8870WAT     H226853   7.565   8.898   3.695
 8871WAT      O26854   4.055   7.978   3.166
 8871WAT     H126855   3.994   7.918   3.113
 8871WAT     H226856   4.001   8.046   3.214
 8872WAT      O26857   0.625   5.306   4.384
 8872WAT     H126858   0.621   5.314   4.483
 8872WAT     H226859   0.533   5.312   4.346
 8873WAT      O26860   6.872   8.065   7.564
 8873WAT     H126861   6.804   8.102   7.627
 8873WAT     H226862   6.835   8.066   7.471
 8874WAT      O26863   2.891   9.462   4.916
 8874WAT     H126864   2.899   9.370   4.879
 8874WAT     H226865   2.978   9.489   4.957
 8875WAT      O26866   5.843   0.286   7.984
 8875WAT     H126867   5.745   0.302   8.001
 8875WAT     H226868   5.890   0.374   7.980
 8876WAT      O26869   5.584   9.736   2.334
 8876WAT     H126870   5.679   9.751   2.359
 8876WAT     H226871   5.527   9.807   2.375
 8877WAT      O26872   7.632   4.076   6.431
 8877WAT     H126873   7.577   4.008   6.383
 8877WAT     H226874   7.587   4.102   6.516
 8878WAT      O26875   6.299   7.978   7.211
 8878WAT     H126876   6.293   8.055   7.274
 8878WAT     H226877   6.317   8.012   7.118
 8879WAT      O26878   6.539   7.572   8.635
 8879WAT     H126879   6.499   7.541   8.721
 8879WAT     H226880   6.636   7.548   8.632
 8880WAT      O26881   8.549   4.055   8.815
 8880WAT     H126882   8.603   4.014   8.742
 8880WAT     H226883   8.606   4.065   8.897
 8881WAT      O26884   0.480   5.502   6.930
 8881WAT     H126885   0.526   5.421   6.894
 8881WAT     H226886   0.384   5.482   6.946
 8882WAT      O26887   3.141   9.564   6.325
 8882WAT     H126888   3.185   9.647   6.290
 8882WAT     H226889   3.205   9.516   6.385
 8883WAT      O26890   6.554   6.442   5.251
 8883WAT     H126891   6.590   6.348   5.249
 8883WAT     H226892   6.523   6.464   5.343
 8884WAT      O26893   1.509   1.023   3.436
 8884WAT     H126894   1.423   0.973   3.427
 8884WAT     H226895   1.525   1.045   3.533
 8885WAT      O26896   2.050   8.472   6.984
 8885WAT     H126897   2.119   8.404   7.007
 8885WAT     H226898   2.039   8.477   6.884
 8886WAT      O26899   1.394   3.569   3.571
 8886WAT     H126900   1.440   3.480   3.568
 8886WAT     H226901   1.366   3.588   3.665
 8887WAT      O26902   0.681   4.972   3.789
 8887WAT     H126903   0.746   5.014   3.725
 8887WAT     H226904   0.714   4.984   3.882
 8888WAT      O26905   4.509   2.594   0.362
 8888WAT     H126906   4.427   2.540   0.346
 8888WAT     H226907   4.487   2.669   0.426
 8889WAT      O26908   8.295   9.074   7.221
 8889WAT     H126909   8.393   9.065   7.239
 8889WAT     H226910   8.244   9.006   7.274
 8890WAT      O26911   0.567   2.815   2.212
 8890WAT     H126912   0.660   2.854   2.210
 8890WAT     H226913   0.536   2.809   2.307
 8891WAT      O26914   8.507   6.756   7.135
 8891WAT     H126915   8.567   6.681   7.163
 8891WAT     H226916   8.445   6.724   7.064
 8892WAT      O26917   9.176   9.671   1.692
 8892WAT     H126918   9.212   9.718   1.612
 8892WAT     H226919   9.099   9.722   1.730
 8893WAT      O26920   1.548   9.346   0.243
 8893WAT     H126921   1.566   9.428   0.188
 8893WAT     H226922   1.599   9.353   0.329
 8894WAT      O26923   3.064   1.816   8.128
 8894WAT     H126924   3.003   1.892   8.106
 8894WAT     H226925   3.077   1.811   8.227
 8895WAT      O26926   3.598   1.013   5.583
 8895WAT     H126927   3.549   1.100   5.583
 8895WAT     H226928   3.689   1.026   5.622
 8896WAT      O26929   4.782   0.613   0.447
 8896WAT     H126930   4.771   0.711   0.434
 8896WAT     H226931   4.704   0.565   0.404
 8897WAT      O26932   4.827   8.129   7.818
 8897WAT     H126933   4.911   8.083   7.846
 8897WAT     H226934   4.831   8.225   7.845
 8898WAT      O26935   1.906   0.255   8.701
 8898WAT     H126936   1.927   0.162   8.672
 8898WAT     H226937   1.891   0.313   8.621
 8899WAT      O26938   0.918   9.068   5.939
 8899WAT     H126939   0.939   8.993   6.001
 8899WAT     H226940   0.831   9.110   5.964
 8900WAT      O26941   3.618   2.039   8.992
 8900WAT     H126942   3.645   2.125   8.949
 8900WAT     H226943   3.519   2.038   9.006
 8901WAT      O26944   0.612   6.726   6.580
 8901WAT     H126945   0.672   6.646   6.590
 8901WAT     H226946   0.607   6.753   6.484
 8902WAT      O26947   2.942   7.225   6.589
 8902WAT     H126948   2.932   7.314   6.634
 8902WAT     H226949   2.853   7.181   6.582
 8903WAT      O26950   7.913   8.732   3.648
 8903WAT     H126951   8.004   8.733   3.607
 8903WAT     H226952   7.905   8.806   3.715
 8904WAT      O26953   5.380   8.476   5.861
 8904WAT     H126954   5.333   8.499   5.946
 8904WAT     H226955   5.467   8.432   5.882
 8905WAT      O26956   3.171   9.563   0.933
 8905WAT     H126957   3.088   9.542   0.984
 8905WAT     H226958   3.251   9.535   0.986
 8906WAT      O26959   3.592   5.622   3.038
 8906WAT     H126960   3.559   5.670   3.119
 8906WAT     H226961   3.603   5.686   2.962
 8907WAT      O26962   0.606   1.791   2.778
 8907WAT     H126963   0.529   1.734   2.807
 8907WAT     H226964   0.649   1.749   2.697
 8908WAT      O26965   5.732   2.071   9.488
 8908WAT     H126966   5.708   2.159   9.447
 8908WAT     H226967   5.656   2.038   9.544
 8909WAT      O26968   6.551   2.057   4.767
 8909WAT     H126969   6.588   2.094   4.682
 8909WAT     H226970   6.618   1.996   4.809
 8910WAT      O26971   7.483   6.004   7.031
 8910WAT     H126972   7.534   5.956   7.102
 8910WAT     H226973   7.492   5.955   6.944
 8911WAT      O26974   9.156   4.251   2.960
 8911WAT     H126975   9.091   4.214   2.894
 8911WAT     H226976   9.106   4.305   3.028
 8912WAT      O26977   2.893   6.994   4.111
 8912WAT     H126978   2.915   6.927   4.040
 8912WAT     H226979   2.944   6.972   4.194
 8913WAT      O26980   9.442   4.615   5.955
 8913WAT     H126981   9.476   4.624   6.049
 8913WAT     H226982   9.445   4.704   5.910
 8914WAT      O26983   8.020   0.920   9.358
 8914WAT     H126984   7.982   1.000   9.310
 8914WAT     H226985   8.026   0.843   9.295
 8915WAT      O26986   2.502   3.325   5.503
 8915WAT     H126987   2.575   3.389   5.480
 8915WAT     H226988   2.414   3.363   5.473
 8916WAT      O26989   1.355   2.294   7.391
 8916WAT     H126990   1.302   2.342   7.321
 8916WAT     H226991   1.442   2.341   7.405
 8917WAT      O26992   7.498   9.216   8.355
 8917WAT     H126993   7.520   9.152   8.429
 8917WAT     H226994   7.570   9.211   8.285
 8918WAT      O26995   0.130   3.408   2.049
 8918WAT     H126996   0.185   3.383   1.969
 8918WAT     H226997   0.136   3.334   2.117
 8919WAT      O26998   2.718   7.680   3.490
 8919WAT     H126999   2.622   7.656   3.475
 8919WAT     H227000   2.763   7.607   3.541
 8920WAT      O27001   7.864   0.962   2.305
 8920WAT     H127002   7.959   0.980   2.278
 8920WAT     H227003   7.861   0.876   2.357
 8921WAT      O27004   0.082   9.710   7.826
 8921WAT     H127005   0.151   9.647   7.863
 8921WAT     H227006  -0.006   9.663   7.821
 8922WAT      O27007   1.239   7.446   7.121
 8922WAT     H127008   1.248   7.378   7.194
 8922WAT     H227009   1.320   7.445   7.064
 8923WAT      O27010   1.199   2.432   8.070
 8923WAT     H127011   1.167   2.523   8.044
 8923WAT     H227012   1.173   2.414   8.165
 8924WAT      O27013   7.563   2.895   1.101
 8924WAT     H127014   7.655   2.935   1.099
 8924WAT     H227015   7.496   2.968   1.113
 8925WAT      O27016   3.365   0.397   2.011
 8925WAT     H127017   3.448   0.392   2.068
 8925WAT     H227018   3.288   0.359   2.062
 8926WAT      O27019   3.410   6.745   7.104
 8926WAT     H127020   3.441   6.652   7.086
 8926WAT     H227021   3.480   6.810   7.074
 8927WAT      O27022   6.239   7.694   2.626
 8927WAT     H127023   6.218   7.791   2.612
 8927WAT     H227024   6.156   7.647   2.656
 8928WAT      O27025   0.810   2.437   0.555
 8928WAT     H127026   0.796   2.339   0.544
 8928WAT     H227027   0.795   2.482   0.467
 8929WAT      O27028   5.023   8.011   6.625
 8929WAT     H127029   5.027   8.084   6.557
 8929WAT     H227030   5.116   7.980   6.646
 8930WAT      O27031   9.034   1.804   9.336
 8930WAT     H127032   9.000   1.730   9.278
 8930WAT     H227033   9.020   1.892   9.290
 8931WAT      O27034   7.689   0.545   0.029
 8931WAT     H127035   7.661   0.490   0.107
 8931WAT     H227036   7.623   0.535  -0.045
 8932WAT      O27037   1.472   1.843   8.854
 8932WAT     H127038   1.509   1.788   8.929
 8932WAT     H227039   1.375   1.858   8.868
 8933WAT      O27040   8.151   2.929   1.170
 8933WAT     H127041   8.242   2.890   1.187
 8933WAT     H227042   8.082   2.860   1.189
 8934WAT      O27043   2.504   1.399   8.597
 8934WAT     H127044   2.455   1.440   8.674
 8934WAT     H227045   2.475   1.443   8.512
 8935WAT      O27046   5.082   3.011   3.375
 8935WAT     H127047   5.106   3.102   3.411
 8935WAT     H227048   5.021   2.965   3.439
 8936WAT      O27049   8.761   2.622   3.224
 8936WAT     H127050   8.765   2.545   3.288
 8936WAT     H227051   8.697   2.691   3.258
 8937WAT      O27052   4.929   3.322   5.487
 8937WAT     H127053   5.003   3.355   5.545
 8937WAT     H227054   4.841   3.349   5.526
 8938WAT      O27055   3.491   9.378   0.546
 8938WAT     H127056   3.506   9.383   0.645
 8938WAT     H227057   3.504   9.469   0.506
 8939WAT      O27058   2.993   7.863   4.952
 8939WAT     H127059   3.076   7.890   5.001
 8939WAT     H227060   3.013   7.854   4.855
 8940WAT      O27061   2.451   9.390   6.449
 8940WAT     H127062   2.506   9.368   6.368
 8940WAT     H227063   2.512   9.414   6.524
 8941WAT      O27064   7.455   8.710   2.384
 8941WAT     H127065   7.435   8.676   2.476
 8941WAT     H227066   7.551   8.738   2.378
 8942WAT      O27067   8.162   0.125   2.584
 8942WAT     H127068   8.225   0.130   2.506
 8942WAT     H227069   8.213   0.139   2.668
 8943WAT      O27070   9.435   2.021   0.001
 8943WAT     H127071   9.379   2.103   0.017
 8943WAT     H227072   9.530   2.043   0.020
 8944WAT      O27073   0.285   3.696   1.254
 8944WAT     H127074   0.370   3.732   1.292
 8944WAT     H227075   0.266   3.606   1.293
 8945WAT      O27076   3.119   0.615   5.451
 8945WAT     H127077   3.028   0.604   5.410
 8945WAT     H227078   3.189   0.601   5.381
 8946WAT      O27079   4.516   2.705   7.200
 8946WAT     H127080   4.566   2.684   7.116
 8946WAT     H227081   4.532   2.800   7.225
 8947WAT      O27082   9.513   0.770   2.738
 8947WAT     H127083   9.574   0.765   2.659
 8947WAT     H227084   9.462   0.685   2.746
 8948WAT      O27085   0.964   4.915   8.500
 8948WAT     H127086   0.874   4.899   8.460
 8948WAT     H227087   0.986   4.840   8.563
 8949WAT      O27088   5.365   2.697   6.281
 8949WAT     H127089   5.396   2.741   6.197
 8949WAT     H227090   5.371   2.762   6.358
 8950WAT      O27091   6.830   0.239   2.149
 8950WAT     H127092   6.870   0.226   2.240
 8950WAT     H227093   6.895   0.289   2.092
 8951WAT      O27094   9.866   7.017   1.186
 8951WAT     H127095   9.835   7.014   1.281
 8951WAT     H227096   9.890   6.924   1.156
 8952WAT      O27097   7.155   1.890   0.745
 8952WAT     H127098   7.252   1.914   0.757
 8952WAT     H227099   7.117   1.860   0.832
 8953WAT      O27100   5.863   6.794   5.330
 8953WAT     H127101   5.839   6.849   5.250
 8953WAT     H227102   5.941   6.735   5.307
 8954WAT      O27103   8.047   3.004   3.079
 8954WAT     H127104   7.983   2.941   3.033
 8954WAT     H227105   8.028   3.098   3.051
 8955WAT      O27106   5.241   3.528   6.626
 8955WAT     H127107   5.192   3.459   6.572
 8955WAT     H227108   5.283   3.484   6.706
 8956WAT      O27109   8.337   0.379   0.581
 8956WAT     H127110   8.301   0.285   0.587
 8956WAT     H227111   8.352   0.415   0.673
 8957WAT      O27112   7.294   7.717   3.191
 8957WAT     H127113   7.242   7.637   3.221
 8957WAT     H227114   7.245   7.800   3.215
 8958WAT      O27115   2.651   3.577   2.492
 8958WAT     H127116   2.716   3.595   2.566
 8958WAT     H227117   2.592   3.657   2.480
 8959WAT      O27118   0.951   3.394   3.193
 8959WAT     H127119   0.983   3.306   3.228
 8959WAT     H227120   0.851   3.395   3.191
 8960WAT      O27121   9.359   0.686   2.421
 8960WAT     H127122   9.394   0.777   2.399
 8960WAT     H227123   9.276   0.695   2.476
 8961WAT      O27124   5.684   5.090   5.863
 8961WAT     H127125   5.612   5.157   5.841
 8961WAT     H227126   5.643   5.011   5.909
 8962WAT      O27127   1.768   5.757   1.457
 8962WAT     H127128   1.862   5.724   1.450
 8962WAT     H227129   1.760   5.847   1.413
 8963WAT      O27130   7.691   4.633   7.726
 8963WAT     H127131   7.676   4.616   7.823
 8963WAT     H227132   7.604   4.655   7.682
 8964WAT      O27133   5.157   7.397   6.644
 8964WAT     H127134   5.197   7.445   6.566
 8964WAT     H227135   5.071   7.440   6.669
 8965WAT      O27136   2.112   0.832   9.763
 8965WAT     H127137   2.148   0.923   9.784
 8965WAT     H227138   2.126   0.813   9.666
 8966WAT      O27139   2.472   5.234   5.552
 8966WAT     H127140   2.376   5.228   5.526
 8966WAT     H227141   2.512   5.315   5.510
 8967WAT      O27142   0.878   6.621   3.165
 8967WAT     H127143   0.947   6.632   3.094
 8967WAT     H227144   0.812   6.696   3.159
 8968WAT      O27145   7.636   4.434   3.450
 8968WAT     H127146   7.601   4.380   3.373
 8968WAT     H227147   7.709   4.384   3.496
 8969WAT      O27148   8.645   2.111   3.769
 8969WAT     H127149   8.608   2.116   3.676
 8969WAT     H227150   8.571   2.086   3.832
 8970WAT      O27151   5.372   2.140   1.568
 8970WAT     H127152   5.462   2.107   1.598
 8970WAT     H227153   5.316   2.162   1.648
 8971WAT      O27154   4.270   6.527   0.040
 8971WAT     H127155   4.193   6.533   0.104
 8971WAT     H227156   4.300   6.432   0.033
 8972WAT      O27157   6.029   4.266   2.892
 8972WAT     H127158   5.989   4.221   2.812
 8972WAT     H227159   6.052   4.199   2.961
 8973WAT      O27160   7.745   1.052   5.280
 8973WAT     H127161   7.648   1.029   5.272
 8973WAT     H227162   7.756   1.129   5.343
 8974WAT      O27163   0.645   0.141   5.577
 8974WAT     H127164   0.716   0.180   5.636
 8974WAT     H227165   0.662   0.044   5.564
 8975WAT      O27166   1.952   0.411   5.241
 8975WAT     H127167   1.886   0.376   5.308
 8975WAT     H227168   2.043   0.414   5.283
 8976WAT      O27169   0.614   1.545   5.134
 8976WAT     H127170   0.593   1.555   5.037
 8976WAT     H227171   0.699   1.594   5.155
 8977WAT      O27172   5.712   0.657   6.708
 8977WAT     H127173   5.692   0.662   6.610
 8977WAT     H227174   5.637   0.697   6.759
 8978WAT      O27175   6.582   7.796   3.810
 8978WAT     H127176   6.496   7.783   3.760
 8978WAT     H227177   6.627   7.878   3.778
 8979WAT      O27178   9.172   4.443   4.755
 8979WAT     H127179   9.235   4.495   4.698
 8979WAT     H227180   9.087   4.496   4.767
 8980WAT      O27181   4.320   7.262   3.567
 8980WAT     H127182   4.329   7.184   3.628
 8980WAT     H227183   4.228   7.263   3.527
 8981WAT      O27184   9.701   7.631   4.169
 8981WAT     H127185   9.701   7.691   4.249
 8981WAT     H227186   9.674   7.684   4.088
 8982WAT      O27187   4.952   4.570   5.811
 8982WAT     H127188   4.967   4.542   5.716
 8982WAT     H227189   4.949   4.489   5.870
 8983WAT      O27190   1.982   6.240   8.123
 8983WAT     H127191   2.045   6.202   8.190
 8983WAT     H227192   2.033   6.293   8.055
 8984WAT      O27193   7.679   8.976   2.571
 8984WAT     H127194   7.632   8.889   2.585
 8984WAT     H227195   7.738   8.970   2.490
 8985WAT      O27196   5.978   7.335   2.311
 8985WAT     H127197   5.927   7.360   2.393
 8985WAT     H227198   5.913   7.321   2.235
 8986WAT      O27199   3.602   9.022   2.236
 8986WAT     H127200   3.548   9.052   2.158
 8986WAT     H227201   3.696   9.054   2.227
 8987WAT      O27202   2.735   8.811   3.915
 8987WAT     H127203   2.810   8.778   3.857
 8987WAT     H227204   2.716   8.906   3.892
 8988WAT      O27205   1.529   2.359   9.502
 8988WAT     H127206   1.546   2.395   9.410
 8988WAT     H227207   1.599   2.394   9.565
 8989WAT      O27208   3.257   5.794   3.869
 8989WAT     H127209   3.230   5.861   3.799
 8989WAT     H227210   3.301   5.716   3.825
 8990WAT      O27211   0.528   1.050   2.664
 8990WAT     H127212   0.575   0.965   2.692
 8990WAT     H227213   0.429   1.035   2.668
 8991WAT      O27214   1.279   5.154   9.824
 8991WAT     H127215   1.357   5.212   9.802
 8991WAT     H227216   1.306   5.085   9.891
 8992WAT      O27217   3.156   4.851   8.296
 8992WAT     H127218   3.171   4.795   8.378
 8992WAT     H227219   3.215   4.818   8.222
 8993WAT      O27220   6.497   0.479   2.335
 8993WAT     H127221   6.540   0.569   2.327
 8993WAT     H227222   6.446   0.474   2.421
 8994WAT      O27223   0.369   8.375   2.140
 8994WAT     H127224   0.390   8.429   2.058
 8994WAT     H227225   0.277   8.339   2.133
 8995WAT      O27226   6.706   0.851   7.714
 8995WAT     H127227   6.745   0.940   7.691
 8995WAT     H227228   6.688   0.800   7.630
 8996WAT      O27229   7.069   4.906   2.970
 8996WAT     H127230   7.012   4.847   3.026
 8996WAT     H227231   7.031   4.998   2.968
 8997WAT      O27232   8.618   0.015   0.471
 8997WAT     H127233   8.680  -0.021   0.401
 8997WAT     H227234   8.615  -0.048   0.549
 8998WAT      O27235   4.971   0.696   1.418
 8998WAT     H127236   4.874   0.693   1.396
 8998WAT     H227237   4.996   0.615   1.471
 8999WAT      O27238   9.078   8.517   5.970
 8999WAT     H127239   9.100   8.457   5.893
 8999WAT     H227240   9.025   8.595   5.937
 9000WAT      O27241   7.720   1.648   4.886
 9000WAT     H127242   7.759   1.590   4.957
 9000WAT     H227243   7.628   1.614   4.862
 9001WAT      O27244   0.569   6.919   0.983
 9001WAT     H127245   0.505   6.896   1.056
 9001WAT     H227246   0.606   6.835   0.943
 9002WAT      O27247   8.212   8.194   4.738
 9002WAT     H127248   8.140   8.128   4.716
 9002WAT     H227249   8.199   8.228   4.831
 9003WAT      O27250   5.127   2.386   5.116
 9003WAT     H127251   5.051   2.321   5.111
 9003WAT     H227252   5.189   2.371   5.038
 9004WAT      O27253   2.523   6.907   4.432
 9004WAT     H127254   2.591   6.837   4.453
 9004WAT     H227255   2.550   6.993   4.475
 9005WAT      O27256   3.695   0.053   4.806
 9005WAT     H127257   3.669   0.015   4.716
 9005WAT     H227258   3.710   0.152   4.797
 9006WAT      O27259   9.262   4.434   8.804
 9006WAT     H127260   9.224   4.523   8.829
 9006WAT     H227261   9.314   4.396   8.881
 9007WAT      O27262   1.213   2.890   2.422
 9007WAT     H127263   1.240   2.942   2.503
 9007WAT     H227264   1.121   2.854   2.435
 9008WAT      O27265   8.517   8.191   2.169
 9008WAT     H127266   8.482   8.238   2.250
 9008WAT     H227267   8.440   8.153   2.117
 9009WAT      O27268   9.830   2.712   8.086
 9009WAT     H127269   9.774   2.678   8.161
 9009WAT     H227270   9.871   2.800   8.111
 9010WAT      O27271   9.378   4.159   4.852
 9010WAT     H127272   9.362   4.144   4.754
 9010WAT     H227273   9.447   4.230   4.864
 9011WAT      O27274   4.181   5.126   0.934
 9011WAT     H127275   4.087   5.100   0.912
 9011WAT     H227276   4.191   5.134   1.034
 9012WAT      O27277   1.250   2.230   4.892
 9012WAT     H127278   1.244   2.186   4.982
 9012WAT     H227279   1.321   2.300   4.895
 9013WAT      O27280   2.771   2.590   8.362
 9013WAT     H127281   2.741   2.674   8.316
 9013WAT     H227282   2.864   2.604   8.397
 9014WAT      O27283   7.231   4.870   1.437
 9014WAT     H127284   7.163   4.799   1.420
 9014WAT     H227285   7.243   4.926   1.355
 9015WAT      O27286   5.368   2.416   3.559
 9015WAT     H127287   5.459   2.442   3.526
 9015WAT     H227288   5.378   2.352   3.635
 9016WAT      O27289   0.182   5.571   1.389
 9016WAT     H127290   0.115   5.500   1.413
 9016WAT     H227291   0.250   5.533   1.326
 9017WAT      O27292   8.621   1.861   5.949
 9017WAT     H127293   8.626   1.794   5.876
 9017WAT     H227294   8.545   1.838   6.010
 9018WAT      O27295   7.596   8.294   6.853
 9018WAT     H127296   7.671   8.243   6.897
 9018WAT     H227297   7.520   8.301   6.917
 9019WAT      O27298   4.850   1.214   6.383
 9019WAT     H127299   4.834   1.155   6.304
 9019WAT     H227300   4.784   1.289   6.382
 9020WAT      O27301   7.454   5.288   6.630
 9020WAT     H127302   7.391   5.232   6.576
 9020WAT     H227303   7.519   5.333   6.569
 9021WAT      O27304   9.708   7.713   6.935
 9021WAT     H127305   9.656   7.789   6.896
 9021WAT     H227306   9.779   7.749   6.996
 9022WAT      O27307   3.865   4.132   6.495
 9022WAT     H127308   3.928   4.129   6.418
 9022WAT     H227309   3.917   4.127   6.581
 9023WAT      O27310   8.899   7.535   0.388
 9023WAT     H127311   8.928   7.439   0.386
 9023WAT     H227312   8.850   7.557   0.304
 9024WAT      O27313   1.705   1.268   2.950
 9024WAT     H127314   1.697   1.172   2.924
 9024WAT     H227315   1.629   1.293   3.010
 9025WAT      O27316   7.290   4.664   3.076
 9025WAT     H127317   7.246   4.589   3.028
 9025WAT     H227318   7.310   4.738   3.012
 9026WAT      O27319   9.437   7.323   2.986
 9026WAT     H127320   9.526   7.367   2.983
 9026WAT     H227321   9.366   7.388   2.961
 9027WAT      O27322   0.758   3.235   2.313
 9027WAT     H127323   0.850   3.273   2.301
 9027WAT     H227324   0.697   3.271   2.243
 9028WAT      O27325   5.939   4.077   1.050
 9028WAT     H127326   5.847   4.041   1.033
 9028WAT     H227327   6.007   4.009   1.022
 9029WAT      O27328   0.949   7.984   1.109
 9029WAT     H127329   1.014   7.919   1.068
 9029WAT     H227330   0.998   8.043   1.173
 9030WAT      O27331   2.601   6.563   3.625
 9030WAT     H127332   2.573   6.584   3.719
 9030WAT     H227333   2.682   6.504   3.628
 9031WAT      O27334   6.094   6.437   5.909
 9031WAT     H127335   6.050   6.399   5.827
 9031WAT     H227336   6.108   6.535   5.897
 9032WAT      O27337   3.154   5.182   2.690
 9032WAT     H127338   3.222   5.109   2.690
 9032WAT     H227339   3.189   5.260   2.741
 9033WAT      O27340   1.005   7.692   1.359
 9033WAT     H127341   0.964   7.629   1.426
 9033WAT     H227342   1.050   7.639   1.288
 9034WAT      O27343   0.457   1.790   9.528
 9034WAT     H127344   0.512   1.760   9.606
 9034WAT     H227345   0.503   1.866   9.482
 9035WAT      O27346   2.431   9.265   1.234
 9035WAT     H127347   2.448   9.256   1.136
 9035WAT     H227348   2.339   9.299   1.249
 9036WAT      O27349   3.791   8.331   1.040
 9036WAT     H127350   3.868   8.368   1.093
 9036WAT     H227351   3.708   8.334   1.095
 9037WAT      O27352   4.291   8.116   4.825
 9037WAT     H127353   4.246   8.027   4.831
 9037WAT     H227354   4.387   8.103   4.802
 9038WAT      O27355   7.274   0.086   0.647
 9038WAT     H127356   7.252   0.007   0.590
 9038WAT     H227357   7.266   0.170   0.594
 9039WAT      O27358   8.001   5.443   7.069
 9039WAT     H127359   8.088   5.413   7.107
 9039WAT     H227360   7.969   5.377   7.001
 9040WAT      O27361   1.461   1.441   8.049
 9040WAT     H127362   1.461   1.369   8.118
 9040WAT     H227363   1.490   1.402   7.961
 9041WAT      O27364   7.572   8.033   6.141
 9041WAT     H127365   7.601   8.036   6.236
 9041WAT     H227366   7.631   8.093   6.086
 9042WAT      O27367   3.399   4.838   0.568
 9042WAT     H127368   3.429   4.746   0.593
 9042WAT     H227369   3.415   4.853   0.471
 9043WAT      O27370   3.286   6.887   9.605
 9043WAT     H127371   3.382   6.872   9.581
 9043WAT     H227372   3.275   6.979   9.643
 9044WAT      O27373   0.080   0.185   4.724
 9044WAT     H127374   0.097   0.185   4.626
 9044WAT     H227375  -0.018   0.189   4.742
 9045WAT      O27376   7.720   5.168   4.781
 9045WAT     H127377   7.693   5.186   4.686
 9045WAT     H227378   7.647   5.119   4.828
 9046WAT      O27379   0.598   3.396   3.813
 9046WAT     H127380   0.529   3.412   3.743
 9046WAT     H227381   0.688   3.386   3.770
 9047WAT      O27382   1.543   3.713   3.975
 9047WAT     H127383   1.476   3.787   3.977
 9047WAT     H227384   1.582   3.706   3.883
 9048WAT      O27385   4.095   4.730   6.903
 9048WAT     H127386   4.186   4.690   6.917
 9048WAT     H227387   4.039   4.714   6.985
 9049WAT      O27388   9.177   5.246   6.095
 9049WAT     H127389   9.277   5.244   6.088
 9049WAT     H227390   9.136   5.213   6.010
 9050WAT      O27391   2.864   9.024   4.697
 9050WAT     H127392   2.792   9.047   4.632
 9050WAT     H227393   2.861   8.927   4.718
 9051WAT      O27394   2.504   6.269   2.182
 9051WAT     H127395   2.531   6.359   2.149
 9051WAT     H227396   2.425   6.237   2.130
 9052WAT      O27397   0.991   6.945   6.057
 9052WAT     H127398   0.969   6.985   6.147
 9052WAT     H227399   1.089   6.948   6.042
 9053WAT      O27400   0.127   1.941   5.838
 9053WAT     H127401   0.094   2.016   5.780
 9053WAT     H227402   0.203   1.895   5.793
 9054WAT      O27403   6.658   4.599   5.757
 9054WAT     H127404   6.637   4.537   5.681
 9054WAT     H227405   6.728   4.558   5.815
 9055WAT      O27406   9.666   1.870   9.497
 9055WAT     H127407   9.594   1.871   9.566
 9055WAT     H227408   9.631   1.832   9.412
 9056WAT      O27409   2.061   0.468   1.994
 9056WAT     H127410   2.148   0.512   2.019
 9056WAT     H227411   2.078   0.373   1.969
 9057WAT      O27412   3.769   8.122   7.803
 9057WAT     H127413   3.670   8.112   7.813
 9057WAT     H227414   3.801   8.065   7.727
 9058WAT      O27415   5.939   4.246   7.793
 9058WAT     H127416   5.849   4.220   7.828
 9058WAT     H227417   6.008   4.180   7.824
 9059WAT      O27418   8.551   0.443   7.776
 9059WAT     H127419   8.598   0.377   7.834
 9059WAT     H227420   8.484   0.494   7.830
 9060WAT      O27421   8.726   9.405   7.007
 9060WAT     H127422   8.766   9.421   7.097
 9060WAT     H227423   8.705   9.308   6.996
 9061WAT      O27424   2.006   9.125   7.744
 9061WAT     H127425   2.019   9.042   7.800
 9061WAT     H227426   1.925   9.114   7.687
 9062WAT      O27427   3.253   3.952   5.615
 9062WAT     H127428   3.309   4.008   5.676
 9062WAT     H227429   3.189   4.011   5.566
 9063WAT      O27430   4.621   5.071   7.888
 9063WAT     H127431   4.678   5.070   7.970
 9063WAT     H227432   4.679   5.074   7.807
 9064WAT      O27433   6.715   5.180   4.720
 9064WAT     H127434   6.665   5.115   4.777
 9064WAT     H227435   6.811   5.151   4.712
 9065WAT      O27436   3.264   3.883   2.727
 9065WAT     H127437   3.219   3.964   2.689
 9065WAT     H227438   3.363   3.894   2.721
 9066WAT      O27439   6.239   0.077   7.751
 9066WAT     H127440   6.144   0.064   7.778
 9066WAT     H227441   6.270   0.168   7.780
 9067WAT      O27442   6.168   2.147   2.183
 9067WAT     H127443   6.176   2.216   2.110
 9067WAT     H227444   6.074   2.112   2.185
 9068WAT      O27445   5.944   5.603   2.024
 9068WAT     H127446   5.863   5.546   2.038
 9068WAT     H227447   5.988   5.621   2.112
 9069WAT      O27448   1.964   5.057   8.222
 9069WAT     H127449   2.041   4.994   8.230
 9069WAT     H227450   1.999   5.150   8.206
 9070WAT      O27451   7.501   0.884   6.525
 9070WAT     H127452   7.404   0.906   6.535
 9070WAT     H227453   7.548   0.898   6.612
 9071WAT      O27454   7.049   5.861   0.336
 9071WAT     H127455   7.103   5.819   0.408
 9071WAT     H227456   7.015   5.950   0.367
 9072WAT      O27457   6.182   2.271   0.480
 9072WAT     H127458   6.175   2.181   0.438
 9072WAT     H227459   6.253   2.269   0.551
 9073WAT      O27460   6.345   7.554   3.627
 9073WAT     H127461   6.284   7.623   3.666
 9073WAT     H227462   6.407   7.596   3.562
 9074WAT      O27463   9.546   5.577   0.064
 9074WAT     H127464   9.524   5.479   0.073
 9074WAT     H227465   9.508   5.627   0.142
 9075WAT      O27466   2.753   0.914   2.322
 9075WAT     H127467   2.788   0.988   2.379
 9075WAT     H227468   2.758   0.828   2.373
 9076WAT      O27469   4.587   4.366   0.684
 9076WAT     H127470   4.599   4.283   0.739
 9076WAT     H227471   4.604   4.446   0.742
 9077WAT      O27472   8.295   4.617   0.361
 9077WAT     H127473   8.317   4.714   0.350
 9077WAT     H227474   8.304   4.591   0.457
 9078WAT      O27475   8.832   0.318   1.224
 9078WAT     H127476   8.833   0.348   1.319
 9078WAT     H227477   8.925   0.321   1.187
 9079WAT      O27478   1.850   3.617   0.396
 9079WAT     H127479   1.827   3.669   0.478
 9079WAT     H227480   1.918   3.667   0.343
 9080WAT      O27481   7.006   8.343   1.696
 9080WAT     H127482   6.980   8.270   1.633
 9080WAT     H227483   7.104   8.361   1.688
 9081WAT      O27484   0.550   2.133   8.208
 9081WAT     H127485   0.481   2.154   8.277
 9081WAT     H227486   0.530   2.044   8.166
 9082WAT      O27487   7.673   9.496   9.796
 9082WAT     H127488   7.656   9.591   9.822
 9082WAT     H227489   7.695   9.492   9.698
 9083WAT      O27490   9.793   6.029   0.519
 9083WAT     H127491   9.784   5.947   0.576
 9083WAT     H227492   9.726   6.097   0.548
 9084WAT      O27493   0.395   5.568   9.270
 9084WAT     H127494   0.419   5.541   9.364
 9084WAT     H227495   0.371   5.665   9.269
 9085WAT      O27496   4.464   6.341   4.608
 9085WAT     H127497   4.522   6.419   4.589
 9085WAT     H227498   4.379   6.349   4.556
 9086WAT      O27499   8.530   7.787   3.079
 9086WAT     H127500   8.572   7.804   3.169
 9086WAT     H227501   8.583   7.717   3.031
 9087WAT      O27502   3.454   9.780   6.030
 9087WAT     H127503   3.457   9.876   6.059
 9087WAT     H227504   3.416   9.775   5.938
 9088WAT      O27505   2.665   4.399   8.316
 9088WAT     H127506   2.722   4.442   8.386
 9088WAT     H227507   2.589   4.351   8.359
 9089WAT      O27508   4.209   9.132   1.537
 9089WAT     H127509   4.137   9.193   1.504
 9089WAT     H227510   4.169   9.062   1.596
 9090WAT      O27511   7.253   6.799   7.200
 9090WAT     H127512   7.210   6.888   7.217
 9090WAT     H227513   7.351   6.811   7.188
 9091WAT      O27514   5.519   5.222   1.548
 9091WAT     H127515   5.456   5.231   1.471
 9091WAT     H227516   5.574   5.140   1.536
 9092WAT      O27517   9.728   3.409   4.242
 9092WAT     H127518   9.726   3.348   4.321
 9092WAT     H227519   9.721   3.356   4.158
 9093WAT      O27520   0.444   2.594   6.199
 9093WAT     H127521   0.459   2.564   6.105
 9093WAT     H227522   0.489   2.531   6.262
 9094WAT      O27523   3.923   1.457   4.344
 9094WAT     H127524   3.900   1.423   4.435
 9094WAT     H227525   4.018   1.487   4.342
 9095WAT      O27526   7.632   9.686   0.948
 9095WAT     H127527   7.662   9.594   0.975
 9095WAT     H227528   7.606   9.685   0.852
 9096WAT      O27529   3.321   3.337   2.503
 9096WAT     H127530   3.376   3.320   2.421
 9096WAT     H227531   3.277   3.427   2.495
 9097WAT      O27532   3.605   4.642   3.391
 9097WAT     H127533   3.662   4.578   3.339
 9097WAT     H227534   3.612   4.733   3.351
 9098WAT      O27535   6.661   9.581   1.294
 9098WAT     H127536   6.575   9.542   1.264
 9098WAT     H227537   6.665   9.583   1.394
 9099WAT      O27538   6.881   5.008   3.750
 9099WAT     H127539   6.816   5.038   3.680
 9099WAT     H227540   6.921   4.920   3.723
 9100WAT      O27541   2.569   3.919   5.877
 9100WAT     H127542   2.629   3.886   5.949
 9100WAT     H227543   2.514   3.843   5.841
 9101WAT      O27544   9.209   4.519   0.275
 9101WAT     H127545   9.253   4.592   0.222
 9101WAT     H227546   9.279   4.463   0.319
 9102WAT      O27547   6.844   5.513   7.400
 9102WAT     H127548   6.821   5.446   7.471
 9102WAT     H227549   6.942   5.534   7.405
 9103WAT      O27550   0.540   5.181   5.121
 9103WAT     H127551   0.628   5.211   5.083
 9103WAT     H227552   0.470   5.249   5.099
 9104WAT      O27553   0.633   3.095   4.228
 9104WAT     H127554   0.692   3.043   4.167
 9104WAT     H227555   0.561   3.139   4.175
 9105WAT      O27556   3.072   6.527   0.006
 9105WAT     H127557   3.063   6.527   0.106
 9105WAT     H227558   2.982   6.541  -0.036
 9106WAT      O27559   0.726   2.350   7.196
 9106WAT     H127560   0.718   2.446   7.224
 9106WAT     H227561   0.636   2.314   7.174
 9107WAT      O27562   2.231   2.674   8.814
 9107WAT     H127563   2.271   2.587   8.788
 9107WAT     H227564   2.303   2.742   8.826
 9108WAT      O27565   3.425   8.174   2.430
 9108WAT     H127566   3.479   8.095   2.400
 9108WAT     H227567   3.486   8.248   2.457
 9109WAT      O27568   2.498   8.338   2.408
 9109WAT     H127569   2.565   8.385   2.465
 9109WAT     H227570   2.497   8.241   2.432
 9110WAT      O27571   3.788   5.092   4.894
 9110WAT     H127572   3.767   5.119   4.988
 9110WAT     H227573   3.865   5.028   4.893
 9111WAT      O27574   3.014   2.087   9.390
 9111WAT     H127575   2.952   2.163   9.374
 9111WAT     H227576   3.080   2.112   9.461
 9112WAT      O27577   3.462   0.766   7.808
 9112WAT     H127578   3.525   0.784   7.733
 9112WAT     H227579   3.375   0.812   7.791
 9113WAT      O27580   4.607   7.441   4.996
 9113WAT     H127581   4.579   7.536   5.008
 9113WAT     H227582   4.651   7.409   5.080
 9114WAT      O27583   9.490   5.002   9.770
 9114WAT     H127584   9.571   5.022   9.714
 9114WAT     H227585   9.513   5.012   9.866
 9115WAT      O27586   8.020   1.246   3.581
 9115WAT     H127587   8.047   1.185   3.507
 9115WAT     H227588   7.929   1.219   3.615
 9116WAT      O27589   4.374   0.195   6.602
 9116WAT     H127590   4.442   0.235   6.664
 9116WAT     H227591   4.305   0.263   6.578
 9117WAT      O27592   4.097   7.284   1.619
 9117WAT     H127593   4.044   7.259   1.537
 9117WAT     H227594   4.195   7.278   1.598
 9118WAT      O27595   8.026   7.473   8.201
 9118WAT     H127596   8.085   7.411   8.149
 9118WAT     H227597   8.082   7.536   8.254
 9119WAT      O27598   6.587   5.366   5.044
 9119WAT     H127599   6.619   5.419   5.122
 9119WAT     H227600   6.613   5.411   4.959
 9120WAT      O27601   0.004   2.914   1.601
 9120WAT     H127602   0.053   2.832   1.629
 9120WAT     H227603  -0.056   2.892   1.524
 9121WAT      O27604   2.300   4.711   6.995
 9121WAT     H127605   2.374   4.647   7.012
 9121WAT     H227606   2.337   4.798   6.962
 9122WAT      O27607   5.590   8.764   5.152
 9122WAT     H127608   5.611   8.763   5.054
 9122WAT     H227609   5.583   8.858   5.183
 9123WAT      O27610   7.825   3.402   9.258
 9123WAT     H127611   7.870   3.438   9.340
 9123WAT     H227612   7.732   3.440   9.252
 9124WAT      O27613   7.899   6.321   9.481
 9124WAT     H127614   7.844   6.404   9.484
 9124WAT     H227615   7.926   6.302   9.386
 9125WAT      O27616   1.455   9.098   7.941
 9125WAT     H127617   1.433   9.193   7.961
 9125WAT     H227618   1.553   9.083   7.949
 9126WAT      O27619   0.713   8.313   2.674
 9126WAT     H127620   0.765   8.396   2.693
 9126WAT     H227621   0.673   8.318   2.582
 9127WAT      O27622   6.188   5.519   6.685
 9127WAT     H127623   6.283   5.517   6.654
 9127WAT     H227624   6.141   5.436   6.655
 9128WAT      O27625   4.584   3.934   7.883
 9128WAT     H127626   4.624   3.963   7.796
 9128WAT     H227627   4.484   3.935   7.875
 9129WAT      O27628   1.992   4.026   4.312
 9129WAT     H127629   2.079   4.004   4.356
 9129WAT     H227630   1.931   4.070   4.378
 9130WAT      O27631   3.594   4.827   7.220
 9130WAT     H127632   3.627   4.922   7.215
 9130WAT     H227633   3.589   4.798   7.316
 9131WAT      O27634   6.743   6.554   4.755
 9131WAT     H127635   6.771   6.462   4.783
 9131WAT     H227636   6.716   6.606   4.837
 9132WAT      O27637   5.068   7.291   8.237
 9132WAT     H127638   5.060   7.315   8.140
 9132WAT     H227639   5.102   7.369   8.289
 9133WAT      O27640   0.399   2.229   6.812
 9133WAT     H127641   0.430   2.146   6.766
 9133WAT     H227642   0.304   2.246   6.789
 9134WAT      O27643   4.557   9.214   4.973
 9134WAT     H127644   4.550   9.128   5.024
 9134WAT     H227645   4.632   9.269   5.010
 9135WAT      O27646   6.068   3.554   8.023
 9135WAT     H127647   6.021   3.619   8.082
 9135WAT     H227648   6.158   3.533   8.061
 9136WAT      O27649   8.917   8.078   1.156
 9136WAT     H127650   8.843   8.108   1.215
 9136WAT     H227651   9.004   8.109   1.193
 9137WAT      O27652   4.805   2.519   2.984
 9137WAT     H127653   4.875   2.460   3.024
 9137WAT     H227654   4.841   2.561   2.900
 9138WAT      O27655   6.772   0.952   9.166
 9138WAT     H127656   6.696   0.891   9.147
 9138WAT     H227657   6.770   1.029   9.102
 9139WAT      O27658   0.374   2.691   0.211
 9139WAT     H127659   0.348   2.642   0.294
 9139WAT     H227660   0.384   2.788   0.232
 9140WAT      O27661   9.460   6.014   2.766
 9140WAT     H127662   9.382   5.964   2.726
 9140WAT     H227663   9.467   5.992   2.863
 9141WAT      O27664   6.807   7.468   6.370
 9141WAT     H127665   6.724   7.520   6.351
 9141WAT     H227666   6.785   7.372   6.382
 9142WAT      O27667   1.018   1.698   0.934
 9142WAT     H127668   1.076   1.620   0.910
 9142WAT     H227669   1.064   1.755   1.002
 9143WAT      O27670   8.606   8.522   3.878
 9143WAT     H127671   8.646   8.487   3.963
 9143WAT     H227672   8.507   8.534   3.891
 9144WAT      O27673   2.056   2.902   9.019
 9144WAT     H127674   2.095   2.945   9.100
 9144WAT     H227675   2.098   2.813   9.005
 9145WAT      O27676   9.552   2.458   0.423
 9145WAT     H127677   9.488   2.479   0.349
 9145WAT     H227678   9.622   2.395   0.390
 9146WAT      O27679   2.578   8.834   6.896
 9146WAT     H127680   2.664   8.786   6.911
 9146WAT     H227681   2.589   8.931   6.920
 9147WAT      O27682   7.508   3.168   8.405
 9147WAT     H127683   7.581   3.153   8.472
 9147WAT     H227684   7.477   3.080   8.369
 9148WAT      O27685   1.412   0.193   0.797
 9148WAT     H127686   1.335   0.250   0.827
 9148WAT     H227687   1.481   0.190   0.870
 9149WAT      O27688   7.860   5.676   7.193
 9149WAT     H127689   7.869   5.579   7.168
 9149WAT     H227690   7.879   5.733   7.113
 9150WAT      O27691   1.150   7.285   3.585
 9150WAT     H127692   1.091   7.206   3.566
 9150WAT     H227693   1.153   7.344   3.504
 9151WAT      O27694   3.305   2.815   3.560
 9151WAT     H127695   3.213   2.809   3.521
 9151WAT     H227696   3.300   2.852   3.653
 9152WAT      O27697   3.211   8.645   3.294
 9152WAT     H127698   3.171   8.724   3.247
 9152WAT     H227699   3.291   8.674   3.346
 9153WAT      O27700   8.714   8.176   4.984
 9153WAT     H127701   8.681   8.115   5.056
 9153WAT     H227702   8.636   8.215   4.935
 9154WAT      O27703   1.512   0.302   8.268
 9154WAT     H127704   1.505   0.392   8.311
 9154WAT     H227705   1.428   0.283   8.218
 9155WAT      O27706   0.227   1.418   4.529
 9155WAT     H127707   0.172   1.339   4.506
 9155WAT     H227708   0.212   1.444   4.625
 9156WAT      O27709   4.161   9.483   3.009
 9156WAT     H127710   4.245   9.430   2.997
 9156WAT     H227711   4.183   9.573   3.046
 9157WAT      O27712   8.077   7.505   2.899
 9157WAT     H127713   8.143   7.430   2.896
 9157WAT     H227714   8.070   7.540   2.993
 9158WAT      O27715   8.354   7.821   3.690
 9158WAT     H127716   8.280   7.888   3.692
 9158WAT     H227717   8.414   7.840   3.612
 9159WAT      O27718   6.285   5.879   9.748
 9159WAT     H127719   6.313   5.791   9.786
 9159WAT     H227720   6.272   5.871   9.649
 9160WAT      O27721   6.834   6.499   3.448
 9160WAT     H127722   6.831   6.591   3.488
 9160WAT     H227723   6.788   6.435   3.509
 9161WAT      O27724   7.118   7.009   9.444
 9161WAT     H127725   7.199   6.952   9.433
 9161WAT     H227726   7.042   6.969   9.394
 9162WAT      O27727   0.533   9.186   7.721
 9162WAT     H127728   0.548   9.285   7.714
 9162WAT     H227729   0.529   9.146   7.629
 9163WAT      O27730   9.860   4.590   0.872
 9163WAT     H127731   9.907   4.565   0.957
 9163WAT     H227732   9.778   4.535   0.862
 9164WAT      O27733   9.075   4.014   6.726
 9164WAT     H127734   8.990   4.008   6.778
 9164WAT     H227735   9.098   4.111   6.712
 9165WAT      O27736   8.273   5.040   6.845
 9165WAT     H127737   8.342   4.968   6.836
 9165WAT     H227738   8.317   5.125   6.872
 9166WAT      O27739   8.987   2.206   9.752
 9166WAT     H127740   9.026   2.298   9.754
 9166WAT     H227741   8.970   2.174   9.845
 9167WAT      O27742   0.451   7.264   3.544
 9167WAT     H127743   0.513   7.193   3.509
 9167WAT     H227744   0.427   7.326   3.470
 9168WAT      O27745   6.901   7.753   8.235
 9168WAT     H127746   6.947   7.841   8.223
 9168WAT     H227747   6.926   7.691   8.160
 9169WAT      O27748   0.975   2.831   3.453
 9169WAT     H127749   1.064   2.838   3.498
 9169WAT     H227750   0.902   2.846   3.520
 9170WAT      O27751   8.381   8.939   1.859
 9170WAT     H127752   8.305   8.914   1.799
 9170WAT     H227753   8.428   9.018   1.822
 9171WAT      O27754   1.978   3.055   4.938
 9171WAT     H127755   1.959   2.957   4.947
 9171WAT     H227756   2.074   3.069   4.916
 9172WAT      O27757   2.886   1.441   5.012
 9172WAT     H127758   2.826   1.492   4.951
 9172WAT     H227759   2.916   1.357   4.967
 9173WAT      O27760   9.498   6.466   0.621
 9173WAT     H127761   9.449   6.434   0.701
 9173WAT     H227762   9.491   6.565   0.614
 9174WAT      O27763   8.735   5.235   1.866
 9174WAT     H127764   8.640   5.265   1.872
 9174WAT     H227765   8.792   5.293   1.924
 9175WAT      O27766   0.622   5.533   4.170
 9175WAT     H127767   0.564   5.452   4.171
 9175WAT     H227768   0.597   5.590   4.092
 9176WAT      O27769   5.411   7.702   1.457
 9176WAT     H127770   5.412   7.602   1.462
 9176WAT     H227771   5.447   7.731   1.369
 9177WAT      O27772   9.152   9.638   2.934
 9177WAT     H127773   9.223   9.701   2.962
 9177WAT     H227774   9.112   9.668   2.847
 9178WAT      O27775   7.205   6.132   7.983
 9178WAT     H127776   7.169   6.222   8.007
 9178WAT     H227777   7.243   6.134   7.890
 9179WAT      O27778   7.429   0.249   2.532
 9179WAT     H127779   7.404   0.249   2.435
 9179WAT     H227780   7.466   0.338   2.558
 9180WAT      O27781   6.035   5.635   4.602
 9180WAT     H127782   6.032   5.573   4.680
 9180WAT     H227783   5.964   5.704   4.612
 9181WAT      O27784   8.301   6.016   4.495
 9181WAT     H127785   8.356   6.071   4.557
 9181WAT     H227786   8.357   5.942   4.457
 9182WAT      O27787   8.931   4.380   6.978
 9182WAT     H127788   8.988   4.452   6.940
 9182WAT     H227789   8.980   4.335   7.053
 9183WAT      O27790   3.293   9.155   8.377
 9183WAT     H127791   3.377   9.189   8.418
 9183WAT     H227792   3.252   9.226   8.320
 9184WAT      O27793   3.545   4.379   7.609
 9184WAT     H127794   3.570   4.475   7.621
 9184WAT     H227795   3.622   4.321   7.634
 9185WAT      O27796   0.507   9.262   2.370
 9185WAT     H127797   0.455   9.192   2.323
 9185WAT     H227798   0.460   9.289   2.454
 9186WAT      O27799   9.858   3.147   1.729
 9186WAT     H127800   9.926   3.212   1.695
 9186WAT     H227801   9.877   3.056   1.692
 9187WAT      O27802   7.261   0.256   8.393
 9187WAT     H127803   7.226   0.349   8.381
 9187WAT     H227804   7.186   0.194   8.415
 9188WAT      O27805   5.325   9.559   2.599
 9188WAT     H127806   5.381   9.620   2.655
 9188WAT     H227807   5.354   9.464   2.613
 9189WAT      O27808   6.998   2.269   9.232
 9189WAT     H127809   6.986   2.184   9.284
 9189WAT     H227810   7.095   2.286   9.218
 9190WAT      O27811   2.890   1.252   4.437
 9190WAT     H127812   2.988   1.251   4.416
 9190WAT     H227813   2.875   1.214   4.528
 9191WAT      O27814   8.280   5.696   3.753
 9191WAT     H127815   8.301   5.667   3.659
 9191WAT     H227816   8.186   5.669   3.775
 9192WAT      O27817   9.281   7.553   7.745
 9192WAT     H127818   9.300   7.492   7.822
 9192WAT     H227819   9.294   7.504   7.659
 9193WAT      O27820   3.323   6.740   0.891
 9193WAT     H127821   3.365   6.827   0.866
 9193WAT     H227822   3.337   6.674   0.818
 9194WAT      O27823   0.329   3.298   6.884
 9194WAT     H127824   0.355   3.367   6.817
 9194WAT     H227825   0.406   3.236   6.900
 9195WAT      O27826   0.576   7.651   7.613
 9195WAT     H127827   0.611   7.694   7.530
 9195WAT     H227828   0.502   7.706   7.651
 9196WAT      O27829   5.973   3.757   4.787
 9196WAT     H127830   5.933   3.682   4.734
 9196WAT     H227831   6.063   3.729   4.821
 9197WAT      O27832   9.049   5.283   8.804
 9197WAT     H127833   8.966   5.276   8.858
 9197WAT     H227834   9.037   5.350   8.731
 9198WAT      O27835   7.583   8.396   6.245
 9198WAT     H127836   7.567   8.486   6.206
 9198WAT     H227837   7.665   8.399   6.303
 9199WAT      O27838   1.202   2.522   5.518
 9199WAT     H127839   1.245   2.447   5.568
 9199WAT     H227840   1.258   2.546   5.439
 9200WAT      O27841   0.080   5.077   2.800
 9200WAT     H127842   0.147   5.083   2.874
 9200WAT     H227843   0.054   4.981   2.787
 9201WAT      O27844   3.686   0.608   1.417
 9201WAT     H127845   3.664   0.681   1.354
 9201WAT     H227846   3.643   0.625   1.506
 9202WAT      O27847   1.017   1.029   8.418
 9202WAT     H127848   1.078   1.108   8.432
 9202WAT     H227849   0.970   1.009   8.504
 9203WAT      O27850   5.101   5.804   8.882
 9203WAT     H127851   5.138   5.890   8.847
 9203WAT     H227852   5.170   5.757   8.935
 9204WAT      O27853   6.820   4.467   5.900
 9204WAT     H127854   6.832   4.380   5.946
 9204WAT     H227855   6.903   4.523   5.913
 9205WAT      O27856   3.268   9.725   2.986
 9205WAT     H127857   3.239   9.632   2.965
 9205WAT     H227858   3.360   9.723   3.025
 9206WAT      O27859   3.246   7.833   8.885
 9206WAT     H127860   3.265   7.799   8.977
 9206WAT     H227861   3.321   7.893   8.856
 9207WAT      O27862   0.320   0.764   0.054
 9207WAT     H127863   0.364   0.737  -0.032
 9207WAT     H227864   0.227   0.794   0.035
 9208WAT      O27865   6.147   1.949   7.396
 9208WAT     H127866   6.154   1.973   7.299
 9208WAT     H227867   6.117   2.029   7.448
 9209WAT      O27868   0.773   7.884   8.944
 9209WAT     H127869   0.853   7.825   8.932
 9209WAT     H227870   0.753   7.932   8.859
 9210WAT      O27871   5.772   4.465   4.636
 9210WAT     H127872   5.819   4.392   4.586
 9210WAT     H227873   5.697   4.426   4.690
 9211WAT      O27874   9.730   1.256   8.721
 9211WAT     H127875   9.643   1.274   8.674
 9211WAT     H227876   9.790   1.204   8.661
 9212WAT      O27877   4.294   9.378   0.816
 9212WAT     H127878   4.252   9.423   0.737
 9212WAT     H227879   4.378   9.332   0.788
 9213WAT      O27880   1.661   7.544   8.479
 9213WAT     H127881   1.629   7.469   8.536
 9213WAT     H227882   1.595   7.560   8.405
 9214WAT      O27883   4.698   2.617   8.734
 9214WAT     H127884   4.627   2.568   8.785
 9214WAT     H227885   4.749   2.676   8.796
 9215WAT      O27886   2.847   3.661   0.877
 9215WAT     H127887   2.915   3.610   0.825
 9215WAT     H227888   2.775   3.693   0.815
 9216WAT      O27889   6.255   6.803   7.643
 9216WAT     H127890   6.329   6.857   7.602
 9216WAT     H227891   6.294   6.730   7.699
 9217WAT      O27892   3.162   5.778   2.128
 9217WAT     H127893   3.153   5.705   2.060
 9217WAT     H227894   3.207   5.742   2.210
 9218WAT      O27895   3.121   7.489   2.279
 9218WAT     H127896   3.217   7.494   2.252
 9218WAT     H227897   3.065   7.464   2.200
 9219WAT      O27898   6.482   2.650   0.941
 9219WAT     H127899   6.423   2.609   0.872
 9219WAT     H227900   6.569   2.601   0.944
 9220WAT      O27901   5.146   9.549   0.578
 9220WAT     H127902   5.237   9.535   0.617
 9220WAT     H227903   5.079   9.553   0.652
 9221WAT      O27904   5.723   9.162   1.938
 9221WAT     H127905   5.727   9.233   2.008
 9221WAT     H227906   5.788   9.089   1.961
 9222WAT      O27907   7.112   5.598   4.468
 9222WAT     H127908   7.125   5.552   4.556
 9222WAT     H227909   7.119   5.697   4.480
 9223WAT      O27910   2.742   7.708   8.760
 9223WAT     H127911   2.666   7.644   8.768
 9223WAT     H227912   2.788   7.717   8.848
 9224WAT      O27913   6.470   3.829   7.328
 9224WAT     H127914   6.561   3.791   7.339
 9224WAT     H227915   6.402   3.756   7.331
 9225WAT      O27916   5.711   7.212   2.858
 9225WAT     H127917   5.754   7.138   2.807
 9225WAT     H227918   5.672   7.176   2.942
 9226WAT      O27919   1.316   2.117   0.319
 9226WAT     H127920   1.343   2.114   0.223
 9226WAT     H227921   1.398   2.126   0.376
 9227WAT      O27922   8.786   5.335   8.342
 9227WAT     H127923   8.713   5.404   8.335
 9227WAT     H227924   8.757   5.252   8.295
 9228WAT      O27925   6.817   5.980   6.863
 9228WAT     H127926   6.914   5.971   6.838
 9228WAT     H227927   6.803   6.067   6.911
 9229WAT      O27928   6.808   0.048   1.947
 9229WAT     H127929   6.823   0.110   2.023
 9229WAT     H227930   6.881  -0.021   1.945
 9230WAT      O27931   3.733   5.668   0.919
 9230WAT     H127932   3.768   5.621   0.838
 9230WAT     H227933   3.660   5.612   0.961
 9231WAT      O27934   3.984   2.583   3.090
 9231WAT     H127935   4.015   2.541   3.175
 9231WAT     H227936   4.063   2.616   3.038
 9232WAT      O27937   1.168   8.961   5.519
 9232WAT     H127938   1.216   8.969   5.606
 9232WAT     H227939   1.199   8.879   5.471
 9233WAT      O27940   8.828   4.166   3.656
 9233WAT     H127941   8.839   4.201   3.749
 9233WAT     H227942   8.849   4.238   3.590
 9234WAT      O27943   6.615   8.982   6.861
 9234WAT     H127944   6.549   9.012   6.792
 9234WAT     H227945   6.707   8.984   6.822
 9235WAT      O27946   9.637   9.006   9.827
 9235WAT     H127947   9.601   9.096   9.804
 9235WAT     H227948   9.725   9.016   9.874
 9236WAT      O27949   4.949   0.862   0.669
 9236WAT     H127950   5.038   0.904   0.653
 9236WAT     H227951   4.899   0.913   0.739
 9237WAT      O27952   2.485   4.961   2.305
 9237WAT     H127953   2.506   5.028   2.376
 9237WAT     H227954   2.506   4.869   2.339
 9238WAT      O27955   3.160   7.600   6.393
 9238WAT     H127956   3.165   7.507   6.356
 9238WAT     H227957   3.090   7.604   6.465
 9239WAT      O27958   4.145   1.167   4.671
 9239WAT     H127959   4.195   1.091   4.713
 9239WAT     H227960   4.168   1.252   4.718
 9240WAT      O27961   4.527   2.870   1.122
 9240WAT     H127962   4.619   2.830   1.125
 9240WAT     H227963   4.469   2.825   1.190
 9241WAT      O27964   1.813   1.909   2.245
 9241WAT     H127965   1.774   1.906   2.153
 9241WAT     H227966   1.880   1.984   2.251
 9242WAT      O27967   0.508   8.324   0.139
 9242WAT     H127968   0.491   8.401   0.200
 9242WAT     H227969   0.520   8.240   0.193
 9243WAT      O27970   6.241   6.894   4.941
 9243WAT     H127971   6.199   6.873   4.852
 9243WAT     H227972   6.280   6.811   4.979
 9244WAT      O27973   1.148   2.963   4.849
 9244WAT     H127974   1.178   2.948   4.755
 9244WAT     H227975   1.225   2.997   4.904
 9245WAT      O27976   3.056   8.385   0.044
 9245WAT     H127977   3.004   8.383  -0.041
 9245WAT     H227978   2.995   8.402   0.121
 9246WAT      O27979   3.674   5.942   6.853
 9246WAT     H127980   3.726   5.871   6.805
 9246WAT     H227981   3.589   5.902   6.889
 9247WAT      O27982   1.703   2.068   9.781
 9247WAT     H127983   1.651   2.144   9.818
 9247WAT     H227984   1.744   2.015   9.856
 9248WAT      O27985   7.711   2.117   3.354
 9248WAT     H127986   7.662   2.130   3.440
 9248WAT     H227987   7.674   2.038   3.305
 9249WAT      O27988   3.374   2.977   5.780
 9249WAT     H127989   3.284   2.933   5.787
 9249WAT     H227990   3.445   2.906   5.777
 9250WAT      O27991   7.342   7.606   6.873
 9250WAT     H127992   7.303   7.695   6.894
 9250WAT     H227993   7.416   7.616   6.807
 9251WAT      O27994   2.034   3.227   9.048
 9251WAT     H127995   1.996   3.216   9.140
 9251WAT     H227996   2.059   3.138   9.011
 9252WAT      O27997   7.316   1.061   0.819
 9252WAT     H127998   7.355   1.147   0.786
 9252WAT     H227999   7.233   1.080   0.872
 9253WAT      O28000   5.122   7.656   2.311
 9253WAT     H128001   5.185   7.617   2.379
 9253WAT     H228002   5.041   7.599   2.304
 9254WAT      O28003   9.123   4.535   1.330
 9254WAT     H128004   9.110   4.534   1.429
 9254WAT     H228005   9.122   4.441   1.295
 9255WAT      O28006   6.529   9.510   6.309
 9255WAT     H128007   6.516   9.428   6.255
 9255WAT     H228008   6.439   9.551   6.330
 9256WAT      O28009   3.078   8.720   1.174
 9256WAT     H128010   3.151   8.731   1.107
 9256WAT     H228011   3.028   8.635   1.157
 9257WAT      O28012   9.297   0.667   6.430
 9257WAT     H128013   9.384   0.698   6.390
 9257WAT     H228014   9.258   0.595   6.372
 9258WAT      O28015   6.801   5.006   5.547
 9258WAT     H128016   6.893   5.009   5.585
 9258WAT     H228017   6.788   4.919   5.499
 9259WAT      O28018   6.902   9.471   9.647
 9259WAT     H128019   6.902   9.566   9.676
 9259WAT     H228020   6.896   9.467   9.547
 9260WAT      O28021   8.444   0.525   9.490
 9260WAT     H128022   8.448   0.521   9.590
 9260WAT     H228023   8.536   0.536   9.453
 9261WAT      O28024   6.032   0.545   6.175
 9261WAT     H128025   6.057   0.514   6.267
 9261WAT     H228026   6.065   0.479   6.108
 9262WAT      O28027   3.225   6.355   6.468
 9262WAT     H128028   3.298   6.422   6.453
 9262WAT     H228029   3.219   6.293   6.390
 9263WAT      O28030   2.596   9.757   8.274
 9263WAT     H128031   2.681   9.746   8.325
 9263WAT     H228032   2.518   9.750   8.336
 9264WAT      O28033   3.445   2.460   6.560
 9264WAT     H128034   3.392   2.428   6.481
 9264WAT     H228035   3.429   2.400   6.638
 9265WAT      O28036   4.832   7.383   6.445
 9265WAT     H128037   4.776   7.302   6.466
 9265WAT     H228038   4.896   7.360   6.371
 9266WAT      O28039   6.627   8.273   2.116
 9266WAT     H128040   6.571   8.200   2.154
 9266WAT     H228041   6.679   8.317   2.190
 9267WAT      O28042   1.312   6.980   8.399
 9267WAT     H128043   1.356   6.891   8.390
 9267WAT     H228044   1.365   7.037   8.462
 9268WAT      O28045   5.500   5.527   1.928
 9268WAT     H128046   5.540   5.577   2.005
 9268WAT     H228047   5.515   5.579   1.843
 9269WAT      O28048   3.040   7.510   3.854
 9269WAT     H128049   3.138   7.530   3.862
 9269WAT     H228050   3.001   7.500   3.945
 9270WAT      O28051   7.013   9.549   7.056
 9270WAT     H128052   6.921   9.577   7.083
 9270WAT     H228053   7.075   9.628   7.059
 9271WAT      O28054   0.361   5.617   1.814
 9271WAT     H128055   0.447   5.669   1.811
 9271WAT     H228056   0.319   5.627   1.904
 9272WAT      O28057   3.018   1.704   6.370
 9272WAT     H128058   3.034   1.616   6.326
 9272WAT     H228059   2.946   1.753   6.321
 9273WAT      O28060   2.467   2.777   3.329
 9273WAT     H128061   2.484   2.874   3.344
 9273WAT     H228062   2.524   2.723   3.390
 9274WAT      O28063   1.472   2.154   0.576
 9274WAT     H128064   1.496   2.196   0.663
 9274WAT     H228065   1.484   2.055   0.583
 9275WAT      O28066   3.399   2.346   9.773
 9275WAT     H128067   3.389   2.399   9.857
 9275WAT     H228068   3.349   2.260   9.781
 9276WAT      O28069   5.391   9.313   7.203
 9276WAT     H128070   5.319   9.380   7.220
 9276WAT     H228071   5.475   9.342   7.249
 9277WAT      O28072   2.223   1.929   8.967
 9277WAT     H128073   2.169   1.906   8.886
 9277WAT     H228074   2.180   1.890   9.048
 9278WAT      O28075   6.866   3.795   2.632
 9278WAT     H128076   6.782   3.849   2.617
 9278WAT     H228077   6.847   3.722   2.697
 9279WAT      O28078   2.575   4.937   9.868
 9279WAT     H128079   2.668   4.962   9.892
 9279WAT     H228080   2.533   5.010   9.814
 9280WAT      O28081   9.320   7.498   8.448
 9280WAT     H128082   9.224   7.525   8.453
 9280WAT     H228083   9.378   7.579   8.459
 9281WAT      O28084   6.749   9.663   4.873
 9281WAT     H128085   6.745   9.563   4.872
 9281WAT     H228086   6.782   9.696   4.785
 9282WAT      O28087   8.111   1.149   6.792
 9282WAT     H128088   8.024   1.196   6.808
 9282WAT     H228089   8.178   1.215   6.759
 9283WAT      O28090   3.905   0.149   6.650
 9283WAT     H128091   3.819   0.200   6.647
 9283WAT     H228092   3.926   0.126   6.745
 9284WAT      O28093   8.240   7.220   5.126
 9284WAT     H128094   8.168   7.205   5.193
 9284WAT     H228095   8.320   7.259   5.170
 9285WAT      O28096   0.608   7.617   2.804
 9285WAT     H128097   0.646   7.685   2.740
 9285WAT     H228098   0.513   7.641   2.823
 9286WAT      O28099   4.197   2.435   3.943
 9286WAT     H128100   4.153   2.488   4.017
 9286WAT     H228101   4.284   2.477   3.920
 9287WAT      O28102   1.014   8.066   6.899
 9287WAT     H128103   0.999   8.095   6.994
 9287WAT     H228104   0.931   8.024   6.863
 9288WAT      O28105   1.859   2.568   2.169
 9288WAT     H128106   1.790   2.620   2.221
 9288WAT     H228107   1.888   2.489   2.223
 9289WAT      O28108   6.515   8.728   1.915
 9289WAT     H128109   6.465   8.654   1.961
 9289WAT     H228110   6.540   8.698   1.823
 9290WAT      O28111   4.905   1.378   4.568
 9290WAT     H128112   4.916   1.391   4.469
 9290WAT     H228113   4.966   1.440   4.617
 9291WAT      O28114   4.810   6.076   6.693
 9291WAT     H128115   4.816   6.096   6.791
 9291WAT     H228116   4.715   6.054   6.670
 9292WAT      O28117   3.275   0.806   8.804
 9292WAT     H128118   3.244   0.890   8.759
 9292WAT     H228119   3.259   0.728   8.744
 9293WAT      O28120   5.780   1.478   6.616
 9293WAT     H128121   5.818   1.570   6.628
 9293WAT     H228122   5.692   1.472   6.663
 9294WAT      O28123   2.080   0.394   4.468
 9294WAT     H128124   2.043   0.434   4.552
 9294WAT     H228125   2.154   0.330   4.492
 9295WAT      O28126   7.735   9.448   2.500
 9295WAT     H128127   7.726   9.547   2.488
 9295WAT     H228128   7.654   9.413   2.548
 9296WAT      O28129   7.169   1.610   4.221
 9296WAT     H128130   7.175   1.703   4.257
 9296WAT     H228131   7.104   1.557   4.275
 9297WAT      O28132   4.383   3.344   6.678
 9297WAT     H128133   4.480   3.332   6.700
 9297WAT     H228134   4.371   3.348   6.579
 9298WAT      O28135   9.339   7.795   7.290
 9298WAT     H128136   9.280   7.720   7.321
 9298WAT     H228137   9.283   7.867   7.249
 9299WAT      O28138   5.111   9.623   9.408
 9299WAT     H128139   5.202   9.658   9.390
 9299WAT     H228140   5.043   9.693   9.386
 9300WAT      O28141   5.554   1.630   2.419
 9300WAT     H128142   5.478   1.590   2.367
 9300WAT     H228143   5.630   1.564   2.422
 9301WAT      O28144   1.125   0.262   8.055
 9301WAT     H128145   1.190   0.185   8.049
 9301WAT     H228146   1.049   0.246   7.993
 9302WAT      O28147   1.407   6.175   7.611
 9302WAT     H128148   1.374   6.153   7.519
 9302WAT     H228149   1.385   6.271   7.632
 9303WAT      O28150   7.777   8.574   0.641
 9303WAT     H128151   7.705   8.550   0.576
 9303WAT     H228152   7.852   8.619   0.593
 9304WAT      O28153   6.336   9.292   4.195
 9304WAT     H128154   6.356   9.367   4.132
 9304WAT     H228155   6.389   9.211   4.169
 9305WAT      O28156   9.055   0.208   8.964
 9305WAT     H128157   9.035   0.167   8.875
 9305WAT     H228158   9.149   0.242   8.965
 9306WAT      O28159   8.053   4.697   3.692
 9306WAT     H128160   8.048   4.598   3.679
 9306WAT     H228161   8.146   4.723   3.719
 9307WAT      O28162   9.545   2.677   1.902
 9307WAT     H128163   9.541   2.609   1.975
 9307WAT     H228164   9.482   2.752   1.924
 9308WAT      O28165   2.194   9.772   6.212
 9308WAT     H128166   2.221   9.690   6.263
 9308WAT     H228167   2.187   9.849   6.276
 9309WAT      O28168   0.298   8.558   3.136
 9309WAT     H128169   0.284   8.496   3.214
 9309WAT     H228170   0.378   8.527   3.084
 9310WAT      O28171   2.340   5.499   7.087
 9310WAT     H128172   2.264   5.528   7.146
 9310WAT     H228173   2.346   5.399   7.087
 9311WAT      O28174   5.690   7.085   4.243
 9311WAT     H128175   5.610   7.120   4.195
 9311WAT     H228176   5.700   6.987   4.224
 9312WAT      O28177   3.958   7.142   6.390
 9312WAT     H128178   3.874   7.189   6.364
 9312WAT     H228179   3.936   7.068   6.454
 9313WAT      O28180   1.224   3.920   5.291
 9313WAT     H128181   1.305   3.940   5.347
 9313WAT     H228182   1.142   3.932   5.347
 9314WAT      O28183   6.134   3.785   5.310
 9314WAT     H128184   6.184   3.816   5.229
 9314WAT     H228185   6.038   3.809   5.302
 9315WAT      O28186   4.725   9.677   7.100
 9315WAT     H128187   4.802   9.622   7.133
 9315WAT     H228188   4.733   9.691   7.002
 9316WAT      O28189   2.983   0.312   7.367
 9316WAT     H128190   2.965   0.274   7.457
 9316WAT     H228191   2.920   0.272   7.301
 9317WAT      O28192   9.107   0.607   3.247
 9317WAT     H128193   9.028   0.632   3.190
 9317WAT     H228194   9.180   0.572   3.188
 9318WAT      O28195   0.704   5.595   7.632
 9318WAT     H128196   0.754   5.510   7.651
 9318WAT     H228197   0.666   5.631   7.717
 9319WAT      O28198   7.995   5.020   6.794
 9319WAT     H128199   8.083   5.020   6.840
 9319WAT     H228200   7.947   4.934   6.814
 9320WAT      O28201   8.716   8.200   0.473
 9320WAT     H128202   8.690   8.104   0.480
 9320WAT     H228203   8.737   8.221   0.377
 9321WAT      O28204   5.738   1.317   9.767
 9321WAT     H128205   5.675   1.239   9.766
 9321WAT     H228206   5.723   1.373   9.686
 9322WAT      O28207   3.017   2.590   8.496
 9322WAT     H128208   3.050   2.667   8.551
 9322WAT     H228209   3.093   2.552   8.443
 9323WAT      O28210   4.440   4.453   0.493
 9323WAT     H128211   4.485   4.423   0.577
 9323WAT     H228212   4.421   4.373   0.435
 9324WAT      O28213   7.576   8.924   4.741
 9324WAT     H128214   7.587   9.007   4.686
 9324WAT     H228215   7.662   8.873   4.742
 9325WAT      O28216   0.373   1.159   1.533
 9325WAT     H128217   0.395   1.254   1.555
 9325WAT     H228218   0.434   1.098   1.584
 9326WAT      O28219   7.167   0.123   5.828
 9326WAT     H128220   7.202   0.097   5.738
 9326WAT     H228221   7.238   0.171   5.879
 9327WAT      O28222   8.039   4.156   7.042
 9327WAT     H128223   7.979   4.218   7.092
 9327WAT     H228224   8.128   4.201   7.028
 9328WAT      O28225   8.067   4.710   0.678
 9328WAT     H128226   7.975   4.681   0.706
 9328WAT     H228227   8.105   4.772   0.747
 9329WAT      O28228   5.964   3.037   4.115
 9329WAT     H128229   5.972   3.045   4.015
 9329WAT     H228230   6.052   3.061   4.157
 9330WAT      O28231   7.502   4.663   3.513
 9330WAT     H128232   7.551   4.581   3.482
 9330WAT     H228233   7.435   4.689   3.444
 9331WAT      O28234   1.870   4.719   1.278
 9331WAT     H128235   1.797   4.662   1.242
 9331WAT     H228236   1.842   4.759   1.365
 9332WAT      O28237   1.940   9.230   6.570
 9332WAT     H128238   1.944   9.278   6.482
 9332WAT     H228239   1.980   9.289   6.641
 9333WAT      O28240   3.389   6.180   2.398
 9333WAT     H128241   3.312   6.200   2.458
 9333WAT     H228242   3.369   6.099   2.343
 9334WAT      O28243   6.212   0.364   5.656
 9334WAT     H128244   6.248   0.435   5.716
 9334WAT     H228245   6.125   0.393   5.616
 9335WAT      O28246   3.361   3.708   9.555
 9335WAT     H128247   3.404   3.778   9.499
 9335WAT     H228248   3.291   3.660   9.502
 9336WAT      O28249   4.256   7.075   9.488
 9336WAT     H128250   4.298   7.166   9.483
 9336WAT     H228251   4.310   7.010   9.435
 9337WAT      O28252   1.477   5.793   3.806
 9337WAT     H128253   1.418   5.721   3.841
 9337WAT     H228254   1.447   5.882   3.842
 9338WAT      O28255   2.075   3.026   8.761
 9338WAT     H128256   2.002   2.996   8.699
 9338WAT     H228257   2.062   2.983   8.850
 9339WAT      O28258   9.522   2.142   2.443
 9339WAT     H128259   9.464   2.167   2.521
 9339WAT     H228260   9.588   2.073   2.472
 9340WAT      O28261   2.744   7.995   5.981
 9340WAT     H128262   2.784   7.970   6.070
 9340WAT     H228263   2.697   7.917   5.942
 9341WAT      O28264   0.831   4.483   8.503
 9341WAT     H128265   0.824   4.456   8.600
 9341WAT     H228266   0.779   4.566   8.488
 9342WAT      O28267   6.313   9.588   5.856
 9342WAT     H128268   6.268   9.607   5.769
 9342WAT     H228269   6.282   9.653   5.925
 9343WAT      O28270   6.721   7.049   0.535
 9343WAT     H128271   6.662   6.997   0.473
 9343WAT     H228272   6.745   7.137   0.493
 9344WAT      O28273   2.742   2.521   2.752
 9344WAT     H128274   2.747   2.567   2.664
 9344WAT     H228275   2.726   2.588   2.824
 9345WAT      O28276   8.348   0.137   6.772
 9345WAT     H128277   8.299   0.218   6.740
 9345WAT     H228278   8.430   0.125   6.716
 9346WAT      O28279   6.010   7.784   9.216
 9346WAT     H128280   5.948   7.854   9.180
 9346WAT     H228281   6.087   7.773   9.153
 9347WAT      O28282   1.414   3.302   6.356
 9347WAT     H128283   1.420   3.395   6.390
 9347WAT     H228284   1.321   3.284   6.324
 9348WAT      O28285   1.504   0.926   6.416
 9348WAT     H128286   1.418   0.966   6.383
 9348WAT     H228287   1.574   0.997   6.421
 9349WAT      O28288   6.112   3.595   6.501
 9349WAT     H128289   6.028   3.549   6.530
 9349WAT     H228290   6.170   3.611   6.581
 9350WAT      O28291   9.286   5.589   9.695
 9350WAT     H128292   9.338   5.504   9.684
 9350WAT     H228293   9.220   5.578   9.769
 9351WAT      O28294   6.929   9.267   1.442
 9351WAT     H128295   6.959   9.235   1.352
 9351WAT     H228296   6.932   9.191   1.507
 9352WAT      O28297   3.957   9.394   6.484
 9352WAT     H128298   4.000   9.322   6.429
 9352WAT     H228299   4.016   9.475   6.485
 9353WAT      O28300   3.763   7.986   4.802
 9353WAT     H128301   3.794   7.977   4.708
 9353WAT     H228302   3.838   8.019   4.859
 9354WAT      O28303   6.130   5.941   4.592
 9354WAT     H128304   6.151   5.955   4.495
 9354WAT     H228305   6.053   5.878   4.601
 9355WAT      O28306   9.322   4.858   7.413
 9355WAT     H128307   9.412   4.863   7.456
 9355WAT     H228308   9.291   4.763   7.411
 9356WAT      O28309   0.152   1.110   1.875
 9356WAT     H128310   0.107   1.125   1.787
 9356WAT     H228311   0.101   1.156   1.947
 9357WAT      O28312   6.558   3.487   2.159
 9357WAT     H128313   6.546   3.533   2.247
 9357WAT     H228314   6.590   3.394   2.174
 9358WAT      O28315   2.433   1.818   0.937
 9358WAT     H128316   2.432   1.844   1.033
 9358WAT     H228317   2.341   1.788   0.909
 9359WAT      O28318   8.474   0.951   0.540
 9359WAT     H128319   8.393   0.893   0.531
 9359WAT     H228320   8.495   0.993   0.452
 9360WAT      O28321   5.307   5.605   3.664
 9360WAT     H128322   5.293   5.681   3.601
 9360WAT     H228323   5.222   5.552   3.672
 9361WAT      O28324   3.881   9.763   8.808
 9361WAT     H128325   3.846   9.698   8.741
 9361WAT     H228326   3.887   9.718   8.897
 9362WAT      O28327   6.887   5.254   6.813
 9362WAT     H128328   6.936   5.217   6.891
 9362WAT     H228329   6.930   5.222   6.728
 9363WAT      O28330   7.500   4.675   7.548
 9363WAT     H128331   7.414   4.726   7.561
 9363WAT     H228332   7.540   4.699   7.460
 9364WAT      O28333   3.944   1.390   7.467
 9364WAT     H128334   3.975   1.365   7.375
 9364WAT     H228335   3.871   1.458   7.461
 9365WAT      O28336   8.649   8.547   2.391
 9365WAT     H128337   8.721   8.546   2.460
 9365WAT     H228338   8.684   8.590   2.307
 9366WAT      O28339   8.156   2.999   5.798
 9366WAT     H128340   8.222   3.041   5.860
 9366WAT     H228341   8.098   2.936   5.849
 9367WAT      O28342   5.485   2.373   0.156
 9367WAT     H128343   5.450   2.331   0.072
 9367WAT     H228344   5.490   2.472   0.144
 9368WAT      O28345   0.915   6.613   7.917
 9368WAT     H128346   0.834   6.565   7.885
 9368WAT     H228347   0.911   6.709   7.887
 9369WAT      O28348   9.156   2.666   0.689
 9369WAT     H128349   9.183   2.662   0.593
 9369WAT     H228350   9.214   2.733   0.737
 9370WAT      O28351   6.756   6.175   6.152
 9370WAT     H128352   6.846   6.212   6.130
 9370WAT     H228353   6.761   6.075   6.154
 9371WAT      O28354   5.088   8.201   2.103
 9371WAT     H128355   5.143   8.285   2.108
 9371WAT     H228356   5.001   8.216   2.150
 9372WAT      O28357   9.047   3.631   6.952
 9372WAT     H128358   8.952   3.627   6.923
 9372WAT     H228359   9.080   3.539   6.971
 9373WAT      O28360   3.475   4.208   8.696
 9373WAT     H128361   3.479   4.179   8.600
 9373WAT     H228362   3.496   4.131   8.755
 9374WAT      O28363   9.130   7.821   3.335
 9374WAT     H128364   9.048   7.831   3.279
 9374WAT     H228365   9.157   7.724   3.336
 9375WAT      O28366   4.793   2.169   7.491
 9375WAT     H128367   4.713   2.214   7.452
 9375WAT     H228368   4.875   2.222   7.468
 9376WAT      O28369   0.048   6.112   6.717
 9376WAT     H128370   0.090   6.074   6.635
 9376WAT     H228371   0.071   6.209   6.724
 9377WAT      O28372   6.031   7.017   7.255
 9377WAT     H128373   6.084   7.043   7.335
 9377WAT     H228374   5.941   7.061   7.259
 9378WAT      O28375   6.413   5.747   1.366
 9378WAT     H128376   6.358   5.830   1.367
 9378WAT     H228377   6.489   5.757   1.430
 9379WAT      O28378   9.006   9.150   1.979
 9379WAT     H128379   8.922   9.200   2.000
 9379WAT     H228380   9.018   9.145   1.880
 9380WAT      O28381   7.099   3.081   5.336
 9380WAT     H128382   7.092   2.981   5.341
 9380WAT     H228383   7.188   3.110   5.371
 9381WAT      O28384   1.470   6.792   2.796
 9381WAT     H128385   1.454   6.701   2.835
 9381WAT     H228386   1.383   6.841   2.788
 9382WAT      O28387   6.152   4.720   2.134
 9382WAT     H128388   6.117   4.630   2.107
 9382WAT     H228389   6.232   4.708   2.193
 9383WAT      O28390   6.752   1.906   5.633
 9383WAT     H128391   6.748   1.825   5.691
 9383WAT     H228392   6.679   1.970   5.659
 9384WAT      O28393   1.299   4.409   2.640
 9384WAT     H128394   1.363   4.482   2.617
 9384WAT     H228395   1.223   4.409   2.575
 9385WAT      O28396   6.700   7.761   3.107
 9385WAT     H128397   6.692   7.689   3.176
 9385WAT     H228398   6.788   7.751   3.060
 9386WAT      O28399   2.550   4.232   3.449
 9386WAT     H128400   2.506   4.167   3.512
 9386WAT     H228401   2.568   4.186   3.362
 9387WAT      O28402   3.581   7.951   2.366
 9387WAT     H128403   3.596   7.872   2.307
 9387WAT     H228404   3.585   7.922   2.462
 9388WAT      O28405   9.297   7.561   6.530
 9388WAT     H128406   9.361   7.636   6.547
 9388WAT     H228407   9.270   7.561   6.434
 9389WAT      O28408   2.985   3.102   8.172
 9389WAT     H128409   3.013   3.090   8.267
 9389WAT     H228410   2.940   3.019   8.138
 9390WAT      O28411   2.182   1.356   0.384
 9390WAT     H128412   2.265   1.394   0.344
 9390WAT     H228413   2.173   1.388   0.478
 9391WAT      O28414   9.392   6.941   3.165
 9391WAT     H128415   9.397   6.842   3.179
 9391WAT     H228416   9.303   6.964   3.125
 9392WAT      O28417   2.777   5.297   4.252
 9392WAT     H128418   2.865   5.344   4.246
 9392WAT     H228419   2.752   5.284   4.348
 9393WAT      O28420   8.858   2.575   4.021
 9393WAT     H128421   8.933   2.632   3.986
 9393WAT     H228422   8.826   2.514   3.949
 9394WAT      O28423   2.351   8.598   2.447
 9394WAT     H128424   2.333   8.658   2.525
 9394WAT     H228425   2.364   8.504   2.480
 9395WAT      O28426   7.927   0.242   9.739
 9395WAT     H128427   7.943   0.316   9.804
 9395WAT     H228428   7.862   0.177   9.779
 9396WAT      O28429   1.576   4.619   8.972
 9396WAT     H128430   1.653   4.564   8.939
 9396WAT     H228431   1.604   4.668   9.055
 9397WAT      O28432   4.524   5.502   7.909
 9397WAT     H128433   4.451   5.433   7.906
 9397WAT     H228434   4.484   5.593   7.903
 9398WAT      O28435   0.823   3.512   8.730
 9398WAT     H128436   0.827   3.531   8.632
 9398WAT     H228437   0.867   3.586   8.780
 9399WAT      O28438   5.968   5.612   1.561
 9399WAT     H128439   6.031   5.638   1.487
 9399WAT     H228440   5.903   5.686   1.577
 9400WAT      O28441   9.852   4.209   9.195
 9400WAT     H128442   9.773   4.268   9.211
 9400WAT     H228443   9.900   4.238   9.113
 9401WAT      O28444   4.402   2.900   3.763
 9401WAT     H128445   4.310   2.899   3.802
 9401WAT     H228446   4.397   2.883   3.664
 9402WAT      O28447   1.550   1.452   6.398
 9402WAT     H128448   1.582   1.454   6.492
 9402WAT     H228449   1.615   1.499   6.338
 9403WAT      O28450   5.120   9.683   8.546
 9403WAT     H128451   5.218   9.662   8.553
 9403WAT     H228452   5.108   9.762   8.486
 9404WAT      O28453   9.452   4.993   3.046
 9404WAT     H128454   9.494   4.912   3.088
 9404WAT     H228455   9.429   5.059   3.117
 9405WAT      O28456   3.765   0.105   8.011
 9405WAT     H128457   3.700   0.174   7.982
 9405WAT     H228458   3.851   0.149   8.038
 9406WAT      O28459   7.491   3.643   0.007
 9406WAT     H128460   7.546   3.714   0.049
 9406WAT     H228461   7.410   3.683  -0.035
 9407WAT      O28462   9.290   7.308   1.160
 9407WAT     H128463   9.278   7.261   1.073
 9407WAT     H228464   9.336   7.247   1.225
 9408WAT      O28465   0.297   7.254   5.112
 9408WAT     H128466   0.393   7.235   5.088
 9408WAT     H228467   0.291   7.346   5.151
 9409WAT      O28468   8.821   5.304   8.942
 9409WAT     H128469   8.730   5.268   8.962
 9409WAT     H228470   8.862   5.338   9.027
 9410WAT      O28471   1.449   4.145   0.816
 9410WAT     H128472   1.482   4.198   0.738
 9410WAT     H228473   1.441   4.204   0.896
 9411WAT      O28474   4.016   9.774   7.569
 9411WAT     H128475   3.924   9.769   7.529
 9411WAT     H228476   4.062   9.686   7.558
 9412WAT      O28477   6.743   0.111   9.431
 9412WAT     H128478   6.762   0.123   9.333
 9412WAT     H228479   6.795   0.033   9.465
 9413WAT      O28480   7.693   8.736   6.584
 9413WAT     H128481   7.741   8.792   6.516
 9413WAT     H228482   7.612   8.695   6.542
 9414WAT      O28483   0.428   7.443   6.770
 9414WAT     H128484   0.385   7.418   6.683
 9414WAT     H228485   0.372   7.410   6.846
 9415WAT      O28486   5.796   0.965   9.300
 9415WAT     H128487   5.768   1.057   9.276
 9415WAT     H228488   5.823   0.915   9.217
 9416WAT      O28489   0.631   8.400   3.857
 9416WAT     H128490   0.624   8.431   3.763
 9416WAT     H228491   0.717   8.350   3.869
 9417WAT      O28492   1.637   8.865   1.238
 9417WAT     H128493   1.544   8.870   1.274
 9417WAT     H228494   1.633   8.843   1.141
 9418WAT      O28495   6.125   1.426   3.751
 9418WAT     H128496   6.161   1.495   3.688
 9418WAT     H228497   6.134   1.460   3.845
 9419WAT      O28498   1.392   4.074   9.419
 9419WAT     H128499   1.454   3.998   9.439
 9419WAT     H228500   1.355   4.110   9.505
 9420WAT      O28501   8.347   4.530   8.039
 9420WAT     H128502   8.428   4.584   8.061
 9420WAT     H228503   8.356   4.493   7.947
 9421WAT      O28504   1.530   2.771   7.786
 9421WAT     H128505   1.523   2.705   7.712
 9421WAT     H228506   1.612   2.827   7.773
 9422WAT      O28507   8.331   7.591   4.526
 9422WAT     H128508   8.416   7.605   4.474
 9422WAT     H228509   8.255   7.631   4.476
 9423WAT      O28510   2.691   6.461   7.440
 9423WAT     H128511   2.670   6.381   7.384
 9423WAT     H228512   2.703   6.541   7.381
 9424WAT      O28513   1.660   3.607   8.093
 9424WAT     H128514   1.735   3.587   8.031
 9424WAT     H228515   1.573   3.605   8.043
 9425WAT      O28516   6.688   6.225   6.937
 9425WAT     H128517   6.605   6.271   6.905
 9425WAT     H228518   6.760   6.293   6.950
 9426WAT      O28519   5.530   2.035   3.201
 9426WAT     H128520   5.602   2.044   3.132
 9426WAT     H228521   5.535   1.944   3.242
 9427WAT      O28522   5.087   4.128   8.762
 9427WAT     H128523   5.149   4.144   8.839
 9427WAT     H228524   5.075   4.030   8.748
 9428WAT      O28525   4.138   7.476   0.951
 9428WAT     H128526   4.052   7.438   0.918
 9428WAT     H228527   4.131   7.495   1.049
 9429WAT      O28528   8.692   2.986   5.339
 9429WAT     H128529   8.675   2.969   5.242
 9429WAT     H228530   8.683   3.084   5.357
 9430WAT      O28531   6.912   7.707   5.742
 9430WAT     H128532   6.842   7.638   5.760
 9430WAT     H228533   6.893   7.788   5.797
 9431WAT      O28534   3.115   9.642   7.328
 9431WAT     H128535   3.100   9.731   7.372
 9431WAT     H228536   3.213   9.624   7.323
 9432WAT      O28537   4.325   9.018   3.051
 9432WAT     H128538   4.275   9.018   2.965
 9432WAT     H228539   4.369   8.929   3.064
 9433WAT      O28540   4.656   3.143   8.343
 9433WAT     H128541   4.695   3.123   8.253
 9433WAT     H228542   4.679   3.236   8.370
 9434WAT      O28543   8.862   3.582   5.799
 9434WAT     H128544   8.852   3.675   5.834
 9434WAT     H228545   8.854   3.517   5.874
 9435WAT      O28546   8.064   0.656   1.717
 9435WAT     H128547   8.093   0.625   1.807
 9435WAT     H228548   7.980   0.709   1.725
 9436WAT      O28549   8.402   7.515   7.144
 9436WAT     H128550   8.492   7.549   7.118
 9436WAT     H228551   8.412   7.444   7.215
 9437WAT      O28552   6.113   8.036   4.872
 9437WAT     H128553   6.053   8.031   4.952
 9437WAT     H228554   6.076   8.102   4.807
 9438WAT      O28555   1.174   6.093   3.401
 9438WAT     H128556   1.174   6.180   3.351
 9438WAT     H228557   1.228   6.026   3.350
 9439WAT      O28558   4.946   0.561   4.305
 9439WAT     H128559   4.934   0.569   4.404
 9439WAT     H228560   4.917   0.470   4.275
 9440WAT      O28561   6.955   7.880   3.822
 9440WAT     H128562   7.030   7.911   3.879
 9440WAT     H228563   6.916   7.796   3.860
 9441WAT      O28564   1.797   4.949   5.953
 9441WAT     H128565   1.718   4.962   6.012
 9441WAT     H228566   1.859   5.026   5.963
 9442WAT      O28567   3.966   4.884   4.926
 9442WAT     H128568   4.006   4.849   5.011
 9442WAT     H228569   3.911   4.813   4.884
 9443WAT      O28570   2.752   5.501   9.816
 9443WAT     H128571   2.675   5.479   9.877
 9443WAT     H228572   2.792   5.588   9.843
 9444WAT      O28573   0.117   5.184   8.399
 9444WAT     H128574   0.127   5.099   8.348
 9444WAT     H228575   0.114   5.165   8.497
 9445WAT      O28576   3.016   0.118   9.110
 9445WAT     H128577   2.970   0.140   9.025
 9445WAT     H228578   2.977   0.173   9.184
 9446WAT      O28579   4.505   0.683   2.844
 9446WAT     H128580   4.592   0.710   2.803
 9446WAT     H228581   4.436   0.752   2.825
 9447WAT      O28582   1.914   2.834   5.604
 9447WAT     H128583   1.892   2.916   5.552
 9447WAT     H228584   1.911   2.754   5.543
 9448WAT      O28585   0.551   0.706   1.995
 9448WAT     H128586   0.462   0.716   2.039
 9448WAT     H228587   0.550   0.627   1.935
 9449WAT      O28588   2.667   7.126   4.191
 9449WAT     H128589   2.738   7.067   4.152
 9449WAT     H228590   2.674   7.124   4.291
 9450WAT      O28591   7.109   5.772   1.733
 9450WAT     H128592   7.169   5.844   1.768
 9450WAT     H228593   7.046   5.742   1.805
 9451WAT      O28594   0.120   2.502   7.999
 9451WAT     H128595   0.073   2.589   8.009
 9451WAT     H228596   0.083   2.453   7.919
 9452WAT      O28597   4.547   1.766   7.023
 9452WAT     H128598   4.539   1.851   7.074
 9452WAT     H228599   4.633   1.764   6.974
 9453WAT      O28600   9.438   6.853   8.607
 9453WAT     H128601   9.491   6.892   8.532
 9453WAT     H228602   9.348   6.824   8.574
 9454WAT      O28603   6.781   6.652   1.031
 9454WAT     H128604   6.700   6.597   1.011
 9454WAT     H228605   6.813   6.696   0.947
 9455WAT      O28606   6.601   6.352   0.290
 9455WAT     H128607   6.506   6.380   0.284
 9455WAT     H228608   6.658   6.431   0.314
 9456WAT      O28609   0.528   7.558   8.549
 9456WAT     H128610   0.623   7.568   8.517
 9456WAT     H228611   0.515   7.467   8.587
 9457WAT      O28612   6.345   2.557   0.182
 9457WAT     H128613   6.428   2.600   0.216
 9457WAT     H228614   6.357   2.457   0.181
 9458WAT      O28615   6.344   8.407   3.717
 9458WAT     H128616   6.342   8.369   3.810
 9458WAT     H228617   6.407   8.353   3.661
 9459WAT      O28618   3.113   6.052   9.395
 9459WAT     H128619   3.163   6.059   9.308
 9459WAT     H228620   3.159   5.987   9.455
 9460WAT      O28621   3.857   7.038   8.753
 9460WAT     H128622   3.861   7.134   8.783
 9460WAT     H228623   3.793   6.988   8.811
 9461WAT      O28624   6.380   4.903   3.326
 9461WAT     H128625   6.283   4.884   3.309
 9461WAT     H228626   6.388   4.981   3.388
 9462WAT      O28627   1.225   7.321   7.882
 9462WAT     H128628   1.201   7.364   7.969
 9462WAT     H228629   1.284   7.383   7.830
 9463WAT      O28630   8.170   9.543   6.963
 9463WAT     H128631   8.120   9.482   6.902
 9463WAT     H228632   8.211   9.490   7.038
 9464WAT      O28633   6.959   3.070   0.789
 9464WAT     H128634   6.908   3.094   0.707
 9464WAT     H228635   6.917   3.115   0.868
 9465WAT      O28636   1.736   3.165   4.263
 9465WAT     H128637   1.731   3.228   4.340
 9465WAT     H228638   1.667   3.093   4.273
 9466WAT      O28639   8.463   4.407   4.891
 9466WAT     H128640   8.485   4.484   4.951
 9466WAT     H228641   8.370   4.417   4.856
 9467WAT      O28642   3.201   6.370   7.503
 9467WAT     H128643   3.142   6.327   7.434
 9467WAT     H228644   3.180   6.468   7.508
 9468WAT      O28645   6.826   6.047   7.239
 9468WAT     H128646   6.881   5.963   7.243
 9468WAT     H228647   6.820   6.087   7.330
 9469WAT      O28648   0.744   8.162   4.587
 9469WAT     H128649   0.670   8.174   4.521
 9469WAT     H228650   0.738   8.070   4.628
 9470WAT      O28651   8.386   3.416   2.720
 9470WAT     H128652   8.379   3.516   2.716
 9470WAT     H228653   8.477   3.388   2.689
 9471WAT      O28654   2.808   0.869   4.711
 9471WAT     H128655   2.823   0.870   4.810
 9471WAT     H228656   2.811   0.962   4.676
 9472WAT      O28657   3.312   2.632   7.514
 9472WAT     H128658   3.281   2.688   7.591
 9472WAT     H228659   3.241   2.629   7.444
 9473WAT      O28660   3.553   9.498   8.647
 9473WAT     H128661   3.494   9.570   8.611
 9473WAT     H228662   3.517   9.467   8.735
 9474WAT      O28663   0.604   6.140   0.992
 9474WAT     H128664   0.524   6.138   1.052
 9474WAT     H228665   0.579   6.180   0.904
 9475WAT      O28666   5.506   2.422   4.682
 9475WAT     H128667   5.601   2.434   4.656
 9475WAT     H228668   5.470   2.339   4.638
 9476WAT      O28669   6.085   2.867   0.740
 9476WAT     H128670   6.164   2.927   0.745
 9476WAT     H228671   6.015   2.909   0.682
 9477WAT      O28672   7.551   1.746   5.268
 9477WAT     H128673   7.598   1.778   5.186
 9477WAT     H228674   7.452   1.758   5.257
 9478WAT      O28675   0.580   7.196   1.878
 9478WAT     H128676   0.647   7.122   1.889
 9478WAT     H228677   0.489   7.157   1.867
 9479WAT      O28678   2.078   1.535   1.652
 9479WAT     H128679   2.061   1.451   1.703
 9479WAT     H228680   2.126   1.600   1.710
 9480WAT      O28681   9.562   3.820   2.597
 9480WAT     H128682   9.616   3.745   2.560
 9480WAT     H228683   9.474   3.824   2.550
 9481WAT      O28684   7.634   3.517   5.984
 9481WAT     H128685   7.681   3.446   5.931
 9481WAT     H228686   7.650   3.606   5.943
 9482WAT      O28687   5.411   3.772   8.740
 9482WAT     H128688   5.491   3.831   8.751
 9482WAT     H228689   5.368   3.758   8.829
 9483WAT      O28690   6.130   0.284   0.837
 9483WAT     H128691   6.163   0.294   0.743
 9483WAT     H228692   6.033   0.259   0.835
 9484WAT      O28693   3.830   1.733   6.261
 9484WAT     H128694   3.823   1.730   6.162
 9484WAT     H228695   3.914   1.686   6.291
 9485WAT      O28696   7.080   3.589   3.663
 9485WAT     H128697   7.059   3.506   3.611
 9485WAT     H228698   7.075   3.668   3.603
 9486WAT      O28699   1.859   5.528   2.581
 9486WAT     H128700   1.765   5.537   2.547
 9486WAT     H228701   1.865   5.447   2.640
 9487WAT      O28702   2.195   5.962   6.531
 9487WAT     H128703   2.098   5.970   6.510
 9487WAT     H228704   2.209   5.894   6.603
 9488WAT      O28705   2.132   3.373   7.292
 9488WAT     H128706   2.146   3.307   7.367
 9488WAT     H228707   2.177   3.459   7.315
 9489WAT      O28708   8.078   2.485   3.512
 9489WAT     H128709   8.099   2.578   3.484
 9489WAT     H228710   7.980   2.475   3.525
 9490WAT      O28711   8.733   7.741   6.477
 9490WAT     H128712   8.672   7.717   6.401
 9490WAT     H228713   8.828   7.728   6.448
 9491WAT      O28714   7.221   2.845   2.876
 9491WAT     H128715   7.125   2.866   2.896
 9491WAT     H228716   7.232   2.747   2.865
 9492WAT      O28717   9.326   5.991   4.861
 9492WAT     H128718   9.323   6.036   4.771
 9492WAT     H228719   9.283   5.901   4.855
 9493WAT      O28720   4.791   9.006   6.885
 9493WAT     H128721   4.750   8.918   6.862
 9493WAT     H228722   4.720   9.076   6.886
 9494WAT      O28723   4.368   1.816   4.069
 9494WAT     H128724   4.461   1.840   4.045
 9494WAT     H228725   4.325   1.770   3.991
 9495WAT      O28726   9.741   0.457   8.927
 9495WAT     H128727   9.790   0.460   9.014
 9495WAT     H228728   9.643   0.469   8.944
 9496WAT      O28729   2.661   7.181   5.542
 9496WAT     H128730   2.711   7.097   5.521
 9496WAT     H228731   2.588   7.193   5.475
 9497WAT      O28732   1.283   4.885   2.083
 9497WAT     H128733   1.316   4.849   2.171
 9497WAT     H228734   1.360   4.900   2.022
 9498WAT      O28735   6.801   1.093   3.221
 9498WAT     H128736   6.786   1.033   3.299
 9498WAT     H228737   6.726   1.159   3.215
 9499WAT      O28738   9.487   7.748   2.367
 9499WAT     H128739   9.562   7.764   2.430
 9499WAT     H228740   9.509   7.670   2.308
 9500WAT      O28741   0.253   9.838   7.311
 9500WAT     H128742   0.321   9.801   7.248
 9500WAT     H228743   0.234   9.770   7.382
 9501WAT      O28744   1.636   4.792   9.770
 9501WAT     H128745   1.711   4.829   9.824
 9501WAT     H228746   1.663   4.703   9.733
 9502WAT      O28747   1.712   2.680   6.543
 9502WAT     H128748   1.797   2.716   6.505
 9502WAT     H228749   1.707   2.582   6.524
 9503WAT      O28750   5.288   5.537   1.225
 9503WAT     H128751   5.228   5.608   1.188
 9503WAT     H228752   5.383   5.564   1.214
 9504WAT      O28753   2.185   0.270   6.691
 9504WAT     H128754   2.112   0.335   6.670
 9504WAT     H228755   2.163   0.221   6.775
 9505WAT      O28756   8.560   7.685   1.606
 9505WAT     H128757   8.550   7.698   1.507
 9505WAT     H228758   8.475   7.651   1.644
 9506WAT      O28759   6.751   5.414   3.602
 9506WAT     H128760   6.846   5.390   3.587
 9506WAT     H228761   6.720   5.378   3.690
 9507WAT      O28762   6.120   0.741   3.246
 9507WAT     H128763   6.161   0.667   3.300
 9507WAT     H228764   6.180   0.764   3.169
 9508WAT      O28765   1.853   1.724   8.736
 9508WAT     H128766   1.913   1.658   8.691
 9508WAT     H228767   1.814   1.786   8.668
 9509WAT      O28768   9.794   1.092   6.507
 9509WAT     H128769   9.876   1.050   6.545
 9509WAT     H228770   9.716   1.073   6.566
 9510WAT      O28771   8.604   8.044   1.914
 9510WAT     H128772   8.596   8.071   2.010
 9510WAT     H228773   8.518   8.006   1.882
 9511WAT      O28774   8.856   4.356   2.248
 9511WAT     H128775   8.861   4.415   2.328
 9511WAT     H228776   8.781   4.386   2.189
 9512WAT      O28777   2.431   6.635   2.452
 9512WAT     H128778   2.511   6.624   2.393
 9512WAT     H228779   2.348   6.626   2.398
 9513WAT      O28780   8.060   3.433   5.519
 9513WAT     H128781   8.065   3.430   5.619
 9513WAT     H228782   8.130   3.495   5.484
 9514WAT      O28783   1.510   5.497   5.813
 9514WAT     H128784   1.473   5.507   5.905
 9514WAT     H228785   1.589   5.558   5.801
 9515WAT      O28786   8.799   5.658   3.577
 9515WAT     H128787   8.838   5.684   3.665
 9515WAT     H228788   8.853   5.584   3.538
 9516WAT      O28789   5.647   8.872   1.189
 9516WAT     H128790   5.550   8.895   1.197
 9516WAT     H228791   5.663   8.781   1.228
 9517WAT      O28792   0.300   9.258   0.683
 9517WAT     H128793   0.244   9.286   0.604
 9517WAT     H228794   0.264   9.173   0.721
 9518WAT      O28795   6.268   2.580   8.121
 9518WAT     H128796   6.272   2.519   8.201
 9518WAT     H228797   6.305   2.670   8.146
 9519WAT      O28798   7.933   1.272   8.653
 9519WAT     H128799   7.996   1.241   8.582
 9519WAT     H228800   7.844   1.291   8.612
 9520WAT      O28801   1.974   2.045   8.135
 9520WAT     H128802   2.041   1.985   8.092
 9520WAT     H228803   2.020   2.128   8.169
 9521WAT      O28804   1.887   9.685   8.855
 9521WAT     H128805   1.841   9.603   8.888
 9521WAT     H228806   1.898   9.750   8.930
 9522WAT      O28807   0.108   6.582   6.483
 9522WAT     H128808   0.206   6.561   6.495
 9522WAT     H228809   0.055   6.535   6.553
 9523WAT      O28810   3.708   2.452   0.117
 9523WAT     H128811   3.733   2.482   0.209
 9523WAT     H228812   3.781   2.396   0.079
 9524WAT      O28813   7.342   2.127   9.566
 9524WAT     H128814   7.298   2.196   9.623
 9524WAT     H228815   7.305   2.037   9.588
 9525WAT      O28816   4.581   0.459   9.457
 9525WAT     H128817   4.537   0.371   9.441
 9525WAT     H228818   4.587   0.510   9.372
 9526WAT      O28819   8.864   0.289   1.893
 9526WAT     H128820   8.799   0.273   1.966
 9526WAT     H228821   8.912   0.204   1.872
 9527WAT      O28822   8.551   8.326   7.172
 9527WAT     H128823   8.619   8.395   7.146
 9527WAT     H228824   8.459   8.366   7.168
 9528WAT      O28825   1.971   1.327   3.230
 9528WAT     H128826   1.948   1.373   3.144
 9528WAT     H228827   1.961   1.228   3.218
 9529WAT      O28828   7.662   4.329   5.185
 9529WAT     H128829   7.631   4.239   5.156
 9529WAT     H228830   7.722   4.368   5.115
 9530WAT      O28831   6.558   9.229   8.157
 9530WAT     H128832   6.573   9.286   8.076
 9530WAT     H228833   6.482   9.266   8.210
 9531WAT      O28834   0.110   0.198   0.998
 9531WAT     H128835   0.080   0.166   0.908
 9531WAT     H228836   0.199   0.242   0.990
 9532WAT      O28837   5.709   8.139   4.596
 9532WAT     H128838   5.662   8.198   4.530
 9532WAT     H228839   5.647   8.117   4.671
 9533WAT      O28840   5.189   1.015   8.452
 9533WAT     H128841   5.142   1.015   8.540
 9533WAT     H228842   5.224   0.923   8.433
 9534WAT      O28843   0.192   8.564   2.583
 9534WAT     H128844   0.227   8.616   2.505
 9534WAT     H228845   0.103   8.526   2.560
 9535WAT      O28846   0.739   8.959   1.638
 9535WAT     H128847   0.714   9.052   1.666
 9535WAT     H228848   0.718   8.947   1.541
 9536WAT      O28849   2.001   6.999   6.015
 9536WAT     H128850   2.032   7.092   6.034
 9536WAT     H228851   2.029   6.974   5.922
 9537WAT      O28852   3.610   0.201   9.550
 9537WAT     H128853   3.702   0.221   9.518
 9537WAT     H228854   3.572   0.280   9.598
 9538WAT      O28855   6.501   4.040   7.655
 9538WAT     H128856   6.423   4.044   7.593
 9538WAT     H228857   6.556   3.959   7.634
 9539WAT      O28858   5.263   5.813   3.423
 9539WAT     H128859   5.209   5.732   3.397
 9539WAT     H228860   5.360   5.790   3.423
 9540WAT      O28861   7.056   7.993   9.183
 9540WAT     H128862   7.021   7.908   9.223
 9540WAT     H228863   7.123   8.033   9.245
 9541WAT      O28864   0.753   6.722   7.187
 9541WAT     H128865   0.843   6.742   7.146
 9541WAT     H228866   0.725   6.629   7.161
 9542WAT      O28867   1.142   5.658   0.266
 9542WAT     H128868   1.166   5.702   0.353
 9542WAT     H228869   1.137   5.559   0.279
 9543WAT      O28870   5.112   9.407   5.191
 9543WAT     H128871   5.202   9.394   5.232
 9543WAT     H228872   5.122   9.443   5.099
 9544WAT      O28873   9.213   7.045   0.517
 9544WAT     H128874   9.172   6.987   0.448
 9544WAT     H228875   9.145   7.109   0.552
 9545WAT      O28876   7.984   4.143   4.622
 9545WAT     H128877   7.933   4.119   4.539
 9545WAT     H228878   7.921   4.150   4.699
 9546WAT      O28879   7.526   8.650   8.948
 9546WAT     H128880   7.446   8.690   8.904
 9546WAT     H228881   7.517   8.550   8.949
 9547WAT      O28882   8.631   5.559   1.825
 9547WAT     H128883   8.559   5.491   1.812
 9547WAT     H228884   8.594   5.650   1.808
 9548WAT      O28885   9.264   5.151   1.800
 9548WAT     H128886   9.285   5.248   1.811
 9548WAT     H228887   9.215   5.137   1.714
 9549WAT      O28888   9.874   6.233   2.949
 9549WAT     H128889   9.953   6.194   2.901
 9549WAT     H228890   9.855   6.324   2.913
 9550WAT      O28891   4.071   3.537   4.012
 9550WAT     H128892   4.151   3.515   4.068
 9550WAT     H228893   4.066   3.475   3.934
 9551WAT      O28894   7.528   6.352   7.814
 9551WAT     H128895   7.481   6.358   7.901
 9551WAT     H228896   7.570   6.440   7.792
 9552WAT      O28897   4.319   7.323   1.960
 9552WAT     H128898   4.309   7.412   1.916
 9552WAT     H228899   4.360   7.336   2.051
 9553WAT      O28900   8.351   7.304   0.779
 9553WAT     H128901   8.276   7.238   0.775
 9553WAT     H228902   8.377   7.319   0.875
 9554WAT      O28903   0.474   2.250   7.116
 9554WAT     H128904   0.388   2.245   7.167
 9554WAT     H228905   0.460   2.215   7.024
 9555WAT      O28906   5.747   7.897   9.469
 9555WAT     H128907   5.689   7.923   9.391
 9555WAT     H228908   5.790   7.980   9.506
 9556WAT      O28909   4.626   4.143   7.262
 9556WAT     H128910   4.616   4.045   7.244
 9556WAT     H228911   4.696   4.157   7.332
 9557WAT      O28912   3.181   8.470   4.994
 9557WAT     H128913   3.270   8.501   4.960
 9557WAT     H228914   3.190   8.442   5.090
 9558WAT      O28915   3.718   8.117   8.897
 9558WAT     H128916   3.736   8.215   8.897
 9558WAT     H228917   3.724   8.082   8.990
 9559WAT      O28918   4.725   0.400   8.618
 9559WAT     H128919   4.647   0.378   8.559
 9559WAT     H228920   4.779   0.472   8.575
 9560WAT      O28921   0.022   8.796   1.736
 9560WAT     H128922  -0.071   8.816   1.766
 9560WAT     H228923   0.087   8.843   1.796
 9561WAT      O28924   9.772   3.930   4.613
 9561WAT     H128925   9.779   3.891   4.704
 9561WAT     H228926   9.689   3.895   4.568
 9562WAT      O28927   7.105   3.552   2.946
 9562WAT     H128928   7.060   3.583   3.030
 9562WAT     H228929   7.191   3.603   2.934
 9563WAT      O28930   9.336   9.695   6.980
 9563WAT     H128931   9.338   9.691   6.880
 9563WAT     H228932   9.425   9.723   7.014
 9564WAT      O28933   7.333   8.839   0.763
 9564WAT     H128934   7.257   8.819   0.825
 9564WAT     H228935   7.299   8.885   0.681
 9565WAT      O28936   3.814   4.311   2.259
 9565WAT     H128937   3.797   4.251   2.337
 9565WAT     H228938   3.904   4.354   2.268
 9566WAT      O28939   2.291   0.666   9.245
 9566WAT     H128940   2.371   0.715   9.210
 9566WAT     H228941   2.310   0.567   9.245
 9567WAT      O28942   8.727   8.051   9.792
 9567WAT     H128943   8.725   7.972   9.730
 9567WAT     H228944   8.716   8.020   9.886
 9568WAT      O28945   5.297   0.207   8.548
 9568WAT     H128946   5.332   0.126   8.594
 9568WAT     H228947   5.204   0.226   8.579
 9569WAT      O28948   4.032   5.339   1.355
 9569WAT     H128949   3.965   5.338   1.281
 9569WAT     H228950   4.008   5.270   1.423
 9570WAT      O28951   3.377   3.495   3.882
 9570WAT     H128952   3.378   3.572   3.817
 9570WAT     H228953   3.373   3.531   3.975
 9571WAT      O28954   3.463   4.839   8.425
 9571WAT     H128955   3.450   4.895   8.507
 9571WAT     H228956   3.375   4.806   8.392
 9572WAT      O28957   7.939   6.171   5.089
 9572WAT     H128958   7.946   6.265   5.123
 9572WAT     H228959   7.990   6.162   5.003
 9573WAT      O28960   8.993   9.733   7.518
 9573WAT     H128961   8.922   9.690   7.574
 9573WAT     H228962   9.030   9.666   7.454
 9574WAT      O28963   4.967   7.530   0.056
 9574WAT     H128964   4.915   7.614   0.073
 9574WAT     H228965   4.950   7.500  -0.037
 9575WAT      O28966   0.977   1.226   7.519
 9575WAT     H128967   0.923   1.262   7.442
 9575WAT     H228968   1.036   1.152   7.486
 9576WAT      O28969   7.412   3.761   6.749
 9576WAT     H128970   7.511   3.770   6.762
 9576WAT     H228971   7.381   3.828   6.681
 9577WAT      O28972   9.359   9.134   3.683
 9577WAT     H128973   9.430   9.138   3.613
 9577WAT     H228974   9.281   9.189   3.654
 9578WAT      O28975   5.226   5.717   4.995
 9578WAT     H128976   5.262   5.754   4.910
 9578WAT     H228977   5.301   5.692   5.055
 9579WAT      O28978   5.957   6.685   7.783
 9579WAT     H128979   5.996   6.595   7.799
 9579WAT     H228980   5.955   6.703   7.684
 9580WAT      O28981   1.858   8.633   7.082
 9580WAT     H128982   1.858   8.588   7.172
 9580WAT     H228983   1.918   8.582   7.020
 9581WAT      O28984   8.259   3.781   9.536
 9581WAT     H128985   8.229   3.759   9.629
 9581WAT     H228986   8.316   3.863   9.538
 9582WAT      O28987   2.045   2.964   9.696
 9582WAT     H128988   1.949   2.991   9.704
 9582WAT     H228989   2.091   2.981   9.784
 9583WAT      O28990   0.248   8.879   5.604
 9583WAT     H128991   0.246   8.966   5.556
 9583WAT     H228992   0.340   8.841   5.601
 9584WAT      O28993   9.126   0.970   2.996
 9584WAT     H128994   9.037   0.992   2.955
 9584WAT     H228995   9.113   0.942   3.090
 9585WAT      O28996   2.915   4.256   1.610
 9585WAT     H128997   2.888   4.351   1.630
 9585WAT     H228998   2.986   4.228   1.675
 9586WAT      O28999   6.025   5.503   6.288
 9586WAT     H129000   6.013   5.404   6.299
 9586WAT     H229001   5.966   5.551   6.353
 9587WAT      O29002   4.721   8.649   4.933
 9587WAT     H129003   4.672   8.715   4.875
 9587WAT     H229004   4.688   8.656   5.027
 9588WAT      O29005   7.100   0.762   3.084
 9588WAT     H129006   7.078   0.859   3.085
 9588WAT     H229007   7.061   0.720   3.003
 9589WAT      O29008   2.067   8.463   7.835
 9589WAT     H129009   1.996   8.431   7.772
 9589WAT     H229010   2.092   8.557   7.812
 9590WAT      O29011   2.062   5.062   4.593
 9590WAT     H129012   2.042   5.001   4.670
 9590WAT     H229013   1.989   5.054   4.525
 9591WAT      O29014   2.902   1.309   9.724
 9591WAT     H129015   2.862   1.219   9.710
 9591WAT     H229016   2.971   1.326   9.654
 9592WAT      O29017   3.393   7.068   6.514
 9592WAT     H129018   3.342   6.983   6.507
 9592WAT     H229019   3.329   7.145   6.517
 9593WAT      O29020   4.764   7.834   3.644
 9593WAT     H129021   4.686   7.775   3.622
 9593WAT     H229022   4.833   7.826   3.572
 9594WAT      O29023   1.974   1.205   2.649
 9594WAT     H129024   1.990   1.116   2.692
 9594WAT     H229025   2.060   1.238   2.609
 9595WAT      O29026   8.274   9.234   9.725
 9595WAT     H129027   8.307   9.171   9.655
 9595WAT     H229028   8.284   9.192   9.815
 9596WAT      O29029   6.422   5.789   5.226
 9596WAT     H129030   6.486   5.725   5.268
 9596WAT     H229031   6.419   5.773   5.127
 9597WAT      O29032   4.870   9.682   3.802
 9597WAT     H129033   4.803   9.746   3.839
 9597WAT     H229034   4.961   9.706   3.835
 9598WAT      O29035   0.960   6.883   8.246
 9598WAT     H129036   1.049   6.905   8.206
 9598WAT     H229037   0.888   6.934   8.199
 9599WAT      O29038   3.014   4.667   3.238
 9599WAT     H129039   2.928   4.647   3.284
 9599WAT     H229040   3.086   4.681   3.306
 9600WAT      O29041   4.307   4.601   6.954
 9600WAT     H129042   4.319   4.502   6.948
 9600WAT     H229043   4.366   4.647   6.887
 9601WAT      O29044   1.425   8.382   3.313
 9601WAT     H129045   1.522   8.403   3.301
 9601WAT     H229046   1.411   8.342   3.404
 9602WAT      O29047   1.758   5.009   7.697
 9602WAT     H129048   1.701   5.003   7.779
 9602WAT     H229049   1.763   5.104   7.666
 9603WAT      O29050   0.030   8.590   3.834
 9603WAT     H129051  -0.005   8.522   3.898
 9603WAT     H229052   0.128   8.605   3.852
 9604WAT      O29053   1.124   0.395   8.293
 9604WAT     H129054   1.181   0.355   8.364
 9604WAT     H229055   1.133   0.342   8.209
 9605WAT      O29056   9.286   0.163   3.726
 9605WAT     H129057   9.355   0.219   3.772
 9605WAT     H229058   9.296   0.174   3.627
 9606WAT      O29059   8.448   1.423   4.592
 9606WAT     H129060   8.534   1.475   4.602
 9606WAT     H229061   8.469   1.328   4.572
 9607WAT      O29062   5.042   9.217   4.789
 9607WAT     H129063   5.136   9.239   4.818
 9607WAT     H229064   4.977   9.259   4.852
 9608WAT      O29065   7.737   0.415   6.526
 9608WAT     H129066   7.724   0.408   6.625
 9608WAT     H229067   7.672   0.481   6.489
 9609WAT      O29068   2.062   1.761   7.500
 9609WAT     H129069   2.031   1.852   7.529
 9609WAT     H229070   2.140   1.733   7.556
 9610WAT      O29071   5.565   6.566   0.232
 9610WAT     H129072   5.640   6.507   0.202
 9610WAT     H229073   5.559   6.646   0.172
 9611WAT      O29074   9.546   5.724   8.651
 9611WAT     H129075   9.521   5.655   8.719
 9611WAT     H229076   9.465   5.754   8.601
 9612WAT      O29077   3.547   3.057   6.976
 9612WAT     H129078   3.523   3.031   6.882
 9612WAT     H229079   3.468   3.043   7.035
 9613WAT      O29080   3.979   1.456   1.389
 9613WAT     H129081   3.906   1.437   1.323
 9613WAT     H229082   3.939   1.492   1.474
 9614WAT      O29083   5.292   6.673   0.574
 9614WAT     H129084   5.275   6.627   0.486
 9614WAT     H229085   5.234   6.754   0.581
 9615WAT      O29086   7.989   9.696   0.349
 9615WAT     H129087   7.917   9.666   0.286
 9615WAT     H229088   7.976   9.651   0.438
 9616WAT      O29089   3.879   0.737   1.673
 9616WAT     H129090   3.838   0.825   1.647
 9616WAT     H229091   3.837   0.704   1.758
 9617WAT      O29092   5.583   0.591   4.387
 9617WAT     H129093   5.604   0.607   4.483
 9617WAT     H229094   5.621   0.666   4.332
 9618WAT      O29095   0.131   6.253   4.740
 9618WAT     H129096   0.221   6.241   4.698
 9618WAT     H229097   0.060   6.237   4.672
 9619WAT      O29098   7.785   4.734   5.656
 9619WAT     H129099   7.815   4.824   5.687
 9619WAT     H229100   7.841   4.705   5.578
 9620WAT      O29101   1.441   5.012   9.386
 9620WAT     H129102   1.440   4.913   9.372
 9620WAT     H229103   1.509   5.053   9.325
 9621WAT      O29104   4.956   3.310   7.738
 9621WAT     H129105   4.938   3.212   7.740
 9621WAT     H229106   5.041   3.329   7.787
 9622WAT      O29107   4.757   6.349   5.938
 9622WAT     H129108   4.662   6.380   5.934
 9622WAT     H229109   4.812   6.401   5.873
 9623WAT      O29110   3.751   2.577   7.328
 9623WAT     H129111   3.844   2.569   7.293
 9623WAT     H229112   3.725   2.493   7.375
 9624WAT      O29113   2.598   7.580   4.380
 9624WAT     H129114   2.599   7.586   4.280
 9624WAT     H229115   2.604   7.671   4.419
 9625WAT      O29116   9.588   2.131   3.013
 9625WAT     H129117   9.546   2.198   2.952
 9625WAT     H229118   9.658   2.175   3.069
 9626WAT      O29119   2.457   0.425   0.932
 9626WAT     H129120   2.518   0.406   1.009
 9626WAT     H229121   2.374   0.369   0.940
 9627WAT      O29122   4.215   7.978   2.938
 9627WAT     H129123   4.168   7.971   3.026
 9627WAT     H229124   4.289   8.044   2.946
 9628WAT      O29125   4.956   8.020   3.922
 9628WAT     H129126   5.027   8.063   3.867
 9628WAT     H229127   4.964   7.920   3.914
 9629WAT      O29128   4.010   8.473   9.064
 9629WAT     H129129   4.039   8.476   8.968
 9629WAT     H229130   4.073   8.526   9.120
 9630WAT      O29131   6.780   3.738   6.785
 9630WAT     H129132   6.878   3.756   6.780
 9630WAT     H229133   6.734   3.777   6.705
 9631WAT      O29134   9.512   3.543   0.503
 9631WAT     H129135   9.469   3.453   0.503
 9631WAT     H229136   9.453   3.609   0.549
 9632WAT      O29137   8.955   4.338   6.051
 9632WAT     H129138   9.046   4.379   6.054
 9632WAT     H229139   8.926   4.313   6.143
 9633WAT      O29140   9.684   3.909   7.489
 9633WAT     H129141   9.586   3.912   7.470
 9633WAT     H229142   9.725   3.998   7.469
 9634WAT      O29143   9.231   8.494   5.711
 9634WAT     H129144   9.286   8.573   5.686
 9634WAT     H229145   9.194   8.451   5.628
 9635WAT      O29146   6.212   7.747   9.430
 9635WAT     H129147   6.123   7.788   9.411
 9635WAT     H229148   6.249   7.786   9.514
 9636WAT      O29149   2.880   5.894   7.909
 9636WAT     H129150   2.797   5.845   7.937
 9636WAT     H229151   2.854   5.970   7.849
 9637WAT      O29152   4.254   1.752   1.573
 9637WAT     H129153   4.165   1.773   1.532
 9637WAT     H229154   4.304   1.691   1.512
 9638WAT      O29155   8.355   2.348   1.164
 9638WAT     H129156   8.369   2.416   1.093
 9638WAT     H229157   8.265   2.363   1.207
 9639WAT      O29158   0.603   1.752   2.410
 9639WAT     H129159   0.654   1.836   2.390
 9639WAT     H229160   0.649   1.702   2.483
 9640WAT      O29161   9.711   6.896   7.113
 9640WAT     H129162   9.780   6.911   7.042
 9640WAT     H229163   9.744   6.935   7.199
 9641WAT      O29164   6.743   0.931   4.316
 9641WAT     H129165   6.840   0.941   4.295
 9641WAT     H229166   6.695   0.893   4.237
 9642WAT      O29167   6.050   4.008   1.694
 9642WAT     H129168   6.039   3.944   1.770
 9642WAT     H229169   6.146   4.037   1.689
 9643WAT      O29170   6.621   3.977   1.250
 9643WAT     H129171   6.715   3.963   1.280
 9643WAT     H229172   6.584   3.891   1.213
 9644WAT      O29173   8.924   7.550   0.830
 9644WAT     H129174   8.924   7.648   0.811
 9644WAT     H229175   8.947   7.535   0.926
 9645WAT      O29176   3.294   5.520   9.330
 9645WAT     H129177   3.231   5.598   9.330
 9645WAT     H229178   3.242   5.435   9.326
 9646WAT      O29179   8.003   6.463   1.308
 9646WAT     H129180   7.941   6.516   1.367
 9646WAT     H229181   7.951   6.423   1.233
 9647WAT      O29182   5.710   4.300   0.647
 9647WAT     H129183   5.699   4.264   0.739
 9647WAT     H229184   5.628   4.353   0.622
 9648WAT      O29185   0.796   7.257   4.995
 9648WAT     H129186   0.768   7.311   4.916
 9648WAT     H229187   0.808   7.317   5.074
 9649WAT      O29188   8.962   6.244   7.907
 9649WAT     H129189   8.894   6.217   7.839
 9649WAT     H229190   8.925   6.318   7.963
 9650WAT      O29191   4.185   1.762   2.988
 9650WAT     H129192   4.109   1.785   2.928
 9650WAT     H229193   4.225   1.846   3.025
 9651WAT      O29194   0.770   9.350   4.064
 9651WAT     H129195   0.678   9.331   4.099
 9651WAT     H229196   0.774   9.329   3.966
 9652WAT      O29197   4.882   3.041   7.760
 9652WAT     H129198   4.969   2.992   7.750
 9652WAT     H229199   4.807   2.980   7.738
 9653WAT      O29200   8.263   9.280   1.016
 9653WAT     H129201   8.217   9.192   1.026
 9653WAT     H229202   8.206   9.342   0.961
 9654WAT      O29203   1.189   2.405   0.707
 9654WAT     H129204   1.119   2.475   0.696
 9654WAT     H229205   1.272   2.446   0.744
 9655WAT      O29206   5.689   9.701   0.119
 9655WAT     H129207   5.616   9.676   0.182
 9655WAT     H229208   5.652   9.714   0.027
 9656WAT      O29209   3.147   1.203   0.159
 9656WAT     H129210   3.226   1.260   0.134
 9656WAT     H229211   3.170   1.149   0.240
 9657WAT      O29212   6.032   7.456   3.210
 9657WAT     H129213   6.103   7.399   3.249
 9657WAT     H229214   6.042   7.459   3.110
 9658WAT      O29215   1.549   2.742   2.082
 9658WAT     H129216   1.580   2.649   2.063
 9658WAT     H229217   1.450   2.743   2.089
 9659WAT      O29218   2.201   5.811   1.752
 9659WAT     H129219   2.159   5.879   1.691
 9659WAT     H229220   2.175   5.719   1.722
 9660WAT      O29221   3.090   1.959   3.639
 9660WAT     H129222   3.125   1.976   3.547
 9660WAT     H229223   3.046   1.869   3.642
 9661WAT      O29224   9.555   4.202   8.865
 9661WAT     H129225   9.583   4.297   8.875
 9661WAT     H229226   9.614   4.156   8.799
 9662WAT      O29227   4.306   8.363   3.138
 9662WAT     H129228   4.257   8.429   3.083
 9662WAT     H229229   4.343   8.291   3.080
 9663WAT      O29230   7.215   8.555   3.576
 9663WAT     H129231   7.290   8.621   3.569
 9663WAT     H229232   7.178   8.556   3.670
 9664WAT      O29233   4.082   5.538   1.130
 9664WAT     H129234   4.111   5.543   1.225
 9664WAT     H229235   4.163   5.534   1.070
 9665WAT      O29236   0.868   9.845   6.105
 9665WAT     H129237   0.802   9.876   6.173
 9665WAT     H229238   0.836   9.759   6.065
 9666WAT      O29239   2.446   8.648   4.470
 9666WAT     H129240   2.488   8.630   4.559
 9666WAT     H229241   2.349   8.624   4.475
 9667WAT      O29242   0.106   8.219   7.295
 9667WAT     H129243   0.025   8.249   7.244
 9667WAT     H229244   0.077   8.186   7.385
 9668WAT      O29245   3.935   6.947   9.148
 9668WAT     H129246   3.994   6.918   9.072
 9668WAT     H229247   3.992   6.992   9.218
 9669WAT      O29248   8.150   1.683   6.355
 9669WAT     H129249   8.231   1.669   6.412
 9669WAT     H229250   8.134   1.781   6.343
 9670WAT      O29251   5.859   7.976   4.404
 9670WAT     H129252   5.792   7.980   4.330
 9670WAT     H229253   5.824   8.025   4.484
 9671WAT      O29254   6.956   9.019   7.851
 9671WAT     H129255   7.007   9.082   7.911
 9671WAT     H229256   7.002   8.930   7.850
 9672WAT      O29257   3.982   5.261   0.329
 9672WAT     H129258   4.063   5.259   0.388
 9672WAT     H229259   3.901   5.282   0.384
 9673WAT      O29260   9.348   8.033   1.199
 9673WAT     H129261   9.315   7.982   1.120
 9673WAT     H229262   9.417   8.099   1.169
 9674WAT      O29263   8.325   5.632   5.685
 9674WAT     H129264   8.368   5.719   5.707
 9674WAT     H229265   8.241   5.648   5.633
 9675WAT      O29266   9.643   4.841   6.382
 9675WAT     H129267   9.554   4.887   6.392
 9675WAT     H229268   9.712   4.909   6.358
 9676WAT      O29269   5.740   2.990   8.882
 9676WAT     H129270   5.710   3.050   8.808
 9676WAT     H229271   5.746   2.896   8.848
 9677WAT      O29272   7.511   8.310   2.663
 9677WAT     H129273   7.610   8.304   2.671
 9677WAT     H229274   7.480   8.252   2.588
 9678WAT      O29275   3.057   6.193   2.837
 9678WAT     H129276   3.111   6.142   2.904
 9678WAT     H229277   3.109   6.203   2.753
 9679WAT      O29278   4.075   0.756   6.510
 9679WAT     H129279   4.120   0.695   6.576
 9679WAT     H229280   4.112   0.738   6.419
 9680WAT      O29281   3.056   5.885   0.800
 9680WAT     H129282   3.151   5.915   0.794
 9680WAT     H229283   3.039   5.815   0.731
 9681WAT      O29284   0.400   2.350   3.951
 9681WAT     H129285   0.334   2.394   4.012
 9681WAT     H229286   0.380   2.252   3.945
 9682WAT      O29287   1.730   7.379   7.226
 9682WAT     H129288   1.640   7.351   7.260
 9682WAT     H229289   1.727   7.388   7.127
 9683WAT      O29290   2.726   0.029   6.259
 9683WAT     H129291   2.648  -0.004   6.312
 9683WAT     H229292   2.763  -0.045   6.203
 9684WAT      O29293   8.707   2.310   1.229
 9684WAT     H129294   8.625   2.255   1.247
 9684WAT     H229295   8.705   2.392   1.286
 9685WAT      O29296   6.056   0.624   2.379
 9685WAT     H129297   6.145   0.662   2.355
 9685WAT     H229298   5.990   0.646   2.307
 9686WAT      O29299   7.646   1.878   3.229
 9686WAT     H129300   7.658   1.898   3.132
 9686WAT     H229301   7.683   1.787   3.250
 9687WAT      O29302   2.371   6.052   0.871
 9687WAT     H129303   2.432   6.120   0.911
 9687WAT     H229304   2.413   5.962   0.877
 9688WAT      O29305   6.857   7.633   0.890
 9688WAT     H129306   6.900   7.618   0.801
 9688WAT     H229307   6.916   7.598   0.962
 9689WAT      O29308   7.660   3.014   3.808
 9689WAT     H129309   7.594   3.070   3.858
 9689WAT     H229310   7.707   2.954   3.872
 9690WAT      O29311   5.480   0.366   9.453
 9690WAT     H129312   5.515   0.398   9.541
 9690WAT     H229313   5.504   0.270   9.440
 9691WAT      O29314   2.702   7.903   5.433
 9691WAT     H129315   2.666   7.888   5.525
 9691WAT     H229316   2.767   7.831   5.411
 9692WAT      O29317   0.376   8.000   7.383
 9692WAT     H129318   0.322   7.923   7.417
 9692WAT     H229319   0.346   8.024   7.290
 9693WAT      O29320   0.537   6.493   9.554
 9693WAT     H129321   0.629   6.478   9.519
 9693WAT     H229322   0.521   6.432   9.631
 9694WAT      O29323   4.498   5.700   0.540
 9694WAT     H129324   4.460   5.779   0.493
 9694WAT     H229325   4.598   5.698   0.529
 9695WAT      O29326   7.163   9.645   0.795
 9695WAT     H129327   7.185   9.736   0.829
 9695WAT     H229328   7.126   9.589   0.869
 9696WAT      O29329   7.690   4.336   8.193
 9696WAT     H129330   7.721   4.317   8.100
 9696WAT     H229331   7.636   4.420   8.194
 9697WAT      O29332   2.015   4.872   1.109
 9697WAT     H129333   1.969   4.799   1.160
 9697WAT     H229334   1.952   4.948   1.095
 9698WAT      O29335   1.480   9.377   8.339
 9698WAT     H129336   1.497   9.460   8.285
 9698WAT     H229337   1.384   9.375   8.366
 9699WAT      O29338   0.925   3.330   1.568
 9699WAT     H129339   0.988   3.255   1.547
 9699WAT     H229340   0.834   3.292   1.588
 9700WAT      O29341   4.396   6.189   5.476
 9700WAT     H129342   4.305   6.214   5.444
 9700WAT     H229343   4.421   6.099   5.439
 9701WAT      O29344   0.599   2.367   4.451
 9701WAT     H129345   0.671   2.356   4.519
 9701WAT     H229346   0.560   2.278   4.430
 9702WAT      O29347   3.719   6.242   1.822
 9702WAT     H129348   3.687   6.337   1.819
 9702WAT     H229349   3.795   6.231   1.758
 9703WAT      O29350   3.169   3.624   3.085
 9703WAT     H129351   3.244   3.564   3.057
 9703WAT     H229352   3.083   3.587   3.050
 9704WAT      O29353   2.184   1.484   9.351
 9704WAT     H129354   2.101   1.503   9.403
 9704WAT     H229355   2.229   1.570   9.328
 9705WAT      O29356   7.164   8.661   0.991
 9705WAT     H129357   7.103   8.589   1.025
 9705WAT     H229358   7.118   8.750   0.998
 9706WAT      O29359   7.679   9.216   1.865
 9706WAT     H129360   7.601   9.245   1.920
 9706WAT     H229361   7.754   9.186   1.925
 9707WAT      O29362   5.349   3.922   6.220
 9707WAT     H129363   5.425   3.957   6.275
 9707WAT     H229364   5.325   3.830   6.251
 9708WAT      O29365   0.140   3.235   5.234
 9708WAT     H129366   0.147   3.148   5.283
 9708WAT     H229367   0.191   3.229   5.148
 9709WAT      O29368   5.371   0.913   8.148
 9709WAT     H129369   5.346   0.942   8.241
 9709WAT     H229370   5.461   0.950   8.125
 9710WAT      O29371   4.739   4.055   8.800
 9710WAT     H129372   4.741   4.009   8.712
 9710WAT     H229373   4.832   4.068   8.834
 9711WAT      O29374   5.500   8.624   3.349
 9711WAT     H129375   5.463   8.705   3.394
 9711WAT     H229376   5.595   8.611   3.378
 9712WAT      O29377   2.673   9.284   4.382
 9712WAT     H129378   2.741   9.345   4.342
 9712WAT     H229379   2.629   9.330   4.460
 9713WAT      O29380   2.180   5.050   8.627
 9713WAT     H129381   2.263   5.082   8.581
 9713WAT     H229382   2.200   4.965   8.676
 9714WAT      O29383   3.227   0.604   4.049
 9714WAT     H129384   3.197   0.655   4.129
 9714WAT     H229385   3.287   0.529   4.077
 9715WAT      O29386   4.668   7.552   6.890
 9715WAT     H129387   4.610   7.475   6.867
 9715WAT     H229388   4.714   7.535   6.977
 9716WAT      O29389   5.052   6.234   5.356
 9716WAT     H129390   5.148   6.261   5.352
 9716WAT     H229391   5.045   6.135   5.374
 9717WAT      O29392   0.446   7.790   3.433
 9717WAT     H129393   0.465   7.851   3.356
 9717WAT     H229394   0.361   7.741   3.417
 9718WAT      O29395   6.660   8.879   2.396
 9718WAT     H129396   6.755   8.894   2.422
 9718WAT     H229397   6.614   8.825   2.466
 9719WAT      O29398   3.912   9.036   2.406
 9719WAT     H129399   4.009   9.038   2.430
 9719WAT     H229400   3.903   9.029   2.307
 9720WAT      O29401   2.808   3.355   5.467
 9720WAT     H129402   2.828   3.263   5.435
 9720WAT     H229403   2.887   3.415   5.449
 9721WAT      O29404   2.182   4.002   9.492
 9721WAT     H129405   2.209   4.036   9.402
 9721WAT     H229406   2.252   4.026   9.559
 9722WAT      O29407   5.005   2.125   1.643
 9722WAT     H129408   5.089   2.136   1.698
 9722WAT     H229409   4.936   2.079   1.698
 9723WAT      O29410   0.659   6.300   5.853
 9723WAT     H129411   0.748   6.300   5.809
 9723WAT     H229412   0.593   6.251   5.796
 9724WAT      O29413   5.150   6.182   4.770
 9724WAT     H129414   5.071   6.121   4.775
 9724WAT     H229415   5.234   6.128   4.777
 9725WAT      O29416   3.822   3.945   1.588
 9725WAT     H129417   3.853   3.852   1.606
 9725WAT     H229418   3.767   3.977   1.665
 9726WAT      O29419   2.171   4.768   7.961
 9726WAT     H129420   2.109   4.829   7.913
 9726WAT     H229421   2.143   4.673   7.946
 9727WAT      O29422   3.458   2.145   4.892
 9727WAT     H129423   3.528   2.213   4.867
 9727WAT     H229424   3.473   2.115   4.986
 9728WAT      O29425   1.632   5.294   9.506
 9728WAT     H129426   1.674   5.383   9.486
 9728WAT     H229427   1.546   5.286   9.456
 9729WAT      O29428   5.950   6.147   2.796
 9729WAT     H129429   6.044   6.149   2.764
 9729WAT     H229430   5.922   6.239   2.824
 9730WAT      O29431   4.187   3.037   1.295
 9730WAT     H129432   4.153   3.029   1.201
 9730WAT     H229433   4.117   3.005   1.358
 9731WAT      O29434   9.774   5.814   2.741
 9731WAT     H129435   9.859   5.803   2.793
 9731WAT     H229436   9.705   5.752   2.778
 9732WAT      O29437   2.896   6.904   2.420
 9732WAT     H129438   2.827   6.967   2.385
 9732WAT     H229439   2.938   6.942   2.501
 9733WAT      O29440   6.180   3.681   7.614
 9733WAT     H129441   6.174   3.745   7.537
 9733WAT     H229442   6.150   3.590   7.584
 9734WAT      O29443   2.054   8.136   6.966
 9734WAT     H129444   2.021   8.043   6.984
 9734WAT     H229445   2.103   8.138   6.879
 9735WAT      O29446   4.183   4.326   9.176
 9735WAT     H129447   4.205   4.422   9.193
 9735WAT     H229448   4.257   4.284   9.124
 9736WAT      O29449   5.703   0.335   4.572
 9736WAT     H129450   5.605   0.322   4.553
 9736WAT     H229451   5.756   0.268   4.520
 9737WAT      O29452   6.799   7.008   9.714
 9737WAT     H129453   6.861   6.932   9.698
 9737WAT     H229454   6.840   7.071   9.781
 9738WAT      O29455   7.686   1.687   2.155
 9738WAT     H129456   7.638   1.762   2.110
 9738WAT     H229457   7.636   1.602   2.142
 9739WAT      O29458   4.423   4.194   1.861
 9739WAT     H129459   4.397   4.277   1.910
 9739WAT     H229460   4.523   4.190   1.855
 9740WAT      O29461   3.099   1.136   7.358
 9740WAT     H129462   3.123   1.202   7.287
 9740WAT     H229463   3.003   1.145   7.382
 9741WAT      O29464   5.200   9.737   0.869
 9741WAT     H129465   5.108   9.717   0.835
 9741WAT     H229466   5.265   9.671   0.831
 9742WAT      O29467   4.804   6.922   8.452
 9742WAT     H129468   4.833   6.827   8.442
 9742WAT     H229469   4.828   6.955   8.543
 9743WAT      O29470   3.398   5.893   2.348
 9743WAT     H129471   3.469   5.937   2.293
 9743WAT     H229472   3.398   5.794   2.330
 9744WAT      O29473   6.665   8.987   1.305
 9744WAT     H129474   6.664   9.083   1.278
 9744WAT     H229475   6.607   8.934   1.243
 9745WAT      O29476   6.214   3.078   0.555
 9745WAT     H129477   6.209   3.097   0.653
 9745WAT     H229478   6.159   3.145   0.505
 9746WAT      O29479   5.189   3.757   8.909
 9746WAT     H129480   5.106   3.768   8.854
 9746WAT     H229481   5.201   3.660   8.930
 9747WAT      O29482   9.093   4.734   7.082
 9747WAT     H129483   9.035   4.815   7.067
 9747WAT     H229484   9.042   4.667   7.136
 9748WAT      O29485   5.288   9.346   0.060
 9748WAT     H129486   5.353   9.353  -0.015
 9748WAT     H229487   5.295   9.255   0.102
 9749WAT      O29488   3.330   1.517   6.541
 9749WAT     H129489   3.381   1.602   6.523
 9749WAT     H229490   3.359   1.447   6.476
 9750WAT      O29491   0.283   5.970   9.762
 9750WAT     H129492   0.232   5.935   9.841
 9750WAT     H229493   0.276   5.905   9.687
 9751WAT      O29494   3.533   4.486   8.708
 9751WAT     H129495   3.528   4.387   8.696
 9751WAT     H229496   3.591   4.507   8.787
 9752WAT      O29497   0.838   4.227   7.131
 9752WAT     H129498   0.934   4.252   7.120
 9752WAT     H229499   0.779   4.301   7.097
 9753WAT      O29500   4.113   5.595   6.776
 9753WAT     H129501   4.162   5.617   6.692
 9753WAT     H229502   4.158   5.518   6.822
 9754WAT      O29503   8.254   3.908   2.138
 9754WAT     H129504   8.350   3.883   2.150
 9754WAT     H229505   8.245   3.963   2.055
 9755WAT      O29506   0.611   1.564   1.409
 9755WAT     H129507   0.580   1.642   1.463
 9755WAT     H229508   0.616   1.483   1.468
 9756WAT      O29509   6.987   3.847   8.901
 9756WAT     H129510   7.020   3.904   8.825
 9756WAT     H229511   6.950   3.906   8.973
 9757WAT      O29512   8.130   8.138   9.433
 9757WAT     H129513   8.055   8.097   9.381
 9757WAT     H229514   8.093   8.208   9.494
 9758WAT      O29515   2.705   2.702   5.124
 9758WAT     H129516   2.775   2.725   5.192
 9758WAT     H229517   2.743   2.711   5.032
 9759WAT      O29518   9.806   6.197   6.447
 9759WAT     H129519   9.710   6.199   6.421
 9759WAT     H229520   9.822   6.261   6.521
 9760WAT      O29521   0.325   7.932   5.782
 9760WAT     H129522   0.376   7.906   5.864
 9760WAT     H229523   0.279   8.020   5.798
 9761WAT      O29524   0.503   7.974   3.231
 9761WAT     H129525   0.582   7.920   3.200
 9761WAT     H229526   0.536   8.057   3.277
 9762WAT      O29527   6.433   5.203   9.411
 9762WAT     H129528   6.355   5.222   9.471
 9762WAT     H229529   6.482   5.122   9.445
 9763WAT      O29530   1.098   7.448   2.729
 9763WAT     H129531   1.032   7.381   2.693
 9763WAT     H229532   1.049   7.523   2.772
 9764WAT      O29533   9.050   4.399   3.182
 9764WAT     H129534   9.090   4.350   3.260
 9764WAT     H229535   9.109   4.476   3.158
 9765WAT      O29536   3.558   4.258   3.169
 9765WAT     H129537   3.494   4.189   3.136
 9765WAT     H229538   3.512   4.346   3.177
 9766WAT      O29539   5.708   9.025   7.598
 9766WAT     H129540   5.673   9.100   7.654
 9766WAT     H229541   5.642   8.950   7.598
 9767WAT      O29542   3.155   8.467   1.926
 9767WAT     H129543   3.057   8.475   1.911
 9767WAT     H229544   3.204   8.525   1.862
 9768WAT      O29545   5.557   5.976   8.171
 9768WAT     H129546   5.592   5.901   8.226
 9768WAT     H229547   5.567   6.062   8.221
 9769WAT      O29548   3.964   3.010   0.540
 9769WAT     H129549   3.914   2.924   0.545
 9769WAT     H229550   3.967   3.052   0.631
 9770WAT      O29551   2.075   2.555   6.142
 9770WAT     H129552   2.083   2.634   6.082
 9770WAT     H229553   2.119   2.574   6.229
 9771WAT      O29554   2.218   8.877   1.043
 9771WAT     H129555   2.231   8.808   0.973
 9771WAT     H229556   2.307   8.902   1.082
 9772WAT      O29557   0.153   3.875   0.306
 9772WAT     H129558   0.251   3.877   0.325
 9772WAT     H229559   0.138   3.901   0.211
 9773WAT      O29560   0.645   9.687   7.733
 9773WAT     H129561   0.677   9.774   7.769
 9773WAT     H229562   0.698   9.662   7.652
 9774WAT      O29563   9.525   2.931   8.264
 9774WAT     H129564   9.446   2.906   8.208
 9774WAT     H229565   9.564   3.017   8.229
 9775WAT      O29566   2.757   9.434   9.381
 9775WAT     H129567   2.731   9.525   9.349
 9775WAT     H229568   2.728   9.365   9.314
 9776WAT      O29569   8.975   1.958   6.168
 9776WAT     H129570   9.060   1.991   6.126
 9776WAT     H229571   8.990   1.945   6.266
 9777WAT      O29572   1.079   2.499   4.561
 9777WAT     H129573   1.092   2.584   4.510
 9777WAT     H229574   1.158   2.484   4.621
 9778WAT      O29575   5.880   9.744   2.035
 9778WAT     H129576   5.872   9.645   2.034
 9778WAT     H229577   5.969   9.772   1.999
 9779WAT      O29578   8.488   4.281   7.624
 9779WAT     H129579   8.561   4.316   7.565
 9779WAT     H229580   8.466   4.349   7.694
 9780WAT      O29581   2.781   0.278   4.594
 9780WAT     H129582   2.866   0.330   4.587
 9780WAT     H229583   2.802   0.180   4.600
 9781WAT      O29584   5.099   2.893   9.315
 9781WAT     H129585   5.066   2.936   9.399
 9781WAT     H229586   5.148   2.809   9.338
 9782WAT      O29587   6.912   1.730   6.034
 9782WAT     H129588   6.867   1.798   6.091
 9782WAT     H229589   6.865   1.723   5.946
 9783WAT      O29590   9.074   5.581   0.421
 9783WAT     H129591   9.077   5.662   0.363
 9783WAT     H229592   9.085   5.608   0.517
 9784WAT      O29593   1.546   4.233   9.251
 9784WAT     H129594   1.481   4.169   9.291
 9784WAT     H229595   1.522   4.250   9.155
 9785WAT      O29596   6.553   5.733   3.072
 9785WAT     H129597   6.528   5.781   3.156
 9785WAT     H229598   6.471   5.694   3.030
 9786WAT      O29599   6.852   5.772   4.715
 9786WAT     H129600   6.783   5.776   4.788
 9786WAT     H229601   6.810   5.795   4.628
 9787WAT      O29602   0.740   0.351   2.998
 9787WAT     H129603   0.683   0.269   3.003
 9787WAT     H229604   0.832   0.325   2.967
 9788WAT      O29605   7.916   4.494   4.147
 9788WAT     H129606   7.923   4.592   4.165
 9788WAT     H229607   7.859   4.479   4.066
 9789WAT      O29608   1.377   4.713   3.086
 9789WAT     H129609   1.389   4.764   3.171
 9789WAT     H229610   1.304   4.754   3.032
 9790WAT      O29611   1.677   9.171   9.577
 9790WAT     H129612   1.711   9.091   9.627
 9790WAT     H229613   1.577   9.172   9.580
 9791WAT      O29614   8.794   6.496   4.197
 9791WAT     H129615   8.853   6.573   4.173
 9791WAT     H229616   8.832   6.448   4.276
 9792WAT      O29617   7.423   7.282   8.502
 9792WAT     H129618   7.340   7.324   8.536
 9792WAT     H229619   7.401   7.216   8.431
 9793WAT      O29620   6.227   4.961   0.897
 9793WAT     H129621   6.321   4.992   0.910
 9793WAT     H229622   6.226   4.880   0.838
 9794WAT      O29623   8.393   8.516   7.420
 9794WAT     H129624   8.415   8.533   7.324
 9794WAT     H229625   8.314   8.572   7.446
 9795WAT      O29626   8.687   2.464   9.801
 9795WAT     H129627   8.675   2.524   9.722
 9795WAT     H229628   8.766   2.495   9.854
 9796WAT      O29629   2.998   2.528   6.405
 9796WAT     H129630   2.909   2.525   6.451
 9796WAT     H229631   3.040   2.618   6.421
 9797WAT      O29632   7.820   1.269   0.908
 9797WAT     H129633   7.802   1.226   0.820
 9797WAT     H229634   7.735   1.275   0.960
 9798WAT      O29635   1.581   1.501   7.321
 9798WAT     H129636   1.627   1.446   7.251
 9798WAT     H229637   1.637   1.581   7.343
 9799WAT      O29638   9.681   1.489   2.097
 9799WAT     H129639   9.717   1.425   2.164
 9799WAT     H229640   9.748   1.562   2.081
 9800WAT      O29641   8.945   2.849   5.807
 9800WAT     H129642   9.004   2.833   5.887
 9800WAT     H229643   8.992   2.908   5.742
 9801WAT      O29644   7.610   8.013   1.095
 9801WAT     H129645   7.656   7.937   1.049
 9801WAT     H229646   7.615   8.094   1.038
 9802WAT      O29647   0.665   2.126   3.120
 9802WAT     H129648   0.672   2.217   3.160
 9802WAT     H229649   0.756   2.087   3.109
 9803WAT      O29650   2.074   4.258   3.675
 9803WAT     H129651   2.062   4.312   3.759
 9803WAT     H229652   2.075   4.161   3.698
 9804WAT      O29653   5.625   3.948   8.779
 9804WAT     H129654   5.649   3.893   8.699
 9804WAT     H229655   5.704   3.954   8.840
 9805WAT      O29656   8.486   6.158   6.090
 9805WAT     H129657   8.455   6.072   6.132
 9805WAT     H229658   8.426   6.232   6.120
 9806WAT      O29659   0.976   4.754   5.391
 9806WAT     H129660   0.916   4.740   5.469
 9806WAT     H229661   0.938   4.710   5.310
 9807WAT      O29662   4.367   1.610   1.793
 9807WAT     H129663   4.461   1.606   1.760
 9807WAT     H229664   4.310   1.656   1.724
 9808WAT      O29665   6.151   9.662   8.061
 9808WAT     H129666   6.228   9.661   8.125
 9808WAT     H229667   6.171   9.603   7.983
 9809WAT      O29668   1.339   3.523   0.830
 9809WAT     H129669   1.247   3.547   0.800
 9809WAT     H229670   1.346   3.536   0.929
 9810WAT      O29671   1.996   0.213   1.292
 9810WAT     H129672   1.948   0.291   1.333
 9810WAT     H229673   1.949   0.187   1.208
 9811WAT      O29674   6.369   8.084   6.108
 9811WAT     H129675   6.294   8.018   6.110
 9811WAT     H229676   6.410   8.091   6.199
 9812WAT      O29677   7.815   9.597   7.351
 9812WAT     H129678   7.832   9.506   7.389
 9812WAT     H229679   7.894   9.656   7.367
 9813WAT      O29680   2.789   3.484   7.779
 9813WAT     H129681   2.823   3.394   7.805
 9813WAT     H229682   2.711   3.508   7.837
 9814WAT      O29683   7.453   5.843   2.345
 9814WAT     H129684   7.534   5.813   2.394
 9814WAT     H229685   7.384   5.876   2.410
 9815WAT      O29686   3.612   6.318   6.389
 9815WAT     H129687   3.551   6.245   6.420
 9815WAT     H229688   3.640   6.374   6.467
 9816WAT      O29689   4.594   7.631   8.325
 9816WAT     H129690   4.508   7.673   8.295
 9816WAT     H229691   4.605   7.542   8.281
 9817WAT      O29692   8.552   4.718   8.384
 9817WAT     H129693   8.555   4.707   8.483
 9817WAT     H229694   8.645   4.711   8.347
 9818WAT      O29695   3.062   1.335   3.732
 9818WAT     H129696   3.025   1.320   3.823
 9818WAT     H229697   3.159   1.314   3.732
 9819WAT      O29698   1.204   5.297   4.747
 9819WAT     H129699   1.197   5.199   4.732
 9819WAT     H229700   1.175   5.345   4.664
 9820WAT      O29701   9.025   0.274   5.040
 9820WAT     H129702   8.985   0.186   5.016
 9820WAT     H229703   8.960   0.347   5.022
 9821WAT      O29704   0.756   6.494   5.651
 9821WAT     H129705   0.688   6.471   5.581
 9821WAT     H229706   0.743   6.588   5.682
 9822WAT      O29707   8.838   6.783   4.711
 9822WAT     H129708   8.800   6.769   4.620
 9822WAT     H229709   8.764   6.787   4.778
 9823WAT      O29710   1.936   4.129   6.995
 9823WAT     H129711   2.017   4.147   6.939
 9823WAT     H229712   1.960   4.134   7.092
 9824WAT      O29713   9.688   1.438   1.359
 9824WAT     H129714   9.596   1.474   1.378
 9824WAT     H229715   9.691   1.401   1.266
 9825WAT      O29716   1.024   0.774   7.144
 9825WAT     H129717   1.113   0.817   7.135
 9825WAT     H229718   1.013   0.736   7.235
 9826WAT      O29719   5.265   1.752   1.565
 9826WAT     H129720   5.228   1.836   1.525
 9826WAT     H229721   5.193   1.706   1.617
 9827WAT      O29722   6.278   0.361   7.841
 9827WAT     H129723   6.278   0.460   7.828
 9827WAT     H229724   6.214   0.337   7.915
 9828WAT      O29725   0.607   0.152   4.446
 9828WAT     H129726   0.620   0.091   4.367
 9828WAT     H229727   0.571   0.099   4.523
 9829WAT      O29728   8.761   2.880   2.427
 9829WAT     H129729   8.727   2.972   2.446
 9829WAT     H229730   8.730   2.817   2.498
 9830WAT      O29731   0.812   5.744   6.487
 9830WAT     H129732   0.798   5.662   6.543
 9830WAT     H229733   0.899   5.736   6.438
 9831WAT      O29734   2.702   9.421   3.212
 9831WAT     H129735   2.785   9.409   3.158
 9831WAT     H229736   2.687   9.340   3.268
 9832WAT      O29737   5.388   7.810   7.107
 9832WAT     H129738   5.404   7.789   7.204
 9832WAT     H229739   5.434   7.896   7.084
 9833WAT      O29740   1.928   0.598   1.179
 9833WAT     H129741   1.898   0.628   1.269
 9833WAT     H229742   2.019   0.557   1.186
 9834WAT      O29743   9.245   6.577   6.450
 9834WAT     H129744   9.182   6.654   6.435
 9834WAT     H229745   9.295   6.590   6.535
 9835WAT      O29746   0.797   2.568   0.330
 9835WAT     H129747   0.843   2.647   0.289
 9835WAT     H229748   0.706   2.557   0.289
 9836WAT      O29749   9.759   3.423   8.692
 9836WAT     H129750   9.785   3.464   8.779
 9836WAT     H229751   9.771   3.324   8.697
 9837WAT      O29752   9.564   7.481   7.434
 9837WAT     H129753   9.624   7.503   7.356
 9837WAT     H229754   9.594   7.395   7.476
 9838WAT      O29755   5.314   2.011   0.055
 9838WAT     H129756   5.271   1.969  -0.026
 9838WAT     H229757   5.253   2.001   0.133
 9839WAT      O29758   2.016   8.017   8.769
 9839WAT     H129759   2.055   8.077   8.838
 9839WAT     H229760   2.024   8.060   8.679
 9840WAT      O29761   9.706   9.424   7.610
 9840WAT     H129762   9.748   9.443   7.521
 9840WAT     H229763   9.718   9.328   7.633
 9841WAT      O29764   5.488   5.866   0.378
 9841WAT     H129765   5.453   5.912   0.297
 9841WAT     H229766   5.547   5.928   0.429
 9842WAT      O29767   3.748   2.485   4.648
 9842WAT     H129768   3.717   2.566   4.696
 9842WAT     H229769   3.848   2.482   4.649
 9843WAT      O29770   7.311   0.452   3.721
 9843WAT     H129771   7.279   0.528   3.778
 9843WAT     H229772   7.254   0.372   3.737
 9844WAT      O29773   4.121   4.835   0.855
 9844WAT     H129774   4.079   4.910   0.905
 9844WAT     H229775   4.172   4.871   0.777
 9845WAT      O29776   4.202   6.620   7.869
 9845WAT     H129777   4.182   6.578   7.780
 9845WAT     H229778   4.120   6.619   7.926
 9846WAT      O29779   9.792   7.086   2.623
 9846WAT     H129780   9.872   7.140   2.649
 9846WAT     H229781   9.804   6.992   2.655
 9847WAT      O29782   7.393   6.409   5.382
 9847WAT     H129783   7.437   6.357   5.309
 9847WAT     H229784   7.396   6.357   5.467
 9848WAT      O29785   4.400   8.451   7.400
 9848WAT     H129786   4.313   8.496   7.424
 9848WAT     H229787   4.392   8.353   7.417
 9849WAT      O29788   3.477   9.477   1.307
 9849WAT     H129789   3.430   9.407   1.254
 9849WAT     H229790   3.410   9.530   1.360
 9850WAT      O29791   4.757   8.697   9.331
 9850WAT     H129792   4.791   8.791   9.334
 9850WAT     H229793   4.777   8.658   9.241
 9851WAT      O29794   2.575   3.226   3.023
 9851WAT     H129795   2.481   3.241   3.054
 9851WAT     H229796   2.638   3.279   3.081
 9852WAT      O29797   2.924   1.786   0.560
 9852WAT     H129798   2.856   1.725   0.519
 9852WAT     H229799   2.887   1.824   0.645
 9853WAT      O29800   2.058   7.091   9.260
 9853WAT     H129801   1.972   7.126   9.298
 9853WAT     H229802   2.039   7.019   9.194
 9854WAT      O29803   3.026   3.550   6.110
 9854WAT     H129804   2.951   3.484   6.114
 9854WAT     H229805   3.059   3.557   6.016
 9855WAT      O29806   8.086   8.470   6.467
 9855WAT     H129807   8.016   8.450   6.536
 9855WAT     H229808   8.087   8.568   6.447
 9856WAT      O29809   4.283   3.739   1.931
 9856WAT     H129810   4.189   3.720   1.902
 9856WAT     H229811   4.312   3.672   1.999
 9857WAT      O29812   9.340   7.999   8.615
 9857WAT     H129813   9.343   7.957   8.706
 9857WAT     H229814   9.377   7.936   8.548
 9858WAT      O29815   9.668   1.146   4.588
 9858WAT     H129816   9.604   1.198   4.531
 9858WAT     H229817   9.698   1.064   4.538
 9859WAT      O29818   6.361   1.778   9.213
 9859WAT     H129819   6.426   1.754   9.140
 9859WAT     H229820   6.316   1.864   9.191
 9860WAT      O29821   8.176   6.150   4.117
 9860WAT     H129822   8.263   6.103   4.132
 9860WAT     H229823   8.192   6.249   4.119
 9861WAT      O29824   4.610   5.174   6.961
 9861WAT     H129825   4.587   5.266   6.993
 9861WAT     H229826   4.648   5.180   6.868
 9862WAT      O29827   9.168   3.054   7.384
 9862WAT     H129828   9.140   3.150   7.384
 9862WAT     H229829   9.266   3.047   7.400
 9863WAT      O29830   5.016   6.825   0.085
 9863WAT     H129831   5.097   6.883   0.089
 9863WAT     H229832   4.961   6.840   0.167
 9864WAT      O29833   7.636   6.096   9.702
 9864WAT     H129834   7.549   6.077   9.747
 9864WAT     H229835   7.710   6.051   9.752
 9865WAT      O29836   5.675   8.766   0.583
 9865WAT     H129837   5.580   8.744   0.606
 9865WAT     H229838   5.683   8.780   0.485
 9866WAT      O29839   8.867   7.662   9.822
 9866WAT     H129840   8.799   7.717   9.772
 9866WAT     H229841   8.832   7.642   9.914
 9867WAT      O29842   1.876   3.146   4.716
 9867WAT     H129843   1.915   3.113   4.802
 9867WAT     H229844   1.782   3.113   4.708
 9868WAT      O29845   1.294   6.419   8.550
 9868WAT     H129846   1.265   6.358   8.624
 9868WAT     H229847   1.362   6.483   8.585
 9869WAT      O29848   1.573   1.078   2.535
 9869WAT     H129849   1.537   1.106   2.625
 9869WAT     H229850   1.519   1.001   2.501
 9870WAT      O29851   6.633   7.089   2.560
 9870WAT     H129852   6.678   7.015   2.611
 9870WAT     H229853   6.587   7.050   2.479
 9871WAT      O29854   6.862   2.178   6.291
 9871WAT     H129855   6.911   2.166   6.204
 9871WAT     H229856   6.883   2.102   6.352
 9872WAT      O29857   1.967   0.952   2.740
 9872WAT     H129858   2.020   0.904   2.810
 9872WAT     H229859   1.882   0.985   2.780
 9873WAT      O29860   5.080   5.488   3.663
 9873WAT     H129861   4.981   5.500   3.674
 9873WAT     H229862   5.105   5.395   3.689
 9874WAT      O29863   0.584   9.210   3.395
 9874WAT     H129864   0.581   9.230   3.297
 9874WAT     H229865   0.498   9.170   3.424
 9875WAT      O29866   5.769   9.295   2.164
 9875WAT     H129867   5.867   9.276   2.165
 9875WAT     H229868   5.723   9.239   2.233
 9876WAT      O29869   7.446   6.406   8.066
 9876WAT     H129870   7.510   6.350   8.117
 9876WAT     H229871   7.427   6.490   8.117
 9877WAT      O29872   4.155   9.523   1.501
 9877WAT     H129873   4.073   9.553   1.454
 9877WAT     H229874   4.236   9.554   1.451
 9878WAT      O29875   2.137   0.310   4.843
 9878WAT     H129876   2.197   0.363   4.902
 9878WAT     H229877   2.185   0.228   4.811
 9879WAT      O29878   3.131   7.949   2.889
 9879WAT     H129879   3.134   8.028   2.828
 9879WAT     H229880   3.088   7.975   2.975
 9880WAT      O29881   4.777   3.869   5.077
 9880WAT     H129882   4.834   3.852   5.158
 9880WAT     H229883   4.747   3.782   5.038
 9881WAT      O29884   3.559   4.512   1.185
 9881WAT     H129885   3.573   4.605   1.218
 9881WAT     H229886   3.493   4.465   1.244
 9882WAT      O29887   7.800   8.154   6.997
 9882WAT     H129888   7.819   8.100   7.079
 9882WAT     H229889   7.883   8.203   6.970
 9883WAT      O29890   8.139   2.105   6.982
 9883WAT     H129891   8.049   2.073   6.951
 9883WAT     H229892   8.166   2.184   6.927
 9884WAT      O29893   9.023   5.277   8.264
 9884WAT     H129894   9.056   5.231   8.346
 9884WAT     H229895   8.935   5.320   8.283
 9885WAT      O29896   3.776   5.725   0.101
 9885WAT     H129897   3.697   5.738   0.161
 9885WAT     H229898   3.839   5.659   0.142
 9886WAT      O29899   8.060   3.736   2.390
 9886WAT     H129900   8.072   3.832   2.415
 9886WAT     H229901   8.142   3.685   2.415
 9887WAT      O29902   1.072   5.815   5.413
 9887WAT     H129903   1.036   5.764   5.335
 9887WAT     H229904   1.097   5.751   5.486
 9888WAT      O29905   0.848   8.477   5.242
 9888WAT     H129906   0.828   8.404   5.308
 9888WAT     H229907   0.790   8.465   5.161
 9889WAT      O29908   9.326   4.849   7.765
 9889WAT     H129909   9.365   4.918   7.704
 9889WAT     H229910   9.350   4.870   7.859
 9890WAT      O29911   9.870   4.259   6.723
 9890WAT     H129912   9.807   4.303   6.658
 9890WAT     H229913   9.915   4.182   6.678
 9891WAT      O29914   9.581   1.766   4.014
 9891WAT     H129915   9.623   1.853   4.041
 9891WAT     H229916   9.598   1.748   3.917
 9892WAT      O29917   1.182   7.934   1.735
 9892WAT     H129918   1.100   7.876   1.726
 9892WAT     H229919   1.264   7.877   1.728
 9893WAT      O29920   9.353   4.597   1.179
 9893WAT     H129921   9.403   4.671   1.224
 9893WAT     H229922   9.267   4.581   1.228
 9894WAT      O29923   8.214   3.537   1.016
 9894WAT     H129924   8.262   3.490   0.942
 9894WAT     H229925   8.195   3.631   0.989
 9895WAT      O29926   2.842   1.038   9.680
 9895WAT     H129927   2.757   1.064   9.635
 9895WAT     H229928   2.881   0.958   9.635
 9896WAT      O29929   6.754   8.076   7.301
 9896WAT     H129930   6.659   8.046   7.306
 9896WAT     H229931   6.767   8.136   7.222
 9897WAT      O29932   6.784   6.937   6.833
 9897WAT     H129933   6.873   6.981   6.848
 9897WAT     H229934   6.780   6.900   6.741
 9898WAT      O29935   9.673   9.786   2.403
 9898WAT     H129936   9.707   9.746   2.318
 9898WAT     H229937   9.628   9.716   2.458
 9899WAT      O29938   3.062   3.936   6.570
 9899WAT     H129939   3.129   3.958   6.640
 9899WAT     H229940   3.109   3.912   6.485
 9900WAT      O29941   5.254   4.822   9.106
 9900WAT     H129942   5.279   4.755   9.176
 9900WAT     H229943   5.331   4.837   9.044
 9901WAT      O29944   8.570   9.128   7.671
 9901WAT     H129945   8.471   9.139   7.672
 9901WAT     H229946   8.596   9.060   7.602
 9902WAT      O29947   0.749   0.033   9.093
 9902WAT     H129948   0.689   0.038   9.014
 9902WAT     H229949   0.761  -0.062   9.121
 9903WAT      O29950   5.238   6.096   3.404
 9903WAT     H129951   5.252   5.997   3.398
 9903WAT     H229952   5.239   6.135   3.311
 9904WAT      O29953   2.101   7.516   6.894
 9904WAT     H129954   2.096   7.588   6.824
 9904WAT     H229955   2.131   7.430   6.852
 9905WAT      O29956   0.819   4.803   0.481
 9905WAT     H129957   0.827   4.711   0.518
 9905WAT     H229958   0.901   4.825   0.428
 9906WAT      O29959   7.630   7.974   5.152
 9906WAT     H129960   7.588   8.030   5.080
 9906WAT     H229961   7.563   7.957   5.225
 9907WAT      O29962   3.461   4.341   5.724
 9907WAT     H129963   3.514   4.297   5.797
 9907WAT     H229964   3.364   4.338   5.747
 9908WAT      O29965   5.783   1.679   5.961
 9908WAT     H129966   5.805   1.665   5.864
 9908WAT     H229967   5.779   1.590   6.007
 9909WAT      O29968   5.137   2.490   0.644
 9909WAT     H129969   5.225   2.506   0.599
 9909WAT     H229970   5.146   2.414   0.708
 9910WAT      O29971   7.901   5.722   5.601
 9910WAT     H129972   7.976   5.670   5.560
 9910WAT     H229973   7.890   5.696   5.697
 9911WAT      O29974   6.490   6.967   0.365
 9911WAT     H129975   6.508   6.916   0.281
 9911WAT     H229976   6.416   7.032   0.350
 9912WAT      O29977   1.212   0.354   7.467
 9912WAT     H129978   1.226   0.268   7.516
 9912WAT     H229979   1.190   0.426   7.532
 9913WAT      O29980   9.596   2.799   0.167
 9913WAT     H129981   9.628   2.735   0.096
 9913WAT     H229982   9.505   2.832   0.142
 9914WAT      O29983   7.310   3.879   6.505
 9914WAT     H129984   7.357   3.912   6.424
 9914WAT     H229985   7.216   3.915   6.506
 9915WAT      O29986   6.037   9.213   3.091
 9915WAT     H129987   5.985   9.138   3.050
 9915WAT     H229988   6.086   9.180   3.172
 9916WAT      O29989   3.486   5.221   3.578
 9916WAT     H129990   3.518   5.127   3.567
 9916WAT     H229991   3.462   5.237   3.673
 9917WAT      O29992   6.513   4.179   9.774
 9917WAT     H129993   6.470   4.103   9.724
 9917WAT     H229994   6.452   4.208   9.848
 9918WAT      O29995   3.485   3.238   0.444
 9918WAT     H129996   3.497   3.274   0.351
 9918WAT     H229997   3.388   3.222   0.461
 9919WAT      O29998   7.950   1.811   7.770
 9919WAT     H129999   7.970   1.713   7.760
 9919WAT     H230000   8.035   1.862   7.778
 9920WAT      O30001   6.254   5.403   4.261
 9920WAT     H130002   6.341   5.452   4.260
 9920WAT     H230003   6.209   5.412   4.172
 9921WAT      O30004   2.812   6.199   5.043
 9921WAT     H130005   2.805   6.129   4.973
 9921WAT     H230006   2.863   6.277   5.008
 9922WAT      O30007   5.099   2.791   0.667
 9922WAT     H130008   5.194   2.820   0.681
 9922WAT     H230009   5.097   2.692   0.651
 9923WAT      O30010   1.843   3.862   9.816
 9923WAT     H130011   1.824   3.906   9.728
 9923WAT     H230012   1.930   3.896   9.851
 9924WAT      O30013   3.076   8.571   0.384
 9924WAT     H130014   3.066   8.656   0.332
 9924WAT     H230015   3.010   8.569   0.459
 9925WAT      O30016   2.295   6.906   7.830
 9925WAT     H130017   2.330   6.987   7.784
 9925WAT     H230018   2.330   6.904   7.924
 9926WAT      O30019   1.606   4.832   2.998
 9926WAT     H130020   1.577   4.923   3.027
 9926WAT     H230021   1.531   4.767   3.012
 9927WAT      O30022   8.950   8.895   2.172
 9927WAT     H130023   8.942   8.957   2.093
 9927WAT     H230024   9.036   8.915   2.221
 9928WAT      O30025   7.597   0.808   7.845
 9928WAT     H130026   7.665   0.773   7.780
 9928WAT     H230027   7.524   0.855   7.795
 9929WAT      O30028   6.587   2.099   3.916
 9929WAT     H130029   6.613   2.185   3.873
 9929WAT     H230030   6.669   2.044   3.933
 9930WAT      O30031   0.066   5.539   3.525
 9930WAT     H130032   0.012   5.518   3.606
 9930WAT     H230033   0.123   5.619   3.543
 9931WAT      O30034   8.262   1.836   8.747
 9931WAT     H130035   8.253   1.750   8.696
 9931WAT     H230036   8.188   1.898   8.721
 9932WAT      O30037   8.569   0.862   4.111
 9932WAT     H130038   8.494   0.901   4.163
 9932WAT     H230039   8.534   0.793   4.048
 9933WAT      O30040   7.632   6.436   5.851
 9933WAT     H130041   7.542   6.478   5.851
 9933WAT     H230042   7.624   6.341   5.820
 9934WAT      O30043   9.169   7.164   0.043
 9934WAT     H130044   9.076   7.146   0.013
 9934WAT     H230045   9.230   7.090   0.013
 9935WAT      O30046   5.014   9.407   9.538
 9935WAT     H130047   5.055   9.494   9.509
 9935WAT     H230048   4.938   9.425   9.600
 9936WAT      O30049   4.106   3.597   0.547
 9936WAT     H130050   4.142   3.553   0.629
 9936WAT     H230051   4.067   3.686   0.572
 9937WAT      O30052   5.373   3.971   7.163
 9937WAT     H130053   5.468   3.973   7.132
 9937WAT     H230054   5.359   4.040   7.234
 9938WAT      O30055   3.269   9.369   4.397
 9938WAT     H130056   3.232   9.288   4.443
 9938WAT     H230057   3.283   9.442   4.463
 9939WAT      O30058   8.804   6.738   5.423
 9939WAT     H130059   8.800   6.726   5.324
 9939WAT     H230060   8.874   6.676   5.461
 9940WAT      O30061   5.946   6.591   1.989
 9940WAT     H130062   5.965   6.535   1.909
 9940WAT     H230063   6.013   6.571   2.061
 9941WAT      O30064   0.341   2.242   9.272
 9941WAT     H130065   0.272   2.206   9.334
 9941WAT     H230066   0.296   2.282   9.192
 9942WAT      O30067   2.965   8.128   5.638
 9942WAT     H130068   2.926   8.171   5.719
 9942WAT     H230069   2.895   8.123   5.566
 9943WAT      O30070   2.171   0.497   0.663
 9943WAT     H130071   2.123   0.481   0.749
 9943WAT     H230072   2.262   0.534   0.683
 9944WAT      O30073   4.842   5.726   3.730
 9944WAT     H130074   4.820   5.632   3.755
 9944WAT     H230075   4.803   5.747   3.640
 9945WAT      O30076   1.824   4.595   5.415
 9945WAT     H130077   1.889   4.633   5.480
 9945WAT     H230078   1.756   4.540   5.464
 9946WAT      O30079   5.586   1.597   4.552
 9946WAT     H130080   5.616   1.529   4.619
 9946WAT     H230081   5.651   1.601   4.476
 9947WAT      O30082   1.917   2.656   8.533
 9947WAT     H130083   1.837   2.608   8.495
 9947WAT     H230084   1.890   2.748   8.561
 9948WAT      O30085   9.148   9.790   6.183
 9948WAT     H130086   9.104   9.725   6.245
 9948WAT     H230087   9.196   9.860   6.236
 9949WAT      O30088   4.237   0.741   2.559
 9949WAT     H130089   4.262   0.793   2.477
 9949WAT     H230090   4.140   0.716   2.553
 9950WAT      O30091   7.620   0.049   8.683
 9950WAT     H130092   7.555   0.087   8.617
 9950WAT     H230093   7.703   0.105   8.685
 9951WAT      O30094   6.968   1.035   9.347
 9951WAT     H130095   6.899   0.986   9.294
 9951WAT     H230096   6.933   1.125   9.372
 9952WAT      O30097   8.659   7.785   3.304
 9952WAT     H130098   8.691   7.714   3.367
 9952WAT     H230099   8.623   7.863   3.356
 9953WAT      O30100   3.186   9.079   3.423
 9953WAT     H130101   3.262   9.090   3.360
 9953WAT     H230102   3.205   9.005   3.487
 9954WAT      O30103   8.395   7.305   1.389
 9954WAT     H130104   8.487   7.267   1.375
 9954WAT     H230105   8.327   7.236   1.368
 9955WAT      O30106   1.225   4.412   5.483
 9955WAT     H130107   1.232   4.504   5.520
 9955WAT     H230108   1.185   4.416   5.391
 9956WAT      O30109   3.534   3.698   3.063
 9956WAT     H130110   3.474   3.636   3.014
 9956WAT     H230111   3.552   3.662   3.155
 9957WAT      O30112   5.452   0.831   2.562
 9957WAT     H130113   5.447   0.918   2.611
 9957WAT     H230114   5.497   0.844   2.474
 9958WAT      O30115   5.567   8.190   6.201
 9958WAT     H130116   5.524   8.156   6.118
 9958WAT     H230117   5.591   8.287   6.190
 9959WAT      O30118   5.632   1.554   9.027
 9959WAT     H130119   5.681   1.559   9.114
 9959WAT     H230120   5.534   1.547   9.045
 9960WAT      O30121   6.183   6.284   7.217
 9960WAT     H130122   6.143   6.260   7.306
 9960WAT     H230123   6.226   6.374   7.224
 9961WAT      O30124   5.692   2.989   3.481
 9961WAT     H130125   5.684   2.917   3.550
 9961WAT     H230126   5.610   2.991   3.424
 9962WAT      O30127   9.607   5.438   2.732
 9962WAT     H130128   9.684   5.482   2.685
 9962WAT     H230129   9.597   5.344   2.698
 9963WAT      O30130   0.225   1.292   3.596
 9963WAT     H130131   0.282   1.221   3.555
 9963WAT     H230132   0.132   1.259   3.605
 9964WAT      O30133   6.754   2.007   3.383
 9964WAT     H130134   6.749   2.066   3.302
 9964WAT     H230135   6.662   1.992   3.420
 9965WAT      O30136   1.300   3.914   0.764
 9965WAT     H130137   1.351   3.994   0.796
 9965WAT     H230138   1.364   3.851   0.719
 9966WAT      O30139   2.141   7.725   4.066
 9966WAT     H130140   2.195   7.647   4.094
 9966WAT     H230141   2.173   7.759   3.978
 9967WAT      O30142   7.781   6.457   3.672
 9967WAT     H130143   7.684   6.451   3.696
 9967WAT     H230144   7.818   6.364   3.662
 9968WAT      O30145   1.014   0.120   1.672
 9968WAT     H130146   1.105   0.149   1.643
 9968WAT     H230147   1.005   0.131   1.771
 9969WAT      O30148   2.758   0.965   8.037
 9969WAT     H130149   2.757   1.052   7.988
 9969WAT     H230150   2.715   0.895   7.981
 9970WAT      O30151   9.068   3.391   9.098
 9970WAT     H130152   9.016   3.320   9.051
 9970WAT     H230153   9.019   3.478   9.090
 9971WAT      O30154   5.876   7.733   4.518
 9971WAT     H130155   5.785   7.694   4.505
 9971WAT     H230156   5.877   7.828   4.484
 9972WAT      O30157   4.373   0.214   8.896
 9972WAT     H130158   4.348   0.127   8.938
 9972WAT     H230159   4.416   0.197   8.807
 9973WAT      O30160   1.537   0.818   0.273
 9973WAT     H130161   1.593   0.767   0.208
 9973WAT     H230162   1.511   0.905   0.233
 9974WAT      O30163   2.206   4.568   1.672
 9974WAT     H130164   2.115   4.592   1.638
 9974WAT     H230165   2.204   4.474   1.707
 9975WAT      O30166   9.670   5.282   0.899
 9975WAT     H130167   9.598   5.304   0.965
 9975WAT     H230168   9.654   5.332   0.814
 9976WAT      O30169   8.044   7.064   2.475
 9976WAT     H130170   8.007   7.131   2.539
 9976WAT     H230171   8.135   7.094   2.444
 9977WAT      O30172   5.061   8.970   5.214
 9977WAT     H130173   4.979   9.016   5.181
 9977WAT     H230174   5.142   9.010   5.172
 9978WAT      O30175   8.041   8.567   5.756
 9978WAT     H130176   8.041   8.467   5.759
 9978WAT     H230177   8.133   8.600   5.777
 9979WAT      O30178   4.143   1.475   9.401
 9979WAT     H130179   4.180   1.412   9.332
 9979WAT     H230180   4.043   1.478   9.394
 9980WAT      O30181   2.473   6.332   5.367
 9980WAT     H130182   2.514   6.310   5.278
 9980WAT     H230183   2.378   6.300   5.368
 9981WAT      O30184   7.643   3.485   7.557
 9981WAT     H130185   7.636   3.404   7.616
 9981WAT     H230186   7.739   3.506   7.541
 9982WAT      O30187   7.925   0.074   9.282
 9982WAT     H130188   8.018   0.089   9.248
 9982WAT     H230189   7.860   0.081   9.206
 9983WAT      O30190   9.447   2.343   2.856
 9983WAT     H130191   9.371   2.406   2.874
 9983WAT     H230192   9.532   2.395   2.851
 9984WAT      O30193   8.989   1.938   0.913
 9984WAT     H130194   9.024   2.020   0.959
 9984WAT     H230195   8.931   1.964   0.837
 9985WAT      O30196   5.339   8.030   9.640
 9985WAT     H130197   5.366   7.942   9.602
 9985WAT     H230198   5.388   8.045   9.726
 9986WAT      O30199   5.983   6.974   8.248
 9986WAT     H130200   5.948   6.921   8.171
 9986WAT     H230201   5.943   7.066   8.246
 9987WAT      O30202   1.339   2.863   7.554
 9987WAT     H130203   1.289   2.943   7.587
 9987WAT     H230204   1.404   2.833   7.624
 9988WAT      O30205   0.772   3.343   4.286
 9988WAT     H130206   0.730   3.254   4.301
 9988WAT     H230207   0.822   3.343   4.200
 9989WAT      O30208   0.239   0.642   6.374
 9989WAT     H130209   0.219   0.739   6.360
 9989WAT     H230210   0.234   0.594   6.286
 9990WAT      O30211   6.511   1.582   8.441
 9990WAT     H130212   6.566   1.501   8.461
 9990WAT     H230213   6.572   1.661   8.433
 9991WAT      O30214   7.267   2.417   4.148
 9991WAT     H130215   7.167   2.423   4.141
 9991WAT     H230216   7.291   2.348   4.217
 9992WAT      O30217   3.728   8.067   8.630
 9992WAT     H130218   3.775   7.984   8.602
 9992WAT     H230219   3.727   8.073   8.730
 9993WAT      O30220   2.811   1.803   1.628
 9993WAT     H130221   2.870   1.788   1.707
 9993WAT     H230222   2.862   1.786   1.544
 9994WAT      O30223   0.982   0.124   5.463
 9994WAT     H130224   0.969   0.027   5.483
 9994WAT     H230225   0.947   0.179   5.538
 9995WAT      O30226   2.861   6.475   6.045
 9995WAT     H130227   2.931   6.417   6.003
 9995WAT     H230228   2.886   6.495   6.140
 9996WAT      O30229   5.250   4.676   8.411
 9996WAT     H130230   5.319   4.635   8.351
 9996WAT     H230231   5.179   4.608   8.430
 9997WAT      O30232   6.988   9.105   7.019
 9997WAT     H130233   6.987   9.070   6.926
 9997WAT     H230234   7.045   9.187   7.023
 9998WAT      O30235   6.892   3.820   6.136
 9998WAT     H130236   6.883   3.769   6.222
 9998WAT     H230237   6.989   3.831   6.114
 9999WAT      O30238   3.319   8.525   7.379
 9999WAT     H130239   3.338   8.459   7.452
 9999WAT     H230240   3.307   8.476   7.293
10000WAT      O30241   7.221   7.984   3.268
10000WAT     H130242   7.280   8.030   3.334
10000WAT     H230243   7.202   8.045   3.191
10001WAT      O30244   5.342   3.787   2.283
10001WAT     H130245   5.295   3.713   2.234
10001WAT     H230246   5.388   3.846   2.217
10002WAT      O30247   1.139   7.291   3.060
10002WAT     H130248   1.223   7.336   3.089
10002WAT     H230249   1.160   7.209   3.008
10003WAT      O30250   6.791   8.310   9.363
10003WAT     H130251   6.704   8.267   9.339
10003WAT     H230252   6.827   8.359   9.284
10004WAT      O30253   4.972   1.829   9.134
10004WAT     H130254   5.037   1.768   9.179
10004WAT     H230255   5.014   1.869   9.052
10005WAT      O30256   4.094   2.175   1.027
10005WAT     H130257   4.140   2.086   1.022
10005WAT     H230258   4.146   2.243   0.975
10006WAT      O30259   7.128   3.609   7.714
10006WAT     H130260   7.125   3.658   7.802
10006WAT     H230261   7.193   3.533   7.720
10007WAT      O30262   0.613   3.088   5.341
10007WAT     H130263   0.561   3.172   5.325
10007WAT     H230264   0.587   3.019   5.273
10008WAT      O30265   9.271   9.606   4.428
10008WAT     H130266   9.225   9.614   4.516
10008WAT     H230267   9.208   9.568   4.360
10009WAT      O30268   2.198   2.833   0.234
10009WAT     H130269   2.256   2.881   0.299
10009WAT     H230270   2.162   2.898   0.167
10010WAT      O30271   6.135   1.353   8.631
10010WAT     H130272   6.165   1.366   8.725
10010WAT     H230273   6.041   1.387   8.621
10011WAT      O30274   6.797   0.737   3.196
10011WAT     H130275   6.850   0.803   3.250
10011WAT     H230276   6.715   0.782   3.160
10012WAT      O30277   4.238   3.994   8.906
10012WAT     H130278   4.308   3.925   8.926
10012WAT     H230279   4.274   4.084   8.929
10013WAT      O30280   4.160   6.097   4.430
10013WAT     H130281   4.229   6.066   4.495
10013WAT     H230282   4.155   6.197   4.433
10014WAT      O30283   0.474   5.789   6.221
10014WAT     H130284   0.494   5.887   6.213
10014WAT     H230285   0.559   5.739   6.235
10015WAT      O30286   2.161   5.497   4.232
10015WAT     H130287   2.242   5.554   4.250
10015WAT     H230288   2.191   5.406   4.202
10016WAT      O30289   0.432   1.991   3.340
10016WAT     H130290   0.449   1.913   3.400
10016WAT     H230291   0.456   1.965   3.246
10017WAT      O30292   3.261   5.446   1.544
10017WAT     H130293   3.207   5.430   1.626
10017WAT     H230294   3.212   5.509   1.484
10018WAT      O30295   3.035   0.899   0.572
10018WAT     H130296   2.994   0.854   0.493
10018WAT     H230297   2.969   0.901   0.647
10019WAT      O30298   0.626   3.722   9.474
10019WAT     H130299   0.553   3.666   9.437
10019WAT     H230300   0.600   3.819   9.471
10020WAT      O30301   2.521   4.199   4.319
10020WAT     H130302   2.524   4.106   4.356
10020WAT     H230303   2.614   4.226   4.292
10021WAT      O30304   6.930   8.912   1.317
10021WAT     H130305   6.975   8.924   1.228
10021WAT     H230306   6.836   8.945   1.311
10022WAT      O30307   8.102   0.505   0.749
10022WAT     H130308   8.006   0.519   0.771
10022WAT     H230309   8.159   0.545   0.821
10023WAT      O30310   8.683   9.599   3.930
10023WAT     H130311   8.701   9.600   3.832
10023WAT     H230312   8.610   9.663   3.952
10024WAT      O30313   6.918   7.092   1.781
10024WAT     H130314   6.936   7.102   1.683
10024WAT     H230315   6.944   6.999   1.810
10025WAT      O30316   1.111   0.227   9.724
10025WAT     H130317   1.209   0.208   9.711
10025WAT     H230318   1.060   0.192   9.645
10026WAT      O30319   2.504   8.675   7.584
10026WAT     H130320   2.504   8.591   7.529
10026WAT     H230321   2.454   8.747   7.535
10027WAT      O30322   8.729   9.014   4.191
10027WAT     H130323   8.788   9.033   4.113
10027WAT     H230324   8.644   8.970   4.160
10028WAT      O30325   9.371   8.656   2.839
10028WAT     H130326   9.409   8.606   2.917
10028WAT     H230327   9.274   8.673   2.854
10029WAT      O30328   0.281   9.753   2.218
10029WAT     H130329   0.277   9.799   2.129
10029WAT     H230330   0.258   9.656   2.206
10030WAT      O30331   7.703   8.126   4.292
10030WAT     H130332   7.641   8.082   4.227
10030WAT     H230333   7.782   8.163   4.242
10031WAT      O30334   9.577   1.272   6.035
10031WAT     H130335   9.492   1.316   6.007
10031WAT     H230336   9.654   1.312   5.986
10032WAT      O30337   4.658   3.550   2.701
10032WAT     H130338   4.594   3.615   2.660
10032WAT     H230339   4.748   3.561   2.659
10033WAT      O30340   1.609   4.078   2.612
10033WAT     H130341   1.676   4.056   2.541
10033WAT     H230342   1.597   4.000   2.673
10034WAT      O30343   1.875   2.854   2.024
10034WAT     H130344   1.776   2.855   2.040
10034WAT     H230345   1.919   2.800   2.096
10035WAT      O30346   4.174   1.606   1.262
10035WAT     H130347   4.155   1.682   1.200
10035WAT     H230348   4.088   1.573   1.302
10036WAT      O30349   0.804   4.615   5.185
10036WAT     H130350   0.711   4.577   5.182
10036WAT     H230351   0.829   4.650   5.095
10037WAT      O30352   5.874   8.063   6.134
10037WAT     H130353   5.864   7.998   6.058
10037WAT     H230354   5.805   8.043   6.203
10038WAT      O30355   2.368   9.645   8.817
10038WAT     H130356   2.372   9.737   8.778
10038WAT     H230357   2.460   9.613   8.837
10039WAT      O30358   8.119   6.127   4.864
10039WAT     H130359   8.084   6.057   4.802
10039WAT     H230360   8.188   6.088   4.924
10040WAT      O30361   3.421   2.026   5.176
10040WAT     H130362   3.334   2.069   5.154
10040WAT     H230363   3.408   1.958   5.248
10041WAT      O30364   8.526   6.722   4.152
10041WAT     H130365   8.469   6.750   4.229
10041WAT     H230366   8.601   6.788   4.140
10042WAT      O30367   9.090   9.431   6.489
10042WAT     H130368   9.036   9.443   6.572
10042WAT     H230369   9.054   9.491   6.417
10043WAT      O30370   8.242   9.644   4.342
10043WAT     H130371   8.293   9.558   4.339
10043WAT     H230372   8.146   9.626   4.360
10044WAT      O30373   8.969   9.619   6.338
10044WAT     H130374   8.940   9.593   6.246
10044WAT     H230375   8.889   9.644   6.392
10045WAT      O30376   5.565   1.063   3.936
10045WAT     H130377   5.623   1.142   3.954
10045WAT     H230378   5.583   1.029   3.843
10046WAT      O30379   3.118   5.527   8.095
10046WAT     H130380   3.084   5.582   8.019
10046WAT     H230381   3.075   5.557   8.180
10047WAT      O30382   2.825   5.179   7.548
10047WAT     H130383   2.791   5.210   7.637
10047WAT     H230384   2.915   5.218   7.531
10048WAT      O30385   4.688   0.852   4.012
10048WAT     H130386   4.633   0.882   4.090
10048WAT     H230387   4.657   0.899   3.929
10049WAT      O30388   6.648   5.959   4.226
10049WAT     H130389   6.653   5.994   4.320
10049WAT     H230390   6.703   5.876   4.217
10050WAT      O30391   0.818   4.709   7.564
10050WAT     H130392   0.802   4.727   7.661
10050WAT     H230393   0.887   4.772   7.529
10051WAT      O30394   8.251   5.048   8.213
10051WAT     H130395   8.208   4.996   8.287
10051WAT     H230396   8.182   5.072   8.145
10052WAT      O30397   7.443   9.138   2.653
10052WAT     H130398   7.532   9.095   2.644
10052WAT     H230399   7.386   9.085   2.717
10053WAT      O30400   1.784   9.354   1.418
10053WAT     H130401   1.855   9.424   1.427
10053WAT     H230402   1.742   9.338   1.507
10054WAT      O30403   8.363   5.586   4.037
10054WAT     H130404   8.294   5.657   4.044
10054WAT     H230405   8.403   5.568   4.127
10055WAT      O30406   6.207   9.736   0.263
10055WAT     H130407   6.131   9.678   0.233
10055WAT     H230408   6.282   9.678   0.297
10056WAT      O30409   8.614   7.250   4.703
10056WAT     H130410   8.572   7.333   4.742
10056WAT     H230411   8.702   7.274   4.662
10057WAT      O30412   7.058   5.536   0.057
10057WAT     H130413   7.077   5.455   0.113
10057WAT     H230414   7.138   5.557   0.001
10058WAT      O30415   0.069   8.435   2.198
10058WAT     H130416  -0.017   8.445   2.247
10058WAT     H230417   0.053   8.450   2.100
10059WAT      O30418   7.310   9.668   8.499
10059WAT     H130419   7.352   9.577   8.491
10059WAT     H230420   7.338   9.725   8.422
10060WAT      O30421   9.152   8.611   2.352
10060WAT     H130422   9.193   8.595   2.442
10060WAT     H230423   9.185   8.543   2.287
10061WAT      O30424   2.337   5.276   3.796
10061WAT     H130425   2.263   5.252   3.859
10061WAT     H230426   2.410   5.207   3.801
10062WAT      O30427   1.969   8.044   7.312
10062WAT     H130428   1.871   8.025   7.299
10062WAT     H230429   2.001   8.001   7.396
10063WAT      O30430   8.051   3.726   2.115
10063WAT     H130431   8.127   3.788   2.102
10063WAT     H230432   8.042   3.704   2.213
10064WAT      O30433   7.501   0.708   9.118
10064WAT     H130434   7.442   0.788   9.105
10064WAT     H230435   7.543   0.684   9.030
10065WAT      O30436   2.241   3.965   4.448
10065WAT     H130437   2.298   3.884   4.441
10065WAT     H230438   2.299   4.045   4.464
10066WAT      O30439   1.690   4.186   7.906
10066WAT     H130440   1.611   4.167   7.848
10066WAT     H230441   1.715   4.103   7.956
10067WAT      O30442   5.694   8.383   9.286
10067WAT     H130443   5.739   8.414   9.201
10067WAT     H230444   5.608   8.338   9.263
10068WAT      O30445   4.862   9.403   3.758
10068WAT     H130446   4.911   9.344   3.821
10068WAT     H230447   4.872   9.499   3.787
10069WAT      O30448   1.055   1.494   7.771
10069WAT     H130449   1.095   1.406   7.799
10069WAT     H230450   0.975   1.478   7.713
10070WAT      O30451   7.425   0.169   7.716
10070WAT     H130452   7.453   0.074   7.703
10070WAT     H230453   7.360   0.195   7.644
10071WAT      O30454   3.502   5.148   2.628
10071WAT     H130455   3.485   5.228   2.686
10071WAT     H230456   3.547   5.177   2.544
10072WAT      O30457   1.578   2.722   8.204
10072WAT     H130458   1.530   2.771   8.131
10072WAT     H230459   1.569   2.772   8.290
10073WAT      O30460   0.454   1.472   8.547
10073WAT     H130461   0.418   1.484   8.455
10073WAT     H230462   0.480   1.377   8.562
10074WAT      O30463   7.021   9.678   4.115
10074WAT     H130464   6.923   9.699   4.120
10074WAT     H230465   7.041   9.598   4.171
10075WAT      O30466   9.610   0.071   9.763
10075WAT     H130467   9.673  -0.003   9.785
10075WAT     H230468   9.604   0.082   9.663
10076WAT      O30469   1.304   3.385   1.253
10076WAT     H130470   1.236   3.448   1.289
10076WAT     H230471   1.372   3.437   1.200
10077WAT      O30472   9.192   7.484   2.879
10077WAT     H130473   9.186   7.558   2.812
10077WAT     H230474   9.165   7.398   2.836
10078WAT      O30475   5.125   0.768   4.243
10078WAT     H130476   5.068   0.686   4.247
10078WAT     H230477   5.180   0.767   4.160
10079WAT      O30478   7.855   1.046   6.044
10079WAT     H130479   7.913   0.971   6.075
10079WAT     H230480   7.862   1.122   6.109
10080WAT      O30481   4.697   7.759   4.396
10080WAT     H130482   4.673   7.663   4.411
10080WAT     H230483   4.717   7.802   4.484
10081WAT      O30484   7.233   0.697   4.141
10081WAT     H130485   7.259   0.785   4.102
10081WAT     H230486   7.195   0.711   4.233
10082WAT      O30487   5.012   6.026   2.704
10082WAT     H130488   4.932   5.969   2.689
10082WAT     H230489   5.005   6.109   2.649
10083WAT      O30490   6.859   8.748   7.603
10083WAT     H130491   6.868   8.678   7.674
10083WAT     H230492   6.776   8.800   7.617
10084WAT      O30493   9.891   9.196   2.981
10084WAT     H130494   9.840   9.238   2.906
10084WAT     H230495   9.906   9.099   2.961
10085WAT      O30496   7.345   7.851   9.859
10085WAT     H130497   7.320   7.769   9.807
10085WAT     H230498   7.295   7.930   9.823
10086WAT      O30499   7.565   3.138   9.877
10086WAT     H130500   7.531   3.091   9.958
10086WAT     H230501   7.535   3.090   9.795
10087WAT      O30502   3.529   5.984   8.320
10087WAT     H130503   3.552   5.961   8.225
10087WAT     H230504   3.612   6.008   8.370
10088WAT      O30505   7.940   6.093   5.926
10088WAT     H130506   7.987   6.164   5.873
10088WAT     H230507   7.993   6.009   5.924
10089WAT      O30508   7.134   0.633   9.559
10089WAT     H130509   7.137   0.725   9.518
10089WAT     H230510   7.049   0.588   9.530
10090WAT      O30511   8.599   8.152   9.304
10090WAT     H130512   8.601   8.071   9.363
10090WAT     H230513   8.640   8.130   9.216
10091WAT      O30514   3.975   2.145   3.997
10091WAT     H130515   4.048   2.148   3.929
10091WAT     H230516   3.948   2.050   4.013
10092WAT      O30517   7.221   1.103   4.429
10092WAT     H130518   7.153   1.161   4.474
10092WAT     H230519   7.280   1.159   4.371
10093WAT      O30520   6.425   1.274   9.363
10093WAT     H130521   6.337   1.318   9.378
10093WAT     H230522   6.497   1.328   9.408
10094WAT      O30523   9.776   7.032   1.449
10094WAT     H130524   9.854   7.057   1.506
10094WAT     H230525   9.691   7.056   1.496
10095WAT      O30526   1.326   4.071   9.027
10095WAT     H130527   1.396   4.138   9.006
10095WAT     H230528   1.321   4.003   8.953
10096WAT      O30529   6.005   0.625   2.658
10096WAT     H130530   6.038   0.613   2.564
10096WAT     H230531   6.081   0.621   2.722
10097WAT      O30532   8.540   5.570   0.704
10097WAT     H130533   8.462   5.514   0.678
10097WAT     H230534   8.563   5.633   0.629
10098WAT      O30535   5.724   8.965   9.316
10098WAT     H130536   5.658   8.894   9.342
10098WAT     H230537   5.701   9.050   9.364
10099WAT      O30538   2.451   5.936   7.370
10099WAT     H130539   2.469   5.904   7.277
10099WAT     H230540   2.513   5.890   7.434
10100WAT      O30541   5.458   7.412   8.772
10100WAT     H130542   5.416   7.414   8.863
10100WAT     H230543   5.449   7.320   8.733
10101WAT      O30544   6.532   7.361   6.192
10101WAT     H130545   6.595   7.290   6.223
10101WAT     H230546   6.584   7.439   6.156
10102WAT      O30547   7.764   6.108   4.743
10102WAT     H130548   7.673   6.096   4.783
10102WAT     H230549   7.812   6.181   4.792
10103WAT      O30550   8.980   7.127   5.692
10103WAT     H130551   8.884   7.145   5.672
10103WAT     H230552   9.016   7.060   5.627
10104WAT      O30553   0.265   3.898   2.111
10104WAT     H130554   0.262   3.989   2.152
10104WAT     H230555   0.335   3.843   2.157
10105WAT      O30556   0.557   2.692   3.895
10105WAT     H130557   0.468   2.710   3.936
10105WAT     H230558   0.547   2.683   3.796
10106WAT      O30559   1.811   4.234   4.132
10106WAT     H130560   1.842   4.323   4.097
10106WAT     H230561   1.807   4.168   4.056
10107WAT      O30562   9.149   7.728   9.254
10107WAT     H130563   9.112   7.801   9.311
10107WAT     H230564   9.223   7.682   9.303
10108WAT      O30565   5.247   7.904   2.792
10108WAT     H130566   5.174   7.918   2.860
10108WAT     H230567   5.336   7.917   2.835
10109WAT      O30568   6.385   0.384   3.144
10109WAT     H130569   6.403   0.382   3.045
10109WAT     H230570   6.469   0.361   3.193
10110WAT      O30571   8.626   5.854   0.240
10110WAT     H130572   8.596   5.874   0.147
10110WAT     H230573   8.661   5.938   0.282
10111WAT      O30574   2.228   8.892   1.673
10111WAT     H130575   2.155   8.934   1.727
10111WAT     H230576   2.288   8.840   1.733
10112WAT      O30577   5.962   1.486   6.941
10112WAT     H130578   5.935   1.398   6.902
10112WAT     H230579   6.062   1.494   6.940
10113WAT      O30580   4.166   6.785   6.093
10113WAT     H130581   4.077   6.793   6.048
10113WAT     H230582   4.204   6.695   6.073
10114WAT      O30583   8.542   9.192   1.827
10114WAT     H130584   8.531   9.288   1.801
10114WAT     H230585   8.556   9.186   1.926
10115WAT      O30586   3.323   0.082   5.637
10115WAT     H130587   3.353  -0.011   5.658
10115WAT     H230588   3.231   0.079   5.598
10116WAT      O30589   5.951   5.520   4.188
10116WAT     H130590   5.863   5.472   4.194
10116WAT     H230591   6.018   5.463   4.141
10117WAT      O30592   6.605   8.507   6.444
10117WAT     H130593   6.652   8.565   6.511
10117WAT     H230594   6.655   8.508   6.358
10118WAT      O30595   4.630   2.886   9.652
10118WAT     H130596   4.577   2.924   9.727
10118WAT     H230597   4.716   2.937   9.642
10119WAT      O30598   5.749   8.195   3.078
10119WAT     H130599   5.779   8.125   3.013
10119WAT     H230600   5.815   8.270   3.080
10120WAT      O30601   7.578   6.416   9.102
10120WAT     H130602   7.480   6.425   9.085
10120WAT     H230603   7.598   6.324   9.136
10121WAT      O30604   5.036   7.998   2.371
10121WAT     H130605   4.940   8.023   2.366
10121WAT     H230606   5.055   7.923   2.307
10122WAT      O30607   1.860   8.881   1.577
10122WAT     H130608   1.828   8.803   1.524
10122WAT     H230609   1.784   8.922   1.627
10123WAT      O30610   6.447   6.907   7.475
10123WAT     H130611   6.505   6.980   7.513
10123WAT     H230612   6.415   6.933   7.384
10124WAT      O30613   8.010   7.244   4.101
10124WAT     H130614   7.967   7.154   4.092
10124WAT     H230615   8.102   7.234   4.137
10125WAT      O30616   7.035   6.555   9.241
10125WAT     H130617   7.092   6.625   9.284
10125WAT     H230618   6.942   6.591   9.228
10126WAT      O30619   3.758   0.342   1.033
10126WAT     H130620   3.770   0.380   1.125
10126WAT     H230621   3.776   0.244   1.036
10127WAT      O30622   9.885   6.419   7.844
10127WAT     H130623   9.966   6.383   7.799
10127WAT     H230624   9.822   6.456   7.775
10128WAT      O30625   7.414   2.035   7.470
10128WAT     H130626   7.397   2.041   7.568
10128WAT     H230627   7.423   2.127   7.432
10129WAT      O30628   2.317   9.203   6.887
10129WAT     H130629   2.316   9.197   6.787
10129WAT     H230630   2.233   9.164   6.924
10130WAT      O30631   7.344   0.151   8.155
10130WAT     H130632   7.295   0.181   8.073
10130WAT     H230633   7.298   0.188   8.236
10131WAT      O30634   6.543   2.015   6.647
10131WAT     H130635   6.469   1.955   6.617
10131WAT     H230636   6.622   1.959   6.673
10132WAT      O30637   0.682   8.652   7.267
10132WAT     H130638   0.672   8.606   7.355
10132WAT     H230639   0.749   8.726   7.276
10133WAT      O30640   0.341   5.803   5.962
10133WAT     H130641   0.380   5.745   6.034
10133WAT     H230642   0.266   5.858   6.001
10134WAT      O30643   3.718   3.622   3.818
10134WAT     H130644   3.739   3.702   3.874
10134WAT     H230645   3.717   3.540   3.875
10135WAT      O30646   8.376   0.486   1.769
10135WAT     H130647   8.330   0.551   1.829
10135WAT     H230648   8.429   0.536   1.700
10136WAT      O30649   5.383   1.183   7.934
10136WAT     H130650   5.290   1.185   7.971
10136WAT     H230651   5.381   1.151   7.839
10137WAT      O30652   7.575   8.731   2.662
10137WAT     H130653   7.561   8.759   2.756
10137WAT     H230654   7.512   8.656   2.639
10138WAT      O30655   6.795   6.512   8.720
10138WAT     H130656   6.861   6.503   8.795
10138WAT     H230657   6.774   6.421   8.684
10139WAT      O30658   3.015   8.009   7.184
10139WAT     H130659   3.028   8.069   7.105
10139WAT     H230660   3.091   8.020   7.248
10140WAT      O30661   7.306   9.326   2.428
10140WAT     H130662   7.394   9.289   2.397
10140WAT     H230663   7.291   9.301   2.524
10141WAT      O30664   5.943   4.139   6.382
10141WAT     H130665   5.888   4.064   6.419
10141WAT     H230666   6.026   4.103   6.341
10142WAT      O30667   9.294   1.885   3.306
10142WAT     H130668   9.350   1.967   3.320
10142WAT     H230669   9.353   1.806   3.294
10143WAT      O30670   2.268   2.488   4.140
10143WAT     H130671   2.304   2.395   4.139
10143WAT     H230672   2.207   2.502   4.063
10144WAT      O30673   8.097   8.437   4.242
10144WAT     H130674   8.178   8.490   4.215
10144WAT     H230675   8.118   8.385   4.325
10145WAT      O30676   8.092   7.933   4.628
10145WAT     H130677   8.030   7.965   4.557
10145WAT     H230678   8.187   7.943   4.597
10146WAT      O30679   6.251   8.317   0.659
10146WAT     H130680   6.243   8.299   0.757
10146WAT     H230681   6.295   8.239   0.615
10147WAT      O30682   1.988   8.808   6.832
10147WAT     H130683   2.063   8.750   6.801
10147WAT     H230684   2.022   8.900   6.851
10148WAT      O30685   4.438   4.491   6.362
10148WAT     H130686   4.429   4.582   6.321
10148WAT     H230687   4.465   4.499   6.458
10149WAT      O30688   2.166   0.289   3.567
10149WAT     H130689   2.089   0.325   3.514
10149WAT     H230690   2.216   0.365   3.608
10150WAT      O30691   1.989   6.530   7.436
10150WAT     H130692   2.070   6.508   7.491
10150WAT     H230693   1.981   6.629   7.427
10151WAT      O30694   8.939   7.408   8.347
10151WAT     H130695   8.933   7.415   8.248
10151WAT     H230696   8.993   7.484   8.383
10152WAT      O30697   9.654   7.258   7.536
10152WAT     H130698   9.563   7.227   7.564
10152WAT     H230699   9.724   7.202   7.580
10153WAT      O30700   1.474   7.002   3.755
10153WAT     H130701   1.511   7.040   3.840
10153WAT     H230702   1.426   7.074   3.705
10154WAT      O30703   6.317   4.572   9.779
10154WAT     H130704   6.372   4.622   9.712
10154WAT     H230705   6.377   4.514   9.835
10155WAT      O30706   8.128   0.031   6.467
10155WAT     H130707   8.174  -0.023   6.396
10155WAT     H230708   8.175   0.019   6.554
10156WAT      O30709   4.966   9.746   5.222
10156WAT     H130710   5.034   9.819   5.220
10156WAT     H230711   4.989   9.681   5.295
10157WAT      O30712   6.255   0.913   2.984
10157WAT     H130713   6.303   0.957   3.060
10157WAT     H230714   6.242   0.980   2.910
10158WAT      O30715   6.222   4.223   0.565
10158WAT     H130716   6.221   4.274   0.651
10158WAT     H230717   6.282   4.271   0.499
10159WAT      O30718   9.367   4.220   4.579
10159WAT     H130719   9.274   4.196   4.607
10159WAT     H230720   9.365   4.298   4.518
10160WAT      O30721   8.596   2.268   6.293
10160WAT     H130722   8.658   2.225   6.227
10160WAT     H230723   8.579   2.204   6.369
10161WAT      O30724   2.865   5.191   0.254
10161WAT     H130725   2.871   5.108   0.198
10161WAT     H230726   2.902   5.268   0.203
10162WAT      O30727   0.010   4.476   0.004
10162WAT     H130728   0.088   4.464  -0.058
10162WAT     H230729   0.039   4.522   0.087
10163WAT      O30730   8.812   4.256   5.508
10163WAT     H130731   8.756   4.321   5.457
10163WAT     H230732   8.835   4.294   5.597
10164WAT      O30733   9.129   8.476   8.621
10164WAT     H130734   9.229   8.478   8.616
10164WAT     H230735   9.091   8.498   8.532
10165WAT      O30736   8.759   6.017   6.773
10165WAT     H130737   8.792   5.979   6.860
10165WAT     H230738   8.660   6.004   6.766
10166WAT      O30739   3.056   8.014   4.068
10166WAT     H130740   3.042   8.057   3.979
10166WAT     H230741   3.154   8.015   4.089
10167WAT      O30742   7.852   2.925   3.416
10167WAT     H130743   7.853   2.836   3.370
10167WAT     H230744   7.943   2.945   3.451
10168WAT      O30745   9.644   9.178   1.031
10168WAT     H130746   9.579   9.102   1.025
10168WAT     H230747   9.608   9.257   0.981
10169WAT      O30748   8.135   6.255   4.428
10169WAT     H130749   8.141   6.156   4.422
10169WAT     H230750   8.063   6.288   4.366
10170WAT      O30751   5.144   6.267   5.682
10170WAT     H130752   5.063   6.313   5.645
10170WAT     H230753   5.188   6.328   5.749
10171WAT      O30754   9.567   4.981   5.340
10171WAT     H130755   9.470   4.958   5.352
10171WAT     H230756   9.587   4.993   5.243
10172WAT      O30757   4.204   9.070   7.792
10172WAT     H130758   4.202   9.080   7.692
10172WAT     H230759   4.121   9.111   7.831
10173WAT      O30760   8.191   1.452   4.482
10173WAT     H130761   8.265   1.460   4.549
10173WAT     H230762   8.104   1.440   4.529
10174WAT      O30763   9.691   8.207   7.689
10174WAT     H130764   9.671   8.110   7.700
10174WAT     H230765   9.704   8.249   7.779
10175WAT      O30766   8.207   8.238   8.115
10175WAT     H130767   8.302   8.257   8.142
10175WAT     H230768   8.149   8.315   8.141
10176WAT      O30769   2.686   0.721   1.826
10176WAT     H130770   2.752   0.707   1.752
10176WAT     H230771   2.716   0.671   1.907
10177WAT      O30772   3.068   9.729   3.907
10177WAT     H130773   2.972   9.723   3.933
10177WAT     H230774   3.082   9.810   3.850
10178WAT      O30775   5.975   7.840   1.695
10178WAT     H130776   5.992   7.775   1.768
10178WAT     H230777   5.905   7.804   1.633
10179WAT      O30778   1.506   1.206   4.695
10179WAT     H130779   1.467   1.298   4.692
10179WAT     H230780   1.605   1.210   4.680
10180WAT      O30781   0.429   1.063   9.781
10180WAT     H130782   0.354   1.130   9.778
10180WAT     H230783   0.393   0.974   9.807
10181WAT      O30784   5.588   8.472   0.852
10181WAT     H130785   5.648   8.488   0.773
10181WAT     H230786   5.505   8.526   0.842
10182WAT      O30787   5.360   1.904   7.558
10182WAT     H130788   5.304   1.920   7.477
10182WAT     H230789   5.408   1.989   7.583
10183WAT      O30790   6.438   4.695   7.634
10183WAT     H130791   6.367   4.645   7.685
10183WAT     H230792   6.480   4.633   7.567
10184WAT      O30793   3.479   3.687   0.195
10184WAT     H130794   3.461   3.700   0.098
10184WAT     H230795   3.558   3.627   0.206
10185WAT      O30796   1.603   7.226   3.215
10185WAT     H130797   1.546   7.159   3.263
10185WAT     H230798   1.698   7.216   3.246
10186WAT      O30799   7.598   1.469   5.312
10186WAT     H130800   7.697   1.474   5.327
10186WAT     H230801   7.562   1.560   5.294
10187WAT      O30802   1.346   1.894   2.953
10187WAT     H130803   1.416   1.824   2.939
10187WAT     H230804   1.390   1.980   2.977
10188WAT      O30805   8.379   3.363   3.178
10188WAT     H130806   8.371   3.318   3.090
10188WAT     H230807   8.295   3.350   3.230
10189WAT      O30808   8.894   0.630   1.361
10189WAT     H130809   8.873   0.547   1.412
10189WAT     H230810   8.809   0.680   1.341
10190WAT      O30811   1.604   9.672   9.032
10190WAT     H130812   1.653   9.586   9.016
10190WAT     H230813   1.507   9.651   9.049
10191WAT      O30814   8.998   2.359   3.040
10191WAT     H130815   9.091   2.324   3.034
10191WAT     H230816   8.949   2.310   3.113
10192WAT      O30817   6.417   4.271   8.106
10192WAT     H130818   6.457   4.356   8.140
10192WAT     H230819   6.317   4.278   8.109
10193WAT      O30820   0.476   9.645   1.927
10193WAT     H130821   0.550   9.659   1.993
10193WAT     H230822   0.405   9.715   1.942
10194WAT      O30823   2.394   6.588   8.082
10194WAT     H130824   2.401   6.681   8.047
10194WAT     H230825   2.485   6.555   8.107
10195WAT      O30826   3.561   1.942   2.169
10195WAT     H130827   3.624   1.878   2.212
10195WAT     H230828   3.574   2.033   2.208
10196WAT      O30829   7.458   3.746   7.894
10196WAT     H130830   7.481   3.785   7.805
10196WAT     H230831   7.529   3.681   7.921
10197WAT      O30832   6.478   8.745   7.411
10197WAT     H130833   6.563   8.790   7.386
10197WAT     H230834   6.431   8.798   7.481
10198WAT      O30835   5.944   2.615   3.175
10198WAT     H130836   5.859   2.581   3.134
10198WAT     H230837   6.007   2.644   3.103
10199WAT      O30838   5.723   6.271   3.027
10199WAT     H130839   5.738   6.369   3.036
10199WAT     H230840   5.651   6.242   3.090
10200WAT      O30841   3.390   8.196   3.406
10200WAT     H130842   3.300   8.153   3.414
10200WAT     H230843   3.450   8.161   3.478
10201WAT      O30844   2.205   9.004   2.944
10201WAT     H130845   2.201   9.101   2.919
10201WAT     H230846   2.295   8.967   2.920
10202WAT      O30847   8.110   3.245   7.246
10202WAT     H130848   8.050   3.208   7.175
10202WAT     H230849   8.163   3.322   7.208
10203WAT      O30850   0.086   7.914   7.039
10203WAT     H130851   0.165   7.956   7.083
10203WAT     H230852   0.084   7.939   6.942
10204WAT      O30853   4.870   5.824   9.047
10204WAT     H130854   4.830   5.903   9.001
10204WAT     H230855   4.962   5.808   9.012
10205WAT      O30856   8.484   1.421   5.195
10205WAT     H130857   8.474   1.519   5.214
10205WAT     H230858   8.537   1.378   5.269
10206WAT      O30859   8.254   6.308   6.134
10206WAT     H130860   8.233   6.252   6.214
10206WAT     H230861   8.177   6.307   6.071
10207WAT      O30862   0.537   1.343   6.049
10207WAT     H130863   0.585   1.326   6.135
10207WAT     H230864   0.441   1.361   6.067
10208WAT      O30865   2.826   7.147   3.822
10208WAT     H130866   2.829   7.102   3.911
10208WAT     H230867   2.919   7.154   3.785
10209WAT      O30868   6.319   0.749   9.289
10209WAT     H130869   6.315   0.849   9.288
10209WAT     H230870   6.235   0.713   9.248
10210WAT      O30871   5.073   9.546   7.669
10210WAT     H130872   5.025   9.593   7.743
10210WAT     H230873   5.081   9.449   7.692
10211WAT      O30874   6.973   0.154   0.619
10211WAT     H130875   6.984   0.057   0.639
10211WAT     H230876   6.965   0.205   0.704
10212WAT      O30877   4.084   6.886   7.830
10212WAT     H130878   4.037   6.896   7.917
10212WAT     H230879   4.026   6.837   7.765
10213WAT      O30880   0.215   6.479   4.926
10213WAT     H130881   0.226   6.399   4.867
10213WAT     H230882   0.167   6.551   4.876
10214WAT      O30883   8.429   1.215   4.005
10214WAT     H130884   8.388   1.298   4.043
10214WAT     H230885   8.405   1.207   3.908
10215WAT      O30886   5.982   2.396   5.812
10215WAT     H130887   5.900   2.370   5.762
10215WAT     H230888   5.969   2.379   5.909
10216WAT      O30889   4.018   4.953   7.099
10216WAT     H130890   4.000   4.857   7.080
10216WAT     H230891   3.931   5.003   7.100
10217WAT      O30892   4.860   4.082   4.213
10217WAT     H130893   4.923   4.017   4.173
10217WAT     H230894   4.911   4.158   4.253
10218WAT      O30895   1.192   8.628   0.092
10218WAT     H130896   1.266   8.594   0.149
10218WAT     H230897   1.111   8.645   0.149
10219WAT      O30898   6.110   1.487   1.550
10219WAT     H130899   6.206   1.492   1.576
10219WAT     H230900   6.103   1.461   1.454
10220WAT      O30901   9.071   2.482   9.800
10220WAT     H130902   9.168   2.473   9.824
10220WAT     H230903   9.063   2.519   9.707
10221WAT      O30904   6.307   7.049   4.181
10221WAT     H130905   6.395   7.017   4.145
10221WAT     H230906   6.304   7.032   4.280
10222WAT      O30907   0.766   9.039   1.344
10222WAT     H130908   0.828   9.116   1.353
10222WAT     H230909   0.800   8.977   1.272
10223WAT      O30910   0.595   9.167   8.814
10223WAT     H130911   0.508   9.209   8.842
10223WAT     H230912   0.669   9.201   8.873
10224WAT      O30913   5.289   9.333   8.736
10224WAT     H130914   5.362   9.270   8.763
10224WAT     H230915   5.279   9.332   8.637
10225WAT      O30916   2.474   1.752   5.933
10225WAT     H130917   2.445   1.661   5.962
10225WAT     H230918   2.398   1.816   5.942
10226WAT      O30919   0.877   4.101   9.385
10226WAT     H130920   0.885   4.093   9.484
10226WAT     H230921   0.958   4.062   9.341
10227WAT      O30922   4.209   1.786   5.536
10227WAT     H130923   4.309   1.787   5.540
10227WAT     H230924   4.176   1.872   5.496
10228WAT      O30925   5.980   1.019   6.555
10228WAT     H130926   5.998   1.026   6.456
10228WAT     H230927   6.045   1.076   6.605
10229WAT      O30928   2.821   6.501   3.878
10229WAT     H130929   2.909   6.469   3.915
10229WAT     H230930   2.820   6.490   3.779
10230WAT      O30931   8.619   1.457   3.839
10230WAT     H130932   8.628   1.361   3.865
10230WAT     H230933   8.625   1.515   3.920
10231WAT      O30934   9.631   7.697   0.759
10231WAT     H130935   9.641   7.790   0.794
10231WAT     H230936   9.705   7.640   0.794
10232WAT      O30937   2.214   2.744   3.237
10232WAT     H130938   2.157   2.809   3.288
10232WAT     H230939   2.305   2.738   3.279
10233WAT      O30940   1.585   0.679   0.971
10233WAT     H130941   1.578   0.774   1.002
10233WAT     H230942   1.514   0.661   0.903
10234WAT      O30943   6.759   2.496   4.445
10234WAT     H130944   6.831   2.435   4.413
10234WAT     H230945   6.795   2.556   4.517
10235WAT      O30946   8.055   7.924   0.559
10235WAT     H130947   7.979   7.981   0.590
10235WAT     H230948   8.050   7.913   0.460
10236WAT      O30949   5.825   5.135   8.775
10236WAT     H130950   5.912   5.091   8.757
10236WAT     H230951   5.833   5.233   8.756
10237WAT      O30952   5.208   0.412   9.467
10237WAT     H130953   5.174   0.356   9.391
10237WAT     H230954   5.305   0.393   9.482
10238WAT      O30955   5.651   7.904   2.572
10238WAT     H130956   5.689   7.978   2.517
10238WAT     H230957   5.552   7.899   2.557
10239WAT      O30958   1.195   0.139   4.920
10239WAT     H130959   1.105   0.184   4.914
10239WAT     H230960   1.216   0.117   5.015
10240WAT      O30961   5.862   3.335   9.082
10240WAT     H130962   5.907   3.322   8.994
10240WAT     H230963   5.930   3.358   9.152
10241WAT      O30964   5.672   7.416   5.970
10241WAT     H130965   5.719   7.494   6.011
10241WAT     H230966   5.707   7.400   5.877
10242WAT      O30967   2.143   7.787   8.843
10242WAT     H130968   2.112   7.878   8.815
10242WAT     H230969   2.066   7.724   8.840
10243WAT      O30970   0.431   9.523   3.071
10243WAT     H130971   0.400   9.611   3.037
10243WAT     H230972   0.356   9.456   3.066
10244WAT      O30973   3.085   2.353   3.119
10244WAT     H130974   3.140   2.311   3.191
10244WAT     H230975   3.125   2.442   3.094
10245WAT      O30976   7.237   6.454   3.019
10245WAT     H130977   7.214   6.542   3.060
10245WAT     H230978   7.298   6.468   2.941
10246WAT      O30979   0.306   1.450   3.373
10246WAT     H130980   0.280   1.401   3.456
10246WAT     H230981   0.347   1.538   3.397
10247WAT      O30982   3.174   1.671   5.268
10247WAT     H130983   3.089   1.628   5.301
10247WAT     H230984   3.240   1.599   5.246
10248WAT      O30985   0.960   8.186   7.658
10248WAT     H130986   1.000   8.100   7.691
10248WAT     H230987   1.030   8.240   7.612
10249WAT      O30988   7.864   3.217   1.277
10249WAT     H130989   7.907   3.152   1.339
10249WAT     H230990   7.919   3.224   1.194
10250WAT      O30991   7.227   7.056   8.491
10250WAT     H130992   7.163   7.076   8.566
10250WAT     H230993   7.191   7.093   8.406
10251WAT      O30994   4.648   1.759   3.157
10251WAT     H130995   4.662   1.669   3.114
10251WAT     H230996   4.623   1.826   3.087
10252WAT      O30997   3.643   5.038   3.943
10252WAT     H130998   3.726   5.078   3.981
10252WAT     H230999   3.627   4.949   3.985
10253WAT      O31000   0.797   1.107   4.552
10253WAT     H131001   0.838   1.028   4.598
10253WAT     H231002   0.733   1.074   4.482
10254WAT      O31003   7.743   1.362   4.327
10254WAT     H131004   7.803   1.422   4.273
10254WAT     H231005   7.647   1.382   4.304
10255WAT      O31006   2.188   2.181   3.051
10255WAT     H131007   2.277   2.139   3.031
10255WAT     H231008   2.159   2.236   2.973
10256WAT      O31009   2.837   3.652   7.571
10256WAT     H131010   2.830   3.586   7.645
10256WAT     H231011   2.768   3.632   7.501
10257WAT      O31012   4.249   1.960   8.320
10257WAT     H131013   4.208   1.895   8.385
10257WAT     H231014   4.191   2.042   8.315
10258WAT      O31015   9.004   8.238   1.738
10258WAT     H131016   9.024   8.176   1.814
10258WAT     H231017   8.920   8.208   1.692
10259WAT      O31018   6.771   4.243   4.089
10259WAT     H131019   6.790   4.278   4.180
10259WAT     H231020   6.674   4.219   4.082
10260WAT      O31021   8.977   8.925   7.502
10260WAT     H131022   9.065   8.898   7.540
10260WAT     H231023   8.984   9.016   7.461
10261WAT      O31024   7.959   9.201   6.570
10261WAT     H131025   7.973   9.248   6.483
10261WAT     H231026   7.862   9.179   6.581
10262WAT      O31027   1.903   5.036   3.929
10262WAT     H131028   1.882   5.038   3.831
10262WAT     H231029   1.960   4.957   3.949
10263WAT      O31030   7.200   3.123   9.268
10263WAT     H131031   7.265   3.081   9.204
10263WAT     H231032   7.220   3.220   9.277
10264WAT      O31033   6.402   4.679   0.604
10264WAT     H131034   6.343   4.620   0.550
10264WAT     H231035   6.404   4.771   0.564
10265WAT      O31036   7.891   2.010   7.337
10265WAT     H131037   7.925   2.077   7.403
10265WAT     H231038   7.798   1.984   7.360
10266WAT      O31039   3.924   2.621   6.245
10266WAT     H131040   3.887   2.641   6.335
10266WAT     H231041   3.853   2.632   6.175
10267WAT      O31042   0.129   5.787   2.895
10267WAT     H131043   0.225   5.772   2.919
10267WAT     H231044   0.070   5.742   2.963
10268WAT      O31045   1.468   2.417   4.910
10268WAT     H131046   1.538   2.387   4.974
10268WAT     H231047   1.452   2.516   4.921
10269WAT      O31048   5.144   7.779   8.792
10269WAT     H131049   5.130   7.687   8.757
10269WAT     H231050   5.058   7.814   8.830
10270WAT      O31051   4.171   4.266   2.563
10270WAT     H131052   4.097   4.240   2.501
10270WAT     H231053   4.189   4.191   2.627
10271WAT      O31054   1.714   0.941   1.714
10271WAT     H131055   1.648   1.012   1.736
10271WAT     H231056   1.762   0.913   1.797
10272WAT      O31057   7.310   6.576   8.959
10272WAT     H131058   7.280   6.523   9.038
10272WAT     H231059   7.333   6.669   8.988
10273WAT      O31060   7.707   1.413   0.206
10273WAT     H131061   7.790   1.422   0.261
10273WAT     H231062   7.729   1.368   0.119
10274WAT      O31063   5.937   9.831   5.618
10274WAT     H131064   5.931   9.733   5.636
10274WAT     H231065   5.912   9.882   5.700
10275WAT      O31066   3.852   9.242   0.798
10275WAT     H131067   3.826   9.149   0.772
10275WAT     H231068   3.944   9.241   0.838
10276WAT      O31069   3.829   0.224   4.631
10276WAT     H131070   3.918   0.203   4.592
10276WAT     H231071   3.776   0.280   4.567
10277WAT      O31072   5.652   0.930   7.748
10277WAT     H131073   5.739   0.881   7.757
10277WAT     H231074   5.578   0.863   7.737
10278WAT      O31075   2.457   9.571   5.067
10278WAT     H131076   2.472   9.511   5.145
10278WAT     H231077   2.544   9.595   5.025
10279WAT      O31078   6.438   4.279   8.801
10279WAT     H131079   6.513   4.345   8.802
10279WAT     H231080   6.448   4.215   8.877
10280WAT      O31081   8.406   9.201   5.163
10280WAT     H131082   8.336   9.223   5.231
10280WAT     H231083   8.392   9.257   5.081
10281WAT      O31084   9.589   1.410   3.875
10281WAT     H131085   9.602   1.507   3.851
10281WAT     H231086   9.672   1.359   3.851
10282WAT      O31087   3.333   4.273   8.932
10282WAT     H131088   3.350   4.252   8.836
10282WAT     H231089   3.418   4.270   8.984
10283WAT      O31090   2.182   2.574   5.799
10283WAT     H131091   2.255   2.512   5.828
10283WAT     H231092   2.155   2.633   5.875
10284WAT      O31093   5.004   8.394   9.068
10284WAT     H131094   5.069   8.470   9.058
10284WAT     H231095   4.984   8.380   9.165
10285WAT      O31096   5.555   4.910   6.024
10285WAT     H131097   5.469   4.865   6.050
10285WAT     H231098   5.584   4.970   6.098
10286WAT      O31099   1.366   3.662   2.792
10286WAT     H131100   1.375   3.710   2.879
10286WAT     H231101   1.303   3.586   2.801
10287WAT      O31102   7.538   1.756   7.854
10287WAT     H131103   7.445   1.745   7.817
10287WAT     H231104   7.599   1.784   7.780
10288WAT      O31105   2.588   0.004   2.538
10288WAT     H131106   2.576   0.085   2.596
10288WAT     H231107   2.500  -0.042   2.525
10289WAT      O31108   5.792   0.298   1.302
10289WAT     H131109   5.711   0.333   1.255
10289WAT     H231110   5.874   0.342   1.265
10290WAT      O31111   6.459   1.659   0.204
10290WAT     H131112   6.551   1.666   0.243
10290WAT     H231113   6.392   1.657   0.279
10291WAT      O31114   5.275   8.246   5.006
10291WAT     H131115   5.231   8.157   5.000
10291WAT     H231116   5.234   8.308   4.939
10292WAT      O31117   7.252   9.685   2.087
10292WAT     H131118   7.241   9.770   2.139
10292WAT     H231119   7.238   9.607   2.148
10293WAT      O31120   0.702   5.017   1.780
10293WAT     H131121   0.784   5.017   1.837
10293WAT     H231122   0.723   4.977   1.691
10294WAT      O31123   8.491   8.319   0.682
10294WAT     H131124   8.556   8.278   0.617
10294WAT     H231125   8.538   8.390   0.735
10295WAT      O31126   9.461   1.658   2.737
10295WAT     H131127   9.559   1.637   2.734
10295WAT     H231128   9.413   1.599   2.672
10296WAT      O31129   0.482   6.174   5.424
10296WAT     H131130   0.476   6.129   5.514
10296WAT     H231131   0.543   6.253   5.431
10297WAT      O31132   6.902   1.654   2.514
10297WAT     H131133   6.917   1.593   2.436
10297WAT     H231134   6.893   1.748   2.482
10298WAT      O31135   8.649   3.587   4.984
10298WAT     H131136   8.613   3.525   5.053
10298WAT     H231137   8.642   3.545   4.894
10299WAT      O31138   1.180   4.070   5.777
10299WAT     H131139   1.165   4.082   5.875
10299WAT     H231140   1.216   3.978   5.760
10300WAT      O31141   1.545   7.904   2.376
10300WAT     H131142   1.634   7.942   2.399
10300WAT     H231143   1.557   7.822   2.319
10301WAT      O31144   1.057   4.167   0.875
10301WAT     H131145   1.068   4.132   0.782
10301WAT     H231146   0.975   4.126   0.917
10302WAT      O31147   7.045   1.860   5.586
10302WAT     H131148   6.952   1.887   5.610
10302WAT     H231149   7.082   1.923   5.517
10303WAT      O31150   0.981   6.881   4.155
10303WAT     H131151   0.939   6.877   4.064
10303WAT     H231152   1.010   6.974   4.174
10304WAT      O31153   8.275   3.345   1.372
10304WAT     H131154   8.358   3.385   1.335
10304WAT     H231155   8.195   3.389   1.330
10305WAT      O31156   6.657   4.051   4.483
10305WAT     H131157   6.719   3.985   4.440
10305WAT     H231158   6.565   4.013   4.486
10306WAT      O31159   0.052   6.792   3.897
10306WAT     H131160   0.098   6.853   3.960
10306WAT     H231161   0.104   6.707   3.889
10307WAT      O31162   7.066   3.937   4.229
10307WAT     H131163   7.052   3.992   4.147
10307WAT     H231164   7.082   3.841   4.203
10308WAT      O31165   6.591   9.192   1.733
10308WAT     H131166   6.585   9.109   1.678
10308WAT     H231167   6.647   9.260   1.685
10309WAT      O31168   6.513   5.082   3.101
10309WAT     H131169   6.474   5.016   3.165
10309WAT     H231170   6.554   5.033   3.024
10310WAT      O31171   4.285   0.877   9.106
10310WAT     H131172   4.303   0.810   9.179
10310WAT     H231173   4.334   0.962   9.126
10311WAT      O31174   3.609   3.680   7.004
10311WAT     H131175   3.558   3.604   7.044
10311WAT     H231176   3.706   3.654   6.996
10312WAT      O31177   3.596   3.522   2.798
10312WAT     H131178   3.567   3.604   2.847
10312WAT     H231179   3.516   3.466   2.777
10313WAT      O31180   5.463   5.577   3.934
10313WAT     H131181   5.422   5.572   3.842
10313WAT     H231182   5.561   5.559   3.928
10314WAT      O31183   6.259   6.018   3.493
10314WAT     H131184   6.255   6.110   3.455
10314WAT     H231185   6.349   6.003   3.534
10315WAT      O31186   7.490   9.007   0.016
10315WAT     H131187   7.535   8.998   0.105
10315WAT     H231188   7.425   9.083   0.019
10316WAT      O31189   0.825   3.615   1.150
10316WAT     H131190   0.788   3.583   1.063
10316WAT     H231191   0.925   3.623   1.142
10317WAT      O31192   3.870   2.898   2.683
10317WAT     H131193   3.810   2.925   2.759
10317WAT     H231194   3.940   2.835   2.717
10318WAT      O31195   5.305   6.773   2.781
10318WAT     H131196   5.401   6.774   2.753
10318WAT     H231197   5.299   6.753   2.878
10319WAT      O31198   8.148   7.415   6.910
10319WAT     H131199   8.245   7.392   6.900
10319WAT     H231200   8.095   7.331   6.919
10320WAT      O31201   3.462   7.437   4.682
10320WAT     H131202   3.501   7.451   4.773
10320WAT     H231203   3.439   7.526   4.642
10321WAT      O31204   4.038   2.840   3.343
10321WAT     H131205   4.099   2.768   3.311
10321WAT     H231206   3.969   2.801   3.404
10322WAT      O31207   3.016   3.365   4.014
10322WAT     H131208   3.027   3.436   3.944
10322WAT     H231209   3.100   3.358   4.068
10323WAT      O31210   7.789   2.775   2.576
10323WAT     H131211   7.701   2.727   2.583
10323WAT     H231212   7.787   2.857   2.633
10324WAT      O31213   0.750   8.016   2.950
10324WAT     H131214   0.694   7.952   3.003
10324WAT     H231215   0.709   8.107   2.955
10325WAT      O31216   2.923   1.206   5.526
10325WAT     H131217   2.918   1.143   5.449
10325WAT     H231218   3.008   1.191   5.576
10326WAT      O31219   0.070   1.658   7.720
10326WAT     H131220   0.097   1.619   7.807
10326WAT     H231221   0.149   1.664   7.659
10327WAT      O31222   3.692   4.358   9.847
10327WAT     H131223   3.703   4.451   9.884
10327WAT     H231224   3.738   4.293   9.907
10328WAT      O31225   3.495   5.687   0.561
10328WAT     H131226   3.425   5.738   0.512
10328WAT     H231227   3.454   5.609   0.608
10329WAT      O31228   6.532   0.325   4.313
10329WAT     H131229   6.498   0.265   4.385
10329WAT     H231230   6.630   0.337   4.323
10330WAT      O31231   7.010   8.296   3.822
10330WAT     H131232   7.029   8.243   3.740
10330WAT     H231233   6.912   8.312   3.830
10331WAT      O31234   8.623   5.501   7.819
10331WAT     H131235   8.721   5.482   7.820
10331WAT     H231236   8.597   5.545   7.905
10332WAT      O31237   1.548   0.887   9.760
10332WAT     H131238   1.450   0.911   9.757
10332WAT     H231239   1.578   0.861   9.668
10333WAT      O31240   5.010   0.503   1.055
10333WAT     H131241   5.033   0.566   0.981
10333WAT     H231242   4.911   0.493   1.061
10334WAT      O31243   0.943   9.449   6.168
10334WAT     H131244   1.023   9.507   6.183
10334WAT     H231245   0.974   9.359   6.136
10335WAT      O31246   0.747   1.908   4.875
10335WAT     H131247   0.704   1.857   4.949
10335WAT     H231248   0.797   1.986   4.912
10336WAT      O31249   3.823   6.562   0.053
10336WAT     H131250   3.871   6.644   0.082
10336WAT     H231251   3.857   6.532  -0.037
10337WAT      O31252   0.842   1.516   9.791
10337WAT     H131253   0.800   1.474   9.871
10337WAT     H231254   0.850   1.448   9.718
10338WAT      O31255   6.658   4.443   8.787
10338WAT     H131256   6.644   4.467   8.691
10338WAT     H231257   6.674   4.527   8.840
10339WAT      O31258   3.844   9.278   9.716
10339WAT     H131259   3.784   9.325   9.651
10339WAT     H231260   3.805   9.188   9.737
10340WAT      O31261   7.250   3.027   0.769
10340WAT     H131262   7.271   3.119   0.802
10340WAT     H231263   7.154   3.005   0.787
10341WAT      O31264   0.272   3.945   2.476
10341WAT     H131265   0.339   4.012   2.509
10341WAT     H231266   0.186   3.991   2.455
10342WAT      O31267   0.350   3.906   2.842
10342WAT     H131268   0.268   3.964   2.846
10342WAT     H231269   0.431   3.963   2.831
10343WAT      O31270   4.459   0.429   2.910
10343WAT     H131271   4.359   0.423   2.914
10343WAT     H231272   4.486   0.522   2.886
10344WAT      O31273   9.593   3.023   3.114
10344WAT     H131274   9.667   3.046   3.177
10344WAT     H231275   9.623   2.948   3.054
10345WAT      O31276   1.244   0.865   1.658
10345WAT     H131277   1.343   0.875   1.645
10345WAT     H231278   1.224   0.770   1.683
10346WAT      O31279   7.005   0.293   8.723
10346WAT     H131280   7.026   0.272   8.819
10346WAT     H231281   7.041   0.383   8.700
10347WAT      O31282   4.777   8.505   4.478
10347WAT     H131283   4.781   8.454   4.392
10347WAT     H231284   4.798   8.601   4.460
10348WAT      O31285   1.346   2.149   2.298
10348WAT     H131286   1.441   2.126   2.278
10348WAT     H231287   1.304   2.190   2.217
10349WAT      O31288   6.657   7.395   0.757
10349WAT     H131289   6.602   7.313   0.741
10349WAT     H231290   6.749   7.369   0.788
10350WAT      O31291   4.058   0.018   2.697
10350WAT     H131292   4.118  -0.059   2.720
10350WAT     H231293   3.987   0.027   2.767
10351WAT      O31294   8.905   4.612   7.884
10351WAT     H131295   8.888   4.661   7.970
10351WAT     H231296   8.845   4.532   7.879
10352WAT      O31297   2.168   1.390   8.708
10352WAT     H131298   2.235   1.461   8.731
10352WAT     H231299   2.193   1.349   8.620
10353WAT      O31300   0.010   1.575   6.532
10353WAT     H131301  -0.041   1.503   6.578
10353WAT     H231302   0.092   1.537   6.490
10354WAT      O31303   4.991   7.937   9.620
10354WAT     H131304   5.036   7.972   9.538
10354WAT     H231305   5.011   7.840   9.631
10355WAT      O31306   7.892   5.382   7.573
10355WAT     H131307   7.958   5.331   7.519
10355WAT     H231308   7.937   5.461   7.616
10356WAT      O31309   9.047   8.084   5.925
10356WAT     H131310   9.039   7.986   5.944
10356WAT     H231311   9.116   8.125   5.986
10357WAT      O31312   7.363   7.141   4.290
10357WAT     H131313   7.298   7.215   4.274
10357WAT     H231314   7.344   7.099   4.379
10358WAT      O31315   5.169   1.341   3.282
10358WAT     H131316   5.212   1.259   3.318
10358WAT     H231317   5.090   1.316   3.226
10359WAT      O31318   1.609   4.436   7.725
10359WAT     H131319   1.680   4.484   7.777
10359WAT     H231320   1.559   4.375   7.786
10360WAT      O31321   8.265   5.284   4.066
10360WAT     H131322   8.199   5.278   3.991
10360WAT     H231323   8.303   5.377   4.069
10361WAT      O31324   2.243   4.738   0.716
10361WAT     H131325   2.216   4.677   0.641
10361WAT     H231326   2.201   4.828   0.703
10362WAT      O31327   3.851   6.396   0.820
10362WAT     H131328   3.917   6.432   0.885
10362WAT     H231329   3.897   6.374   0.734
10363WAT      O31330   1.671   3.189   9.707
10363WAT     H131331   1.643   3.250   9.781
10363WAT     H231332   1.722   3.240   9.638
10364WAT      O31333   5.464   8.844   2.385
10364WAT     H131334   5.415   8.918   2.430
10364WAT     H231335   5.463   8.859   2.286
10365WAT      O31336   0.733   8.682   5.384
10365WAT     H131337   0.791   8.620   5.331
10365WAT     H231338   0.663   8.630   5.433
10366WAT      O31339   5.617   0.858   7.362
10366WAT     H131340   5.586   0.766   7.338
10366WAT     H231341   5.694   0.884   7.304
10367WAT      O31342   6.899   6.382   5.397
10367WAT     H131343   6.839   6.459   5.374
10367WAT     H231344   6.910   6.377   5.496
10368WAT      O31345   6.936   5.806   5.981
10368WAT     H131346   6.931   5.723   6.037
10368WAT     H231347   6.967   5.782   5.889
10369WAT      O31348   8.325   9.044   0.034
10369WAT     H131349   8.388   9.040   0.112
10369WAT     H231350   8.252   8.977   0.048
10370WAT      O31351   2.313   7.048   3.044
10370WAT     H131352   2.254   6.968   3.056
10370WAT     H231353   2.347   7.076   3.134
10371WAT      O31354   5.312   0.781   0.976
10371WAT     H131355   5.254   0.739   0.906
10371WAT     H231356   5.263   0.783   1.063
10372WAT      O31357   9.281   5.514   1.711
10372WAT     H131358   9.211   5.580   1.687
10372WAT     H231359   9.265   5.480   1.804
10373WAT      O31360   4.305   9.528   2.428
10373WAT     H131361   4.288   9.461   2.501
10373WAT     H231362   4.235   9.600   2.432
10374WAT      O31363   0.087   3.579   5.560
10374WAT     H131364   0.029   3.522   5.502
10374WAT     H231365   0.066   3.675   5.544
10375WAT      O31366   6.352   4.060   4.795
10375WAT     H131367   6.357   4.114   4.711
10375WAT     H231368   6.444   4.035   4.825
10376WAT      O31369   7.699   4.189   8.423
10376WAT     H131370   7.795   4.177   8.449
10376WAT     H231371   7.692   4.250   8.345
10377WAT      O31372   5.815   7.428   2.512
10377WAT     H131373   5.718   7.452   2.507
10377WAT     H231374   5.870   7.510   2.525
10378WAT      O31375   3.685   6.630   6.155
10378WAT     H131376   3.633   6.702   6.201
10378WAT     H231377   3.633   6.595   6.077
10379WAT      O31378   2.275   8.873   6.881
10379WAT     H131379   2.374   8.886   6.890
10379WAT     H231380   2.257   8.795   6.820
10380WAT      O31381   2.365   0.901   7.131
10380WAT     H131382   2.345   0.989   7.175
10380WAT     H231383   2.464   0.894   7.116
10381WAT      O31384   7.794   8.301   2.750
10381WAT     H131385   7.855   8.374   2.781
10381WAT     H231386   7.842   8.245   2.682
10382WAT      O31387   0.966   7.637   0.593
10382WAT     H131388   1.020   7.621   0.511
10382WAT     H231389   0.976   7.731   0.623
10383WAT      O31390   9.866   5.698   1.086
10383WAT     H131391   9.813   5.752   1.152
10383WAT     H231392   9.842   5.601   1.095
10384WAT      O31393   6.159   8.053   9.341
10384WAT     H131394   6.212   8.015   9.265
10384WAT     H231395   6.071   8.087   9.307
10385WAT      O31396   3.080   0.381   8.812
10385WAT     H131397   3.155   0.375   8.879
10385WAT     H231398   3.095   0.460   8.753
10386WAT      O31399   8.200   6.013   3.835
10386WAT     H131400   8.250   6.092   3.872
10386WAT     H231401   8.265   5.952   3.788
10387WAT      O31402   7.275   6.550   7.111
10387WAT     H131403   7.328   6.549   7.026
10387WAT     H231404   7.251   6.644   7.135
10388WAT      O31405   7.324   9.309   7.288
10388WAT     H131406   7.273   9.384   7.329
10388WAT     H231407   7.303   9.224   7.335
10389WAT      O31408   3.372   7.653   7.592
10389WAT     H131409   3.344   7.640   7.687
10389WAT     H231410   3.369   7.751   7.570
10390WAT      O31411   8.298   6.074   1.223
10390WAT     H131412   8.200   6.093   1.227
10390WAT     H231413   8.318   6.021   1.140
10391WAT      O31414   8.487   5.864   3.083
10391WAT     H131415   8.524   5.780   3.122
10391WAT     H231416   8.389   5.853   3.068
10392WAT      O31417   6.062   4.442   5.910
10392WAT     H131418   6.083   4.463   6.005
10392WAT     H231419   5.988   4.374   5.906
10393WAT      O31420   0.513   0.706   1.546
10393WAT     H131421   0.513   0.639   1.471
10393WAT     H231422   0.577   0.675   1.617
10394WAT      O31423   4.913   3.387   9.614
10394WAT     H131424   4.895   3.404   9.518
10394WAT     H231425   4.883   3.466   9.668
10395WAT      O31426   6.352   2.945   5.706
10395WAT     H131427   6.366   2.955   5.608
10395WAT     H231428   6.439   2.925   5.751
10396WAT      O31429   7.777   3.197   7.851
10396WAT     H131430   7.771   3.105   7.889
10396WAT     H231431   7.838   3.253   7.908
10397WAT      O31432   2.796   1.211   7.393
10397WAT     H131433   2.704   1.187   7.423
10397WAT     H231434   2.811   1.309   7.410
10398WAT      O31435   1.313   2.937   9.226
10398WAT     H131436   1.343   3.025   9.190
10398WAT     H231437   1.327   2.935   9.325
10399WAT      O31438   1.624   6.002   9.673
10399WAT     H131439   1.664   6.029   9.585
10399WAT     H231440   1.662   6.059   9.746
10400WAT      O31441   3.589   1.205   5.120
10400WAT     H131442   3.646   1.144   5.065
10400WAT     H231443   3.647   1.265   5.175
10401WAT      O31444   4.936   7.587   7.494
10401WAT     H131445   4.960   7.499   7.536
10401WAT     H231446   4.983   7.595   7.406
10402WAT      O31447   7.559   0.883   1.691
10402WAT     H131448   7.541   0.817   1.763
10402WAT     H231449   7.518   0.851   1.605
10403WAT      O31450   2.327   3.895   2.071
10403WAT     H131451   2.363   3.814   2.024
10403WAT     H231452   2.251   3.934   2.019
10404WAT      O31453   2.198   5.042   6.118
10404WAT     H131454   2.285   5.090   6.108
10404WAT     H231455   2.133   5.077   6.051
10405WAT      O31456   9.188   3.039   6.873
10405WAT     H131457   9.252   3.026   6.949
10405WAT     H231458   9.139   3.125   6.886
10406WAT      O31459   4.399   0.131   5.161
10406WAT     H131460   4.309   0.092   5.181
10406WAT     H231461   4.469   0.060   5.171
10407WAT      O31462   4.411   4.209   8.112
10407WAT     H131463   4.498   4.256   8.100
10407WAT     H231464   4.369   4.238   8.198
10408WAT      O31465   8.376   1.508   3.399
10408WAT     H131466   8.470   1.513   3.432
10408WAT     H231467   8.314   1.501   3.477
10409WAT      O31468   6.642   7.304   9.037
10409WAT     H131469   6.668   7.210   9.014
10409WAT     H231470   6.569   7.334   8.976
10410WAT      O31471   4.518   5.828   0.784
10410WAT     H131472   4.484   5.784   0.701
10410WAT     H231473   4.444   5.881   0.826
10411WAT      O31474   8.696   6.227   8.655
10411WAT     H131475   8.683   6.150   8.592
10411WAT     H231476   8.762   6.201   8.725
10412WAT      O31477   6.812   4.196   7.305
10412WAT     H131478   6.759   4.207   7.389
10412WAT     H231479   6.752   4.200   7.226
10413WAT      O31480   9.705   3.300   6.045
10413WAT     H131481   9.774   3.335   6.108
10413WAT     H231482   9.614   3.326   6.078
10414WAT      O31483   9.884   6.384   3.836
10414WAT     H131484   9.826   6.330   3.775
10414WAT     H231485   9.964   6.416   3.786
10415WAT      O31486   6.285   8.982   4.305
10415WAT     H131487   6.381   9.009   4.315
10415WAT     H231488   6.257   8.996   4.210
10416WAT      O31489   2.700   3.545   5.658
10416WAT     H131490   2.703   3.634   5.612
10416WAT     H231491   2.753   3.479   5.606
10417WAT      O31492   3.802   4.402   5.716
10417WAT     H131493   3.780   4.498   5.736
10417WAT     H231494   3.799   4.349   5.800
10418WAT      O31495   9.313   7.386   9.837
10418WAT     H131496   9.270   7.476   9.830
10418WAT     H231497   9.246   7.320   9.869
10419WAT      O31498   3.965   7.247   2.788
10419WAT     H131499   3.993   7.222   2.881
10419WAT     H231500   4.044   7.244   2.727
10420WAT      O31501   6.172   2.012   0.392
10420WAT     H131502   6.148   2.029   0.297
10420WAT     H231503   6.095   1.969   0.439
10421WAT      O31504   2.630   5.471   6.882
10421WAT     H131505   2.664   5.381   6.910
10421WAT     H231506   2.637   5.479   6.782
10422WAT      O31507   2.025   3.019   3.984
10422WAT     H131508   2.066   2.948   3.927
10422WAT     H231509   2.097   3.064   4.037
10423WAT      O31510   6.070   4.428   3.662
10423WAT     H131511   6.084   4.420   3.761
10423WAT     H231512   6.158   4.441   3.617
10424WAT      O31513   1.783   7.765   4.215
10424WAT     H131514   1.854   7.749   4.283
10424WAT     H231515   1.752   7.678   4.178
10425WAT      O31516   2.213   9.508   6.263
10425WAT     H131517   2.279   9.482   6.333
10425WAT     H231518   2.218   9.443   6.187
10426WAT      O31519   8.383   0.397   5.261
10426WAT     H131520   8.419   0.483   5.228
10426WAT     H231521   8.284   0.393   5.246
10427WAT      O31522   2.963   1.115   3.100
10427WAT     H131523   2.930   1.196   3.148
10427WAT     H231524   2.963   1.037   3.162
10428WAT      O31525   4.883   5.156   7.181
10428WAT     H131526   4.967   5.124   7.138
10428WAT     H231527   4.808   5.151   7.115
10429WAT      O31528   4.527   0.299   6.810
10429WAT     H131529   4.513   0.247   6.894
10429WAT     H231530   4.547   0.394   6.832
10430WAT      O31531   1.925   4.077   5.574
10430WAT     H131532   1.846   4.109   5.523
10430WAT     H231533   1.927   4.122   5.664
10431WAT      O31534   4.817   0.208   9.311
10431WAT     H131535   4.718   0.194   9.314
10431WAT     H231536   4.861   0.153   9.382
10432WAT      O31537   5.102   0.815   0.236
10432WAT     H131538   5.071   0.767   0.154
10432WAT     H231539   5.079   0.912   0.228
10433WAT      O31540   4.093   1.469   2.985
10433WAT     H131541   4.019   1.447   2.922
10433WAT     H231542   4.057   1.524   3.061
10434WAT      O31543   6.938   7.860   0.697
10434WAT     H131544   7.030   7.878   0.731
10434WAT     H231545   6.944   7.820   0.606
10435WAT      O31546   6.111   7.382   1.384
10435WAT     H131547   6.101   7.289   1.349
10435WAT     H231548   6.036   7.439   1.349
10436WAT      O31549   1.584   9.811   7.956
10436WAT     H131550   1.486   9.802   7.970
10436WAT     H231551   1.628   9.722   7.965
10437WAT      O31552   1.426   1.862   1.139
10437WAT     H131553   1.408   1.869   1.041
10437WAT     H231554   1.511   1.911   1.161
10438WAT      O31555   6.174   4.603   9.015
10438WAT     H131556   6.232   4.644   9.086
10438WAT     H231557   6.228   4.586   8.933
10439WAT      O31558   8.745   1.324   3.247
10439WAT     H131559   8.801   1.326   3.164
10439WAT     H231560   8.794   1.369   3.321
10440WAT      O31561   0.867   4.791   2.204
10440WAT     H131562   0.810   4.748   2.274
10440WAT     H231563   0.882   4.887   2.227
10441WAT      O31564   3.772   2.515   3.972
10441WAT     H131565   3.734   2.424   3.954
10441WAT     H231566   3.699   2.576   4.004
10442WAT      O31567   2.996   8.660   4.994
10442WAT     H131568   3.055   8.582   4.972
10442WAT     H231569   2.901   8.631   4.997
10443WAT      O31570   2.120   9.223   8.273
10443WAT     H131571   2.053   9.270   8.330
10443WAT     H231572   2.097   9.126   8.268
10444WAT      O31573   3.294   4.919   2.970
10444WAT     H131574   3.211   4.939   3.022
10444WAT     H231575   3.373   4.960   3.015
10445WAT      O31576   7.676   3.672   0.694
10445WAT     H131577   7.752   3.633   0.642
10445WAT     H231578   7.678   3.637   0.787
10446WAT      O31579   1.756   0.085   9.369
10446WAT     H131580   1.817   0.141   9.426
10446WAT     H231581   1.699   0.145   9.312
10447WAT      O31582   4.228   7.645   2.193
10447WAT     H131583   4.288   7.655   2.273
10447WAT     H231584   4.133   7.650   2.223
10448WAT      O31585   4.539   1.376   0.322
10448WAT     H131586   4.561   1.458   0.269
10448WAT     H231587   4.440   1.364   0.325
10449WAT      O31588   5.980   2.558   8.171
10449WAT     H131589   5.942   2.586   8.083
10449WAT     H231590   6.078   2.538   8.161
10450WAT      O31591   9.679   3.725   3.840
10450WAT     H131592   9.596   3.676   3.867
10450WAT     H231593   9.657   3.822   3.824
10451WAT      O31594   3.139   8.853   6.141
10451WAT     H131595   3.081   8.825   6.217
10451WAT     H231596   3.159   8.951   6.148
10452WAT      O31597   9.346   4.002   5.434
10452WAT     H131598   9.350   4.058   5.517
10452WAT     H231599   9.254   4.007   5.395
10453WAT      O31600   8.362   5.504   8.542
10453WAT     H131601   8.284   5.550   8.586
10453WAT     H231602   8.343   5.493   8.444
10454WAT      O31603   6.274   1.181   0.619
10454WAT     H131604   6.182   1.219   0.631
10454WAT     H231605   6.289   1.109   0.686
10455WAT      O31606   6.825   7.279   2.664
10455WAT     H131607   6.760   7.218   2.620
10455WAT     H231608   6.777   7.359   2.700
10456WAT      O31609   1.326   8.441   5.146
10456WAT     H131610   1.337   8.461   5.244
10456WAT     H231611   1.368   8.515   5.093
10457WAT      O31612   3.344   7.649   1.965
10457WAT     H131613   3.307   7.732   2.007
10457WAT     H231614   3.340   7.574   2.030
10458WAT      O31615   5.290   0.764   8.846
10458WAT     H131616   5.378   0.743   8.804
10458WAT     H231617   5.305   0.799   8.938
10459WAT      O31618   9.862   6.368   0.388
10459WAT     H131619   9.801   6.432   0.339
10459WAT     H231620   9.952   6.410   0.398
10460WAT      O31621   6.525   6.781   0.157
10460WAT     H131622   6.513   6.823   0.067
10460WAT     H231623   6.616   6.739   0.162
10461WAT      O31624   4.243   0.188   3.820
10461WAT     H131625   4.192   0.217   3.901
10461WAT     H231626   4.179   0.164   3.747
10462WAT      O31627   1.377   0.626   3.703
10462WAT     H131628   1.415   0.604   3.613
10462WAT     H231629   1.452   0.646   3.766
10463WAT      O31630   5.466   5.988   4.004
10463WAT     H131631   5.391   5.923   4.014
10463WAT     H231632   5.521   5.963   3.925
10464WAT      O31633   1.286   6.113   7.352
10464WAT     H131634   1.243   6.127   7.262
10464WAT     H231635   1.341   6.029   7.349
10465WAT      O31636   6.103   5.277   8.046
10465WAT     H131637   6.033   5.299   7.978
10465WAT     H231638   6.109   5.352   8.112
10466WAT      O31639   5.681   3.807   8.553
10466WAT     H131640   5.625   3.877   8.508
10466WAT     H231641   5.657   3.717   8.518
10467WAT      O31642   7.561   7.014   4.126
10467WAT     H131643   7.494   7.049   4.192
10467WAT     H231644   7.527   7.029   4.033
10468WAT      O31645   3.590   0.108   8.464
10468WAT     H131646   3.685   0.108   8.431
10468WAT     H231647   3.577   0.184   8.528
10469WAT      O31648   7.797   8.726   0.919
10469WAT     H131649   7.796   8.628   0.900
10469WAT     H231650   7.838   8.775   0.843
10470WAT      O31651   0.778   3.198   6.359
10470WAT     H131652   0.817   3.234   6.444
10470WAT     H231653   0.695   3.146   6.380
10471WAT      O31654   7.507   9.016   8.573
10471WAT     H131655   7.417   9.033   8.612
10471WAT     H231656   7.561   8.959   8.635
10472WAT      O31657   5.085   1.627   1.710
10472WAT     H131658   5.076   1.687   1.789
10472WAT     H231659   5.140   1.547   1.734
10473WAT      O31660   1.326   4.455   1.974
10473WAT     H131661   1.407   4.490   1.926
10473WAT     H231662   1.246   4.508   1.947
10474WAT      O31663   3.216   3.444   1.868
10474WAT     H131664   3.277   3.441   1.947
10474WAT     H231665   3.122   3.459   1.898
10475WAT      O31666   6.844   2.656   1.349
10475WAT     H131667   6.896   2.581   1.390
10475WAT     H231668   6.752   2.625   1.327
10476WAT      O31669   6.299   8.657   9.097
10476WAT     H131670   6.305   8.712   9.180
10476WAT     H231671   6.353   8.573   9.109
10477WAT      O31672   0.121   3.662   2.856
10477WAT     H131673   0.160   3.754   2.865
10477WAT     H231674   0.195   3.596   2.841
10478WAT      O31675   2.029   0.878   2.485
10478WAT     H131676   1.948   0.857   2.430
10478WAT     H231677   1.999   0.911   2.575
10479WAT      O31678   2.351   7.681   6.319
10479WAT     H131679   2.351   7.731   6.406
10479WAT     H231680   2.330   7.744   6.244
10480WAT      O31681   1.351   1.708   8.109
10480WAT     H131682   1.366   1.609   8.115
10480WAT     H231683   1.321   1.742   8.198
10481WAT      O31684   3.690   8.884   2.495
10481WAT     H131685   3.747   8.958   2.461
10481WAT     H231686   3.674   8.817   2.422
10482WAT      O31687   3.447   8.559   0.662
10482WAT     H131688   3.393   8.504   0.726
10482WAT     H231689   3.390   8.635   0.629
10483WAT      O31690   2.363   7.400   2.760
10483WAT     H131691   2.396   7.392   2.666
10483WAT     H231692   2.335   7.494   2.778
10484WAT      O31693   6.480   2.230   4.430
10484WAT     H131694   6.478   2.187   4.339
10484WAT     H231695   6.388   2.261   4.454
10485WAT      O31696   0.051   8.871   4.249
10485WAT     H131697   0.026   8.944   4.312
10485WAT     H231698   0.143   8.839   4.269
10486WAT      O31699   2.339   1.117   7.283
10486WAT     H131700   2.398   1.197   7.275
10486WAT     H231701   2.360   1.068   7.367
10487WAT      O31702   7.629   5.499   3.353
10487WAT     H131703   7.549   5.518   3.411
10487WAT     H231704   7.684   5.427   3.395
10488WAT      O31705   4.210   7.252   6.950
10488WAT     H131706   4.231   7.176   7.012
10488WAT     H231707   4.168   7.327   7.002
10489WAT      O31708   7.281   4.223   6.341
10489WAT     H131709   7.376   4.237   6.312
10489WAT     H231710   7.271   4.255   6.435
10490WAT      O31711   5.003   0.279   4.513
10490WAT     H131712   5.051   0.200   4.553
10490WAT     H231713   4.907   0.277   4.541
10491WAT      O31714   1.846   9.842   9.867
10491WAT     H131715   1.765   9.845   9.925
10491WAT     H231716   1.865   9.747   9.842
10492WAT      O31717   2.072   3.991   4.912
10492WAT     H131718   2.150   3.985   4.974
10492WAT     H231719   2.038   4.085   4.909
10493WAT      O31720   2.681   7.496   3.829
10493WAT     H131721   2.665   7.449   3.742
10493WAT     H231722   2.746   7.444   3.884
10494WAT      O31723   7.318   4.748   5.895
10494WAT     H131724   7.336   4.834   5.944
10494WAT     H231725   7.402   4.718   5.850
10495WAT      O31726   4.938   6.857   5.560
10495WAT     H131727   5.009   6.788   5.550
10495WAT     H231728   4.980   6.945   5.582
10496WAT      O31729   5.733   3.067   1.898
10496WAT     H131730   5.738   2.977   1.941
10496WAT     H231731   5.660   3.120   1.940
10497WAT      O31732   5.704   4.364   9.138
10497WAT     H131733   5.721   4.360   9.039
10497WAT     H231734   5.788   4.342   9.187
10498WAT      O31735   6.149   6.489   9.003
10498WAT     H131736   6.178   6.471   9.096
10498WAT     H231737   6.226   6.477   8.940
10499WAT      O31738   0.880   1.704   5.238
10499WAT     H131739   0.910   1.619   5.193
10499WAT     H231740   0.929   1.781   5.199
10500WAT      O31741   1.111   7.819   8.580
10500WAT     H131742   1.060   7.898   8.548
10500WAT     H231743   1.048   7.751   8.617
10501WAT      O31744   5.820   6.716   3.249
10501WAT     H131745   5.789   6.630   3.289
10501WAT     H231746   5.866   6.698   3.162
10502WAT      O31747   8.749   2.013   1.810
10502WAT     H131748   8.805   2.095   1.822
10502WAT     H231749   8.659   2.028   1.852
10503WAT      O31750   9.545   7.461   8.045
10503WAT     H131751   9.580   7.394   7.980
10503WAT     H231752   9.572   7.553   8.016
10504WAT      O31753   4.874   3.655   8.134
10504WAT     H131754   4.802   3.665   8.066
10504WAT     H231755   4.891   3.743   8.177
10505WAT      O31756   8.460   3.625   4.435
10505WAT     H131757   8.489   3.713   4.397
10505WAT     H231758   8.532   3.589   4.495
10506WAT      O31759   2.088   8.290   5.467
10506WAT     H131760   2.118   8.262   5.559
10506WAT     H231761   2.078   8.210   5.409
10507WAT      O31762   5.154   6.689   2.055
10507WAT     H131763   5.220   6.762   2.074
10507WAT     H231764   5.089   6.719   1.986
10508WAT      O31765   8.416   5.217   6.099
10508WAT     H131766   8.451   5.140   6.153
10508WAT     H231767   8.338   5.187   6.046
10509WAT      O31768   8.799   4.727   4.924
10509WAT     H131769   8.705   4.713   4.956
10509WAT     H231770   8.859   4.658   4.964
10510WAT      O31771   9.313   8.282   5.170
10510WAT     H131772   9.262   8.211   5.120
10510WAT     H231773   9.285   8.372   5.137
10511WAT      O31774   4.722   2.255   4.672
10511WAT     H131775   4.801   2.306   4.707
10511WAT     H231776   4.753   2.181   4.613
10512WAT      O31777   2.294   1.108   2.885
10512WAT     H131778   2.298   1.200   2.844
10512WAT     H231779   2.268   1.042   2.815
10513WAT      O31780   1.485   6.532   0.856
10513WAT     H131781   1.502   6.629   0.842
10513WAT     H231782   1.387   6.514   0.849
10514WAT      O31783   8.404   7.783   9.383
10514WAT     H131784   8.368   7.799   9.292
10514WAT     H231785   8.377   7.858   9.444
10515WAT      O31786   3.991   6.879   3.685
10515WAT     H131787   3.990   6.943   3.608
10515WAT     H231788   4.014   6.928   3.769
10516WAT      O31789   7.618   0.668   5.093
10516WAT     H131790   7.630   0.588   5.152
10516WAT     H231791   7.527   0.708   5.109
10517WAT      O31792   2.179   0.823   4.666
10517WAT     H131793   2.081   0.843   4.673
10517WAT     H231794   2.213   0.858   4.579
10518WAT      O31795   4.212   3.995   8.125
10518WAT     H131796   4.210   3.986   8.225
10518WAT     H231797   4.277   4.066   8.099
10519WAT      O31798   0.077   7.247   1.139
10519WAT     H131799   0.036   7.159   1.165
10519WAT     H231800   0.171   7.251   1.175
10520WAT      O31801   8.301   7.006   2.121
10520WAT     H131802   8.366   6.932   2.142
10520WAT     H231803   8.331   7.053   2.038
10521WAT      O31804   0.513   6.599   2.948
10521WAT     H131805   0.607   6.564   2.944
10521WAT     H231806   0.512   6.687   2.995
10522WAT      O31807   5.905   2.304   8.782
10522WAT     H131808   5.957   2.244   8.842
10522WAT     H231809   5.965   2.338   8.709
10523WAT      O31810   2.771   7.416   4.482
10523WAT     H131811   2.862   7.453   4.501
10523WAT     H231812   2.712   7.489   4.446
10524WAT      O31813   8.240   0.755   8.741
10524WAT     H131814   8.172   0.821   8.711
10524WAT     H231815   8.300   0.798   8.809
10525WAT      O31816   6.781   7.059   0.942
10525WAT     H131817   6.794   7.136   0.880
10525WAT     H231818   6.860   6.997   0.936
10526WAT      O31819   0.177   0.560   2.331
10526WAT     H131820   0.192   0.625   2.406
10526WAT     H231821   0.125   0.482   2.364
10527WAT      O31822   9.244   4.407   6.371
10527WAT     H131823   9.262   4.476   6.442
10527WAT     H231824   9.222   4.453   6.285
10528WAT      O31825   0.445   7.964   2.543
10528WAT     H131826   0.533   7.919   2.559
10528WAT     H231827   0.371   7.901   2.566
10529WAT      O31828   2.974   8.439   2.967
10529WAT     H131829   3.064   8.462   2.932
10529WAT     H231830   2.908   8.434   2.892
10530WAT      O31831   0.007   9.387   0.549
10530WAT     H131832   0.058   9.324   0.491
10530WAT     H231833  -0.015   9.343   0.636
10531WAT      O31834   2.530   3.890   8.123
10531WAT     H131835   2.440   3.846   8.123
10531WAT     H231836   2.584   3.857   8.200
10532WAT      O31837   8.463   3.279   3.849
10532WAT     H131838   8.464   3.371   3.809
10532WAT     H231839   8.462   3.287   3.949
10533WAT      O31840   7.867   9.291   8.563
10533WAT     H131841   7.958   9.314   8.597
10533WAT     H231842   7.865   9.195   8.537
10534WAT      O31843   3.361   0.225   6.117
10534WAT     H131844   3.416   0.295   6.071
10534WAT     H231845   3.324   0.262   6.202
10535WAT      O31846   3.780   8.028   5.818
10535WAT     H131847   3.782   8.083   5.901
10535WAT     H231848   3.864   7.974   5.811
10536WAT      O31849   4.647   0.885   0.826
10536WAT     H131850   4.642   0.985   0.832
10536WAT     H231851   4.587   0.853   0.753
10537WAT      O31852   8.849   3.108   0.044
10537WAT     H131853   8.928   3.143   0.094
10537WAT     H231854   8.845   3.150  -0.047
10538WAT      O31855   9.322   6.982   4.727
10538WAT     H131856   9.255   6.915   4.759
10538WAT     H231857   9.412   6.960   4.766
10539WAT      O31858   7.253   1.176   9.350
10539WAT     H131859   7.169   1.135   9.315
10539WAT     H231860   7.250   1.177   9.450
10540WAT      O31861   6.861   1.967   0.115
10540WAT     H131862   6.936   1.968   0.181
10540WAT     H231863   6.897   1.976   0.022
10541WAT      O31864   7.929   7.130   5.830
10541WAT     H131865   7.834   7.105   5.847
10541WAT     H231866   7.951   7.212   5.883
10542WAT      O31867   1.304   3.833   6.351
10542WAT     H131868   1.236   3.855   6.421
10542WAT     H231869   1.270   3.859   6.261
10543WAT      O31870   1.942   4.445   4.042
10543WAT     H131871   2.025   4.390   4.050
10543WAT     H231872   1.937   4.510   4.118
10544WAT      O31873   7.612   9.690   0.663
10544WAT     H131874   7.551   9.611   0.663
10544WAT     H231875   7.703   9.662   0.633
10545WAT      O31876   8.721   8.767   5.554
10545WAT     H131877   8.710   8.821   5.638
10545WAT     H231878   8.816   8.737   5.546
10546WAT      O31879   5.045   4.685   6.302
10546WAT     H131880   4.953   4.646   6.305
10546WAT     H231881   5.079   4.684   6.208
10547WAT      O31882   4.281   0.812   7.623
10547WAT     H131883   4.258   0.748   7.697
10547WAT     H231884   4.380   0.811   7.608
10548WAT      O31885   9.603   4.363   6.144
10548WAT     H131886   9.603   4.463   6.143
10548WAT     H231887   9.651   4.329   6.062
10549WAT      O31888   9.177   1.519   0.871
10549WAT     H131889   9.271   1.486   0.866
10549WAT     H231890   9.177   1.619   0.878
10550WAT      O31891   8.292   4.714   5.765
10550WAT     H131892   8.342   4.718   5.851
10550WAT     H231893   8.194   4.723   5.782
10551WAT      O31894   6.739   7.837   8.713
10551WAT     H131895   6.682   7.793   8.644
10551WAT     H231896   6.834   7.808   8.702
10552WAT      O31897   4.022   2.710   7.986
10552WAT     H131898   3.970   2.737   8.066
10552WAT     H231899   4.001   2.772   7.910
10553WAT      O31900   2.728   9.337   5.135
10553WAT     H131901   2.782   9.392   5.198
10553WAT     H231902   2.743   9.368   5.041
10554WAT      O31903   9.312   7.052   8.738
10554WAT     H131904   9.313   7.116   8.660
10554WAT     H231905   9.383   6.983   8.725
10555WAT      O31906   8.598   1.462   5.594
10555WAT     H131907   8.503   1.490   5.608
10555WAT     H231908   8.603   1.362   5.593
10556WAT      O31909   3.460   9.615   0.407
10556WAT     H131910   3.360   9.616   0.415
10556WAT     H231911   3.486   9.598   0.312
10557WAT      O31912   9.221   1.235   0.075
10557WAT     H131913   9.301   1.227   0.133
10557WAT     H231914   9.246   1.281  -0.010
10558WAT      O31915   2.295   4.250   0.459
10558WAT     H131916   2.208   4.300   0.460
10558WAT     H231917   2.349   4.276   0.539
10559WAT      O31918   3.255   2.117   4.131
10559WAT     H131919   3.193   2.170   4.073
10559WAT     H231920   3.289   2.038   4.081
10560WAT      O31921   5.853   6.518   9.820
10560WAT     H131922   5.855   6.442   9.886
10560WAT     H231923   5.932   6.578   9.837
10561WAT      O31924   0.160   3.485   5.846
10561WAT     H131925   0.183   3.428   5.925
10561WAT     H231926   0.126   3.427   5.772
10562WAT      O31927   8.345   3.009   5.114
10562WAT     H131928   8.268   3.009   5.049
10562WAT     H231929   8.401   2.927   5.099
10563WAT      O31930   0.864   4.571   2.837
10563WAT     H131931   0.772   4.559   2.876
10563WAT     H231932   0.927   4.505   2.878
10564WAT      O31933   9.572   0.595   8.087
10564WAT     H131934   9.572   0.554   8.178
10564WAT     H231935   9.635   0.673   8.086
10565WAT      O31936   3.985   0.984   9.139
10565WAT     H131937   3.943   0.959   9.226
10565WAT     H231938   4.077   0.946   9.135
10566WAT      O31939   9.749   3.924   2.799
10566WAT     H131940   9.696   3.896   2.719
10566WAT     H231941   9.715   3.875   2.879
10567WAT      O31942   8.109   9.534   0.734
10567WAT     H131943   8.112   9.588   0.818
10567WAT     H231944   8.084   9.440   0.756
10568WAT      O31945   3.576   2.327   9.124
10568WAT     H131946   3.554   2.412   9.077
10568WAT     H231947   3.492   2.277   9.145
10569WAT      O31948   0.134   6.891   8.588
10569WAT     H131949   0.165   6.801   8.559
10569WAT     H231950   0.036   6.901   8.569
10570WAT      O31951   1.311   8.232   5.775
10570WAT     H131952   1.377   8.229   5.850
10570WAT     H231953   1.358   8.218   5.688
10571WAT      O31954   3.409   6.937   5.976
10571WAT     H131955   3.332   6.992   5.943
10571WAT     H231956   3.421   6.952   6.074
10572WAT      O31957   4.255   0.166   3.086
10572WAT     H131958   4.166   0.136   3.119
10572WAT     H231959   4.245   0.252   3.036
10573WAT      O31960   4.015   6.771   2.908
10573WAT     H131961   3.992   6.690   2.963
10573WAT     H231962   4.092   6.818   2.950
10574WAT      O31963   4.805   1.987   1.787
10574WAT     H131964   4.724   1.931   1.770
10574WAT     H231965   4.777   2.079   1.813
10575WAT      O31966   0.025   0.395   2.765
10575WAT     H131967   0.103   0.416   2.706
10575WAT     H231968  -0.060   0.425   2.721
10576WAT      O31969   3.965   5.799   1.475
10576WAT     H131970   3.876   5.754   1.465
10576WAT     H231971   4.038   5.732   1.461
10577WAT      O31972   0.193   1.390   1.428
10577WAT     H131973   0.144   1.418   1.346
10577WAT     H231974   0.263   1.322   1.404
10578WAT      O31975   8.599   3.337   0.768
10578WAT     H131976   8.646   3.252   0.794
10578WAT     H231977   8.628   3.364   0.676
10579WAT      O31978   6.354   0.634   1.875
10579WAT     H131979   6.262   0.639   1.915
10579WAT     H231980   6.391   0.542   1.886
10580WAT      O31981   8.084   5.303   5.050
10580WAT     H131982   8.033   5.252   4.980
10580WAT     H231983   8.181   5.278   5.045
10581WAT      O31984   9.555   2.795   1.648
10581WAT     H131985   9.591   2.774   1.739
10581WAT     H231986   9.457   2.813   1.654
10582WAT      O31987   4.334   7.306   1.070
10582WAT     H131988   4.341   7.207   1.058
10582WAT     H231989   4.267   7.343   1.006
10583WAT      O31990   8.762   9.251   1.259
10583WAT     H131991   8.682   9.195   1.274
10583WAT     H231992   8.739   9.347   1.273
10584WAT      O31993   7.972   3.278   4.591
10584WAT     H131994   8.033   3.243   4.520
10584WAT     H231995   7.956   3.375   4.577
10585WAT      O31996   9.106   9.350   8.624
10585WAT     H131997   9.118   9.409   8.704
10585WAT     H231998   9.099   9.255   8.653
10586WAT      O31999   9.891   4.634   9.511
10586WAT     H132000   9.865   4.729   9.526
10586WAT     H232001   9.815   4.574   9.534
10587WAT      O32002   2.768   2.446   1.151
10587WAT     H132003   2.765   2.481   1.245
10587WAT     H232004   2.863   2.434   1.123
10588WAT      O32005   1.442   2.401   5.944
10588WAT     H132006   1.435   2.431   6.039
10588WAT     H232007   1.353   2.410   5.900
10589WAT      O32008   5.514   1.106   9.784
10589WAT     H132009   5.438   1.108   9.719
10589WAT     H232010   5.483   1.142   9.872
10590WAT      O32011   8.801   2.318   3.831
10590WAT     H132012   8.752   2.237   3.799
10590WAT     H232013   8.800   2.388   3.760
10591WAT      O32014   6.775   0.699   4.111
10591WAT     H132015   6.815   0.687   4.020
10591WAT     H232016   6.809   0.627   4.172
10592WAT      O32017   8.284   5.160   9.786
10592WAT     H132018   8.263   5.071   9.745
10592WAT     H232019   8.216   5.227   9.756
10593WAT      O32020   0.750   6.276   7.731
10593WAT     H132021   0.713   6.279   7.638
10593WAT     H232022   0.844   6.240   7.728
10594WAT      O32023   4.411   0.469   7.061
10594WAT     H132024   4.334   0.411   7.035
10594WAT     H232025   4.453   0.434   7.145
10595WAT      O32026   3.240   3.199   0.522
10595WAT     H132027   3.222   3.110   0.479
10595WAT     H232028   3.160   3.258   0.512
10596WAT      O32029   1.075   4.550   8.356
10596WAT     H132030   1.051   4.594   8.269
10596WAT     H232031   0.994   4.545   8.414
10597WAT      O32032   2.116   7.218   7.236
10597WAT     H132033   2.024   7.191   7.263
10597WAT     H232034   2.130   7.315   7.256
10598WAT      O32035   1.939   2.809   4.976
10598WAT     H132036   1.841   2.790   4.986
10598WAT     H232037   1.983   2.732   4.931
10599WAT      O32038   1.437   4.773   9.568
10599WAT     H132039   1.342   4.778   9.598
10599WAT     H232040   1.496   4.815   9.637
10600WAT      O32041   1.525   6.944   4.375
10600WAT     H132042   1.567   6.877   4.436
10600WAT     H232043   1.452   6.992   4.424
10601WAT      O32044   3.769   4.745   2.931
10601WAT     H132045   3.777   4.728   3.029
10601WAT     H232046   3.812   4.832   2.908
10602WAT      O32047   7.579   2.677   9.458
10602WAT     H132048   7.614   2.601   9.403
10602WAT     H232049   7.509   2.726   9.406
10603WAT      O32050   3.761   7.392   9.090
10603WAT     H132051   3.795   7.486   9.083
10603WAT     H232052   3.788   7.354   9.179
10604WAT      O32053   5.988   0.053   7.858
10604WAT     H132054   5.940   0.140   7.869
10604WAT     H232055   5.921  -0.021   7.856
10605WAT      O32056   0.879   4.349   9.251
10605WAT     H132057   0.813   4.389   9.314
10605WAT     H232058   0.909   4.260   9.285
10606WAT      O32059   4.054   4.105   2.342
10606WAT     H132060   3.982   4.099   2.273
10606WAT     H232061   4.137   4.142   2.301
10607WAT      O32062   0.983   2.145   9.038
10607WAT     H132063   0.967   2.166   9.135
10607WAT     H232064   1.043   2.214   8.999
10608WAT      O32065   7.848   7.414   0.266
10608WAT     H132066   7.926   7.468   0.298
10608WAT     H232067   7.864   7.385   0.172
10609WAT      O32068   2.920   0.006   6.802
10609WAT     H132069   2.857   0.084   6.799
10609WAT     H232070   2.949  -0.010   6.896
10610WAT      O32071   6.091   4.976   3.219
10610WAT     H132072   6.004   4.927   3.225
10610WAT     H232073   6.141   4.947   3.137
10611WAT      O32074   5.541   6.532   6.485
10611WAT     H132075   5.495   6.446   6.462
10611WAT     H232076   5.631   6.535   6.441
10612WAT      O32077   8.984   9.232   4.395
10612WAT     H132078   9.018   9.304   4.335
10612WAT     H232079   9.035   9.147   4.378
10613WAT      O32080   6.348   8.609   6.486
10613WAT     H132081   6.310   8.522   6.518
10613WAT     H232082   6.441   8.595   6.452
10614WAT      O32083   9.763   6.522   9.239
10614WAT     H132084   9.765   6.510   9.140
10614WAT     H232085   9.689   6.466   9.278
10615WAT      O32086   5.683   4.562   0.927
10615WAT     H132087   5.770   4.513   0.932
10615WAT     H232088   5.613   4.503   0.887
10616WAT      O32089   3.384   2.255   2.707
10616WAT     H132090   3.329   2.338   2.694
10616WAT     H232091   3.416   2.251   2.801
10617WAT      O32092   4.255   6.449   9.199
10617WAT     H132093   4.350   6.444   9.228
10617WAT     H232094   4.249   6.427   9.102
10618WAT      O32095   8.210   6.577   0.558
10618WAT     H132096   8.169   6.557   0.468
10618WAT     H232097   8.209   6.493   0.613
10619WAT      O32098   3.376   0.299   4.934
10619WAT     H132099   3.456   0.319   4.991
10619WAT     H232100   3.305   0.255   4.990
10620WAT      O32101   9.562   6.951   3.502
10620WAT     H132102   9.515   6.908   3.425
10620WAT     H232103   9.497   6.966   3.577
10621WAT      O32104   2.483   4.589   5.126
10621WAT     H132105   2.414   4.530   5.167
10621WAT     H232106   2.447   4.629   5.041
10622WAT      O32107   8.791   3.706   3.543
10622WAT     H132108   8.702   3.740   3.572
10622WAT     H232109   8.791   3.692   3.444
10623WAT      O32110   7.456   8.371   9.750
10623WAT     H132111   7.398   8.380   9.831
10623WAT     H232112   7.399   8.372   9.668
10624WAT      O32113   5.064   2.375   6.965
10624WAT     H132114   5.040   2.407   7.056
10624WAT     H232115   5.020   2.433   6.896
10625WAT      O32116   3.207   2.011   5.554
10625WAT     H132117   3.244   1.955   5.480
10625WAT     H232118   3.174   1.951   5.628
10626WAT      O32119   0.085   5.198   8.695
10626WAT     H132120   0.183   5.178   8.704
10626WAT     H232121   0.066   5.289   8.733
10627WAT      O32122   9.630   3.980   9.314
10627WAT     H132123   9.651   3.913   9.385
10627WAT     H232124   9.648   4.072   9.349
10628WAT      O32125   3.038   8.528   7.400
10628WAT     H132126   3.134   8.515   7.422
10628WAT     H232127   2.983   8.459   7.447
10629WAT      O32128   3.750   8.445   3.110
10629WAT     H132129   3.737   8.412   3.016
10629WAT     H232130   3.696   8.528   3.124
10630WAT      O32131   1.468   2.744   1.773
10630WAT     H132132   1.562   2.712   1.764
10630WAT     H232133   1.440   2.740   1.869
10631WAT      O32134   8.915   5.952   8.221
10631WAT     H132135   8.972   5.951   8.140
10631WAT     H232136   8.951   6.018   8.287
10632WAT      O32137   1.898   3.091   7.202
10632WAT     H132138   1.887   3.019   7.271
10632WAT     H232139   1.993   3.120   7.198
10633WAT      O32140   0.557   3.028   6.682
10633WAT     H132141   0.617   3.080   6.743
10633WAT     H232142   0.560   3.068   6.591
10634WAT      O32143   5.511   0.731   5.086
10634WAT     H132144   5.424   0.740   5.038
10634WAT     H232145   5.537   0.635   5.091
10635WAT      O32146   1.760   7.890   6.198
10635WAT     H132147   1.671   7.932   6.219
10635WAT     H232148   1.775   7.894   6.099
10636WAT      O32149   1.017   3.635   6.378
10636WAT     H132150   1.045   3.578   6.455
10636WAT     H232151   1.019   3.732   6.405
10637WAT      O32152   6.066   5.498   2.257
10637WAT     H132153   6.148   5.493   2.314
10637WAT     H232154   6.084   5.456   2.168
10638WAT      O32155   7.146   2.236   4.741
10638WAT     H132156   7.047   2.239   4.757
10638WAT     H232157   7.176   2.141   4.738
10639WAT      O32158   9.706   6.212   4.074
10639WAT     H132159   9.637   6.248   4.136
10639WAT     H232160   9.667   6.202   3.982
10640WAT      O32161   9.189   4.650   3.152
10640WAT     H132162   9.153   4.743   3.156
10640WAT     H232163   9.287   4.651   3.169
10641WAT      O32164   9.496   5.169   1.433
10641WAT     H132165   9.505   5.156   1.532
10641WAT     H232166   9.418   5.228   1.414
10642WAT      O32167   9.754   2.873   6.552
10642WAT     H132168   9.819   2.818   6.606
10642WAT     H232169   9.665   2.828   6.551
10643WAT      O32170   3.322   2.302   8.670
10643WAT     H132171   3.416   2.322   8.699
10643WAT     H232172   3.288   2.222   8.719
10644WAT      O32173   5.636   4.054   2.365
10644WAT     H132174   5.719   4.093   2.404
10644WAT     H232175   5.597   4.119   2.299
10645WAT      O32176   4.037   7.289   5.536
10645WAT     H132177   4.062   7.376   5.491
10645WAT     H232178   4.036   7.216   5.467
10646WAT      O32179   2.206   7.292   2.936
10646WAT     H132180   2.239   7.211   2.983
10646WAT     H232181   2.273   7.321   2.868
10647WAT      O32182   7.636   9.633   8.132
10647WAT     H132183   7.655   9.704   8.065
10647WAT     H232184   7.712   9.628   8.198
10648WAT      O32185   4.085   7.212   0.620
10648WAT     H132186   4.104   7.288   0.558
10648WAT     H232187   4.061   7.131   0.566
10649WAT      O32188   3.416   1.204   8.249
10649WAT     H132189   3.490   1.243   8.195
10649WAT     H232190   3.419   1.105   8.245
10650WAT      O32191   6.127   0.794   6.116
10650WAT     H132192   6.169   0.776   6.027
10650WAT     H232193   6.083   0.710   6.149
10651WAT      O32194   2.102   5.345   1.316
10651WAT     H132195   2.097   5.317   1.412
10651WAT     H232196   2.163   5.283   1.266
10652WAT      O32197   8.129   6.579   8.846
10652WAT     H132198   8.058   6.626   8.793
10652WAT     H232199   8.211   6.570   8.790
10653WAT      O32200   6.270   1.063   3.872
10653WAT     H132201   6.249   1.092   3.965
10653WAT     H232202   6.365   1.086   3.850
10654WAT      O32203   2.330   6.587   2.913
10654WAT     H132204   2.277   6.565   2.995
10654WAT     H232205   2.421   6.620   2.940
10655WAT      O32206   2.637   8.033   1.314
10655WAT     H132207   2.609   8.086   1.234
10655WAT     H232208   2.718   8.076   1.356
10656WAT      O32209   4.135   8.042   1.590
10656WAT     H132210   4.203   8.012   1.656
10656WAT     H232211   4.113   8.139   1.606
10657WAT      O32212   3.926   9.130   4.677
10657WAT     H132213   3.990   9.195   4.636
10657WAT     H232214   3.881   9.078   4.604
10658WAT      O32215   8.661   9.156   2.687
10658WAT     H132216   8.632   9.233   2.743
10658WAT     H232217   8.634   9.171   2.592
10659WAT      O32218   8.269   9.747   7.783
10659WAT     H132219   8.187   9.731   7.728
10659WAT     H232220   8.344   9.690   7.749
10660WAT      O32221   5.265   7.544   6.424
10660WAT     H132222   5.354   7.589   6.423
10660WAT     H232223   5.192   7.613   6.425
10661WAT      O32224   9.229   8.026   0.205
10661WAT     H132225   9.281   7.983   0.130
10661WAT     H232226   9.292   8.049   0.279
10662WAT      O32227   5.422   6.408   2.841
10662WAT     H132228   5.433   6.471   2.918
10662WAT     H232229   5.330   6.417   2.803
10663WAT      O32230   8.136   5.829   6.632
10663WAT     H132231   8.158   5.732   6.647
10663WAT     H232232   8.168   5.856   6.542
10664WAT      O32233   7.361   5.901   9.321
10664WAT     H132234   7.400   5.884   9.412
10664WAT     H232235   7.287   5.967   9.329
10665WAT      O32236   0.991   8.171   7.168
10665WAT     H132237   1.011   8.095   7.230
10665WAT     H232238   1.058   8.244   7.181
10666WAT      O32239   3.535   8.144   8.210
10666WAT     H132240   3.624   8.188   8.207
10666WAT     H232241   3.543   8.054   8.254
10667WAT      O32242   8.931   0.912   7.121
10667WAT     H132243   9.004   0.934   7.057
10667WAT     H232244   8.881   0.996   7.145
10668WAT      O32245   4.099   7.745   6.507
10668WAT     H132246   4.171   7.805   6.473
10668WAT     H232247   4.076   7.771   6.601
10669WAT      O32248   3.468   5.330   6.960
10669WAT     H132249   3.492   5.233   6.955
10669WAT     H232250   3.396   5.342   7.029
10670WAT      O32251   3.276   4.444   3.484
10670WAT     H132252   3.257   4.359   3.434
10670WAT     H232253   3.348   4.428   3.551
10671WAT      O32254   5.827   4.038   3.757
10671WAT     H132255   5.907   4.096   3.772
10671WAT     H232256   5.794   4.050   3.663
10672WAT      O32257   7.978   1.449   4.630
10672WAT     H132258   8.020   1.494   4.709
10672WAT     H232259   7.885   1.482   4.619
10673WAT      O32260   7.384   9.808   3.088
10673WAT     H132261   7.341   9.888   3.046
10673WAT     H232262   7.414   9.745   3.017
10674WAT      O32263   0.785   0.027   9.462
10674WAT     H132264   0.827   0.118   9.452
10674WAT     H232265   0.701   0.023   9.408
10675WAT      O32266   8.059   9.650   4.858
10675WAT     H132267   7.982   9.653   4.795
10675WAT     H232268   8.127   9.718   4.831
10676WAT      O32269   0.489   1.877   7.520
10676WAT     H132270   0.403   1.844   7.558
10676WAT     H232271   0.533   1.803   7.468
10677WAT      O32272   2.238   6.182   2.146
10677WAT     H132273   2.241   6.195   2.245
10677WAT     H232274   2.266   6.089   2.124
10678WAT      O32275   5.819   4.367   3.342
10678WAT     H132276   5.726   4.401   3.357
10678WAT     H232277   5.885   4.441   3.356
10679WAT      O32278   1.353   6.334   3.758
10679WAT     H132279   1.347   6.354   3.855
10679WAT     H232280   1.358   6.419   3.706
10680WAT      O32281   5.770   7.368   9.448
10680WAT     H132282   5.671   7.350   9.447
10680WAT     H232283   5.793   7.427   9.372
10681WAT      O32284   4.363   2.243   7.516
10681WAT     H132285   4.291   2.311   7.524
10681WAT     H232286   4.452   2.288   7.511
10682WAT      O32287   1.405   8.325   8.780
10682WAT     H132288   1.427   8.306   8.876
10682WAT     H232289   1.463   8.400   8.747
10683WAT      O32290   1.673   1.083   3.778
10683WAT     H132291   1.629   1.160   3.731
10683WAT     H232292   1.772   1.089   3.767
10684WAT      O32293   7.277   8.786   9.501
10684WAT     H132294   7.201   8.756   9.444
10684WAT     H232295   7.337   8.846   9.448
10685WAT      O32296   5.979   7.105   2.939
10685WAT     H132297   5.932   7.069   3.019
10685WAT     H232298   5.922   7.092   2.858
10686WAT      O32299   5.119   9.198   5.495
10686WAT     H132300   5.055   9.265   5.532
10686WAT     H232301   5.163   9.150   5.571
10687WAT      O32302   1.941   6.280   9.713
10687WAT     H132303   1.993   6.205   9.752
10687WAT     H232304   1.891   6.248   9.632
10688WAT      O32305   9.027   2.752   3.920
10688WAT     H132306   8.949   2.808   3.895
10688WAT     H232307   9.053   2.771   4.014
10689WAT      O32308   9.090   7.113   2.257
10689WAT     H132309   9.095   7.043   2.328
10689WAT     H232310   9.171   7.107   2.199
10690WAT      O32311   2.056   0.592   9.582
10690WAT     H132312   2.019   0.503   9.555
10690WAT     H232313   2.124   0.580   9.654
10691WAT      O32314   0.460   8.874   7.376
10691WAT     H132315   0.377   8.866   7.432
10691WAT     H232316   0.508   8.786   7.376
10692WAT      O32317   2.636   0.473   2.290
10692WAT     H132318   2.599   0.380   2.289
10692WAT     H232319   2.640   0.506   2.384
10693WAT      O32320   0.147   1.664   3.004
10693WAT     H132321   0.086   1.622   3.072
10693WAT     H232322   0.092   1.702   2.929
10694WAT      O32323   4.523   4.623   1.701
10694WAT     H132324   4.586   4.570   1.757
10694WAT     H232325   4.509   4.578   1.613
10695WAT      O32326   3.639   0.910   2.600
10695WAT     H132327   3.610   0.978   2.668
10695WAT     H232328   3.733   0.928   2.572
10696WAT      O32329   6.905   3.954   3.145
10696WAT     H132330   6.945   3.998   3.065
10696WAT     H232331   6.971   3.954   3.220
10697WAT      O32332   3.504   7.038   8.505
10697WAT     H132333   3.438   7.110   8.526
10697WAT     H232334   3.595   7.078   8.493
10698WAT      O32335   0.677   0.981   0.128
10698WAT     H132336   0.666   0.882   0.142
10698WAT     H232337   0.588   1.026   0.141
10699WAT      O32338   7.584   4.128   1.527
10699WAT     H132339   7.668   4.074   1.541
10699WAT     H232340   7.517   4.102   1.596
10700WAT      O32341   6.345   1.603   8.807
10700WAT     H132342   6.261   1.655   8.794
10700WAT     H232343   6.424   1.660   8.786
10701WAT      O32344   0.125   1.330   0.902
10701WAT     H132345   0.085   1.421   0.912
10701WAT     H232346   0.117   1.300   0.807
10702WAT      O32347   3.301   4.443   8.188
10702WAT     H132348   3.322   4.433   8.090
10702WAT     H232349   3.257   4.360   8.221
10703WAT      O32350   1.599   5.715   6.748
10703WAT     H132351   1.523   5.720   6.814
10703WAT     H232352   1.686   5.716   6.797
10704WAT      O32353   1.027   3.323   7.154
10704WAT     H132354   0.997   3.324   7.249
10704WAT     H232355   1.050   3.416   7.126
10705WAT      O32356   1.219   7.806   2.982
10705WAT     H132357   1.269   7.876   2.931
10705WAT     H232358   1.274   7.722   2.985
10706WAT      O32359   3.928   3.889   9.359
10706WAT     H132360   3.901   3.981   9.330
10706WAT     H232361   4.020   3.869   9.326
10707WAT      O32362   8.597   9.580   9.640
10707WAT     H132363   8.635   9.536   9.559
10707WAT     H232364   8.556   9.510   9.699
10708WAT      O32365   0.148   5.570   5.120
10708WAT     H132366   0.247   5.565   5.138
10708WAT     H232367   0.128   5.524   5.034
10709WAT      O32368   1.477   7.959   6.650
10709WAT     H132369   1.447   8.017   6.726
10709WAT     H232370   1.572   7.931   6.666
10710WAT      O32371   2.905   3.931   4.771
10710WAT     H132372   2.979   3.948   4.836
10710WAT     H232373   2.836   3.872   4.814
10711WAT      O32374   3.367   7.618   6.568
10711WAT     H132375   3.411   7.704   6.543
10711WAT     H232376   3.281   7.609   6.517
10712WAT      O32377   5.269   8.466   3.294
10712WAT     H132378   5.343   8.507   3.346
10712WAT     H232379   5.221   8.536   3.242
10713WAT      O32380   2.846   0.072   0.080
10713WAT     H132381   2.854   0.029  -0.010
10713WAT     H232382   2.822   0.168   0.068
10714WAT      O32383   3.949   8.153   3.857
10714WAT     H132384   3.935   8.210   3.777
10714WAT     H232385   4.037   8.106   3.850
10715WAT      O32386   1.130   8.199   6.471
10715WAT     H132387   1.146   8.274   6.534
10715WAT     H232388   1.098   8.119   6.522
10716WAT      O32389   8.800   1.073   3.373
10716WAT     H132390   8.799   1.166   3.336
10716WAT     H232391   8.762   1.072   3.465
10717WAT      O32392   6.236   8.802   2.316
10717WAT     H132393   6.249   8.819   2.414
10717WAT     H232394   6.299   8.730   2.286
10718WAT      O32395   1.569   9.696   2.670
10718WAT     H132396   1.521   9.658   2.749
10718WAT     H232397   1.512   9.766   2.627
10719WAT      O32398   6.738   1.973   1.594
10719WAT     H132399   6.683   1.895   1.564
10719WAT     H232400   6.732   2.047   1.527
10720WAT      O32401   0.805   5.849   2.846
10720WAT     H132402   0.866   5.918   2.885
10720WAT     H232403   0.853   5.799   2.773
10721WAT      O32404   6.339   3.166   2.432
10721WAT     H132405   6.419   3.129   2.480
10721WAT     H232406   6.349   3.149   2.334
10722WAT      O32407   3.977   8.788   6.627
10722WAT     H132408   4.056   8.738   6.590
10722WAT     H232409   4.008   8.850   6.700
10723WAT      O32410   6.534   5.970   5.943
10723WAT     H132411   6.501   5.880   5.971
10723WAT     H232412   6.506   6.038   6.011
10724WAT      O32413   8.898   1.799   1.689
10724WAT     H132414   8.965   1.851   1.636
10724WAT     H232415   8.839   1.862   1.740
10725WAT      O32416   4.636   8.614   1.987
10725WAT     H132417   4.589   8.647   1.905
10725WAT     H232418   4.726   8.578   1.961
10726WAT      O32419   9.682   4.203   5.593
10726WAT     H132420   9.604   4.243   5.640
10726WAT     H232421   9.679   4.103   5.603
10727WAT      O32422   2.055   2.501   1.421
10727WAT     H132423   2.032   2.459   1.333
10727WAT     H232424   1.976   2.550   1.456
10728WAT      O32425   1.055   0.534   2.679
10728WAT     H132426   1.006   0.484   2.608
10728WAT     H232427   1.045   0.485   2.766
10729WAT      O32428   2.703   7.073   6.573
10729WAT     H132429   2.605   7.062   6.552
10729WAT     H232430   2.714   7.091   6.671
10730WAT      O32431   1.738   1.186   4.389
10730WAT     H132432   1.662   1.134   4.351
10730WAT     H232433   1.810   1.194   4.319
10731WAT      O32434   3.888   0.731   1.214
10731WAT     H132435   3.948   0.654   1.192
10731WAT     H232436   3.900   0.757   1.309
10732WAT      O32437   2.014   8.720   2.301
10732WAT     H132438   2.087   8.668   2.257
10732WAT     H232439   2.049   8.761   2.386
10733WAT      O32440   2.075   2.665   9.228
10733WAT     H132441   2.162   2.647   9.183
10733WAT     H232442   2.001   2.622   9.175
10734WAT      O32443   7.785   5.019   5.132
10734WAT     H132444   7.802   4.921   5.140
10734WAT     H232445   7.862   5.063   5.086
10735WAT      O32446   6.444   2.501   5.944
10735WAT     H132447   6.450   2.407   5.978
10735WAT     H232448   6.366   2.509   5.882
10736WAT      O32449   9.746   2.138   8.691
10736WAT     H132450   9.806   2.134   8.771
10736WAT     H232451   9.738   2.233   8.660
10737WAT      O32452   4.332   5.167   2.211
10737WAT     H132453   4.353   5.122   2.124
10737WAT     H232454   4.409   5.157   2.273
10738WAT      O32455   5.366   8.446   4.139
10738WAT     H132456   5.299   8.451   4.214
10738WAT     H232457   5.444   8.505   4.160
10739WAT      O32458   5.210   2.196   6.740
10739WAT     H132459   5.171   2.263   6.803
10739WAT     H232460   5.137   2.143   6.699
10740WAT      O32461   8.596   7.433   8.211
10740WAT     H132462   8.617   7.521   8.252
10740WAT     H232463   8.616   7.437   8.113
10741WAT      O32464   5.341   5.367   9.681
10741WAT     H132465   5.293   5.284   9.652
10741WAT     H232466   5.407   5.393   9.610
10742WAT      O32467   5.244   8.387   0.927
10742WAT     H132468   5.286   8.463   0.877
10742WAT     H232469   5.284   8.380   1.018
10743WAT      O32470   9.049   6.446   8.595
10743WAT     H132471   9.018   6.440   8.500
10743WAT     H232472   9.048   6.354   8.635
10744WAT      O32473   4.814   9.549   2.570
10744WAT     H132474   4.715   9.537   2.572
10744WAT     H232475   4.846   9.570   2.662
10745WAT      O32476   3.909   1.412   2.429
10745WAT     H132477   4.007   1.430   2.426
10745WAT     H232478   3.861   1.496   2.454
10746WAT      O32479   5.174   8.966   0.225
10746WAT     H132480   5.245   9.004   0.165
10746WAT     H232481   5.095   8.939   0.170
10747WAT      O32482   0.629   7.066   4.221
10747WAT     H132483   0.607   7.152   4.175
10747WAT     H232484   0.658   7.085   4.315
10748WAT      O32485   7.898   3.483   2.486
10748WAT     H132486   7.910   3.581   2.469
10748WAT     H232487   7.849   3.470   2.573
10749WAT      O32488   6.635   2.781   3.805
10749WAT     H132489   6.535   2.779   3.795
10749WAT     H232490   6.661   2.861   3.861
10750WAT      O32491   6.637   3.634   9.210
10750WAT     H132492   6.658   3.682   9.295
10750WAT     H232493   6.720   3.593   9.173
10751WAT      O32494   6.809   8.793   2.954
10751WAT     H132495   6.803   8.694   2.961
10751WAT     H232496   6.849   8.831   3.037
10752WAT      O32497   8.929   8.739   0.855
10752WAT     H132498   8.899   8.643   0.857
10752WAT     H232499   8.984   8.757   0.936
10753WAT      O32500   5.574   3.119   5.632
10753WAT     H132501   5.663   3.074   5.635
10753WAT     H232502   5.510   3.065   5.577
10754WAT      O32503   1.943   1.698   3.975
10754WAT     H132504   1.917   1.621   4.034
10754WAT     H232505   1.912   1.680   3.881
10755WAT      O32506   0.330   8.202   2.551
10755WAT     H132507   0.381   8.116   2.552
10755WAT     H232508   0.393   8.277   2.527
10756WAT      O32509   7.572   3.541   6.613
10756WAT     H132510   7.482   3.542   6.658
10756WAT     H232511   7.641   3.508   6.678
10757WAT      O32512   3.039   8.190   7.525
10757WAT     H132513   3.062   8.106   7.477
10757WAT     H232514   3.011   8.169   7.619
10758WAT      O32515   2.567   6.226   7.932
10758WAT     H132516   2.561   6.324   7.913
10758WAT     H232517   2.475   6.188   7.942
10759WAT      O32518   0.185   0.712   9.310
10759WAT     H132519   0.091   0.723   9.280
10759WAT     H232520   0.197   0.621   9.351
10760WAT      O32521   1.713   7.878   4.842
10760WAT     H132522   1.620   7.851   4.868
10760WAT     H232523   1.738   7.833   4.756
10761WAT      O32524   1.079   5.433   1.031
10761WAT     H132525   1.007   5.472   1.089
10761WAT     H232526   1.161   5.490   1.037
10762WAT      O32527   6.470   4.643   8.408
10762WAT     H132528   6.534   4.671   8.480
10762WAT     H232529   6.408   4.719   8.387
10763WAT      O32530   5.641   5.897   8.641
10763WAT     H132531   5.573   5.844   8.691
10763WAT     H232532   5.656   5.855   8.551
10764WAT      O32533   2.671   0.755   6.704
10764WAT     H132534   2.715   0.704   6.630
10764WAT     H232535   2.736   0.820   6.743
10765WAT      O32536   1.070   8.310   0.091
10765WAT     H132537   1.125   8.245   0.143
10765WAT     H232538   1.105   8.315  -0.003
10766WAT      O32539   2.386   1.031   5.246
10766WAT     H132540   2.381   1.101   5.317
10766WAT     H232541   2.413   1.074   5.160
10767WAT      O32542   1.209   4.842   9.710
10767WAT     H132543   1.216   4.855   9.808
10767WAT     H232544   1.115   4.816   9.686
10768WAT      O32545   7.121   4.302   8.459
10768WAT     H132546   7.193   4.233   8.446
10768WAT     H232547   7.070   4.313   8.374
10769WAT      O32548   1.532   8.250   6.250
10769WAT     H132549   1.559   8.346   6.244
10769WAT     H232550   1.578   8.208   6.329
10770WAT      O32551   4.764   4.488   7.459
10770WAT     H132552   4.750   4.480   7.557
10770WAT     H232553   4.681   4.458   7.411
10771WAT      O32554   3.699   6.166   6.680
10771WAT     H132555   3.708   6.117   6.767
10771WAT     H232556   3.618   6.132   6.631
10772WAT      O32557   5.952   3.335   4.442
10772WAT     H132558   5.920   3.411   4.500
10772WAT     H232559   5.884   3.316   4.372
10773WAT      O32560   5.984   4.279   5.635
10773WAT     H132561   5.907   4.323   5.681
10773WAT     H232562   6.058   4.264   5.700
10774WAT      O32563   8.580   7.893   4.654
10774WAT     H132564   8.603   7.885   4.751
10774WAT     H232565   8.645   7.954   4.609
10775WAT      O32566   7.116   8.770   5.154
10775WAT     H132567   7.033   8.724   5.187
10775WAT     H232568   7.116   8.772   5.054
10776WAT      O32569   6.842   6.304   1.849
10776WAT     H132570   6.775   6.305   1.776
10776WAT     H232571   6.908   6.378   1.835
10777WAT      O32572   2.347   4.015   9.737
10777WAT     H132573   2.345   4.114   9.743
10777WAT     H232574   2.432   3.981   9.778
10778WAT      O32575   2.321   5.354   2.697
10778WAT     H132576   2.281   5.313   2.615
10778WAT     H232577   2.309   5.453   2.695
10779WAT      O32578   0.299   4.307   3.507
10779WAT     H132579   0.366   4.362   3.458
10779WAT     H232580   0.216   4.298   3.452
10780WAT      O32581   7.572   4.331   1.005
10780WAT     H132582   7.660   4.288   1.024
10780WAT     H232583   7.553   4.400   1.075
10781WAT      O32584   6.516   7.870   5.940
10781WAT     H132585   6.556   7.909   5.857
10781WAT     H232586   6.469   7.942   5.991
10782WAT      O32587   0.931   0.427   6.049
10782WAT     H132588   0.928   0.515   6.003
10782WAT     H232589   0.849   0.416   6.106
10783WAT      O32590   0.203   7.105   2.914
10783WAT     H132591   0.213   7.006   2.902
10783WAT     H232592   0.256   7.134   2.994
10784WAT      O32593   6.403   0.085   2.200
10784WAT     H132594   6.386   0.114   2.294
10784WAT     H232595   6.462   0.152   2.155
10785WAT      O32596   2.744   5.854   6.401
10785WAT     H132597   2.742   5.757   6.423
10785WAT     H232598   2.783   5.905   6.477
10786WAT      O32599   0.236   1.733   0.006
10786WAT     H132600   0.173   1.659   0.031
10786WAT     H232601   0.184   1.809  -0.034
10787WAT      O32602   2.180   9.362   1.282
10787WAT     H132603   2.158   9.459   1.291
10787WAT     H232604   2.125   9.310   1.347
10788WAT      O32605   1.920   6.289   9.069
10788WAT     H132606   1.842   6.304   9.008
10788WAT     H232607   2.002   6.331   9.029
10789WAT      O32608   8.413   6.611   6.936
10789WAT     H132609   8.456   6.525   6.910
10789WAT     H232610   8.402   6.669   6.855
10790WAT      O32611   3.635   9.837   6.264
10790WAT     H132612   3.679   9.764   6.316
10790WAT     H232613   3.591   9.798   6.183
10791WAT      O32614   6.579   8.328   3.266
10791WAT     H132615   6.676   8.318   3.244
10791WAT     H232616   6.525   8.267   3.207
10792WAT      O32617   4.660   1.283   5.510
10792WAT     H132618   4.742   1.239   5.473
10792WAT     H232619   4.621   1.226   5.582
10793WAT      O32620   2.721   3.248   7.208
10793WAT     H132621   2.701   3.187   7.131
10793WAT     H232622   2.639   3.299   7.231
10794WAT      O32623   6.966   1.966   8.821
10794WAT     H132624   6.897   2.016   8.873
10794WAT     H232625   6.995   1.885   8.873
10795WAT      O32626   1.931   0.192   4.367
10795WAT     H132627   1.978   0.271   4.406
10795WAT     H232628   1.842   0.182   4.411
10796WAT      O32629   4.423   1.557   6.280
10796WAT     H132630   4.379   1.611   6.352
10796WAT     H232631   4.371   1.565   6.195
10797WAT      O32632   7.806   9.394   7.911
10797WAT     H132633   7.714   9.433   7.904
10797WAT     H232634   7.801   9.295   7.901
10798WAT      O32635   4.375   9.230   7.536
10798WAT     H132636   4.398   9.253   7.630
10798WAT     H232637   4.304   9.292   7.503
10799WAT      O32638   9.490   4.799   1.316
10799WAT     H132639   9.464   4.819   1.410
10799WAT     H232640   9.505   4.885   1.267
10800WAT      O32641   7.056   9.709   8.596
10800WAT     H132642   7.058   9.807   8.574
10800WAT     H232643   7.142   9.667   8.568
10801WAT      O32644   0.090   7.742   4.483
10801WAT     H132645   0.023   7.812   4.462
10801WAT     H232646   0.084   7.717   4.579
10802WAT      O32647   4.704   1.049   6.556
10802WAT     H132648   4.782   1.099   6.518
10802WAT     H232649   4.734   0.960   6.590
10803WAT      O32650   6.650   6.292   2.027
10803WAT     H132651   6.681   6.272   2.120
10803WAT     H232652   6.726   6.282   1.963
10804WAT      O32653   4.628   4.083   2.493
10804WAT     H132654   4.721   4.052   2.511
10804WAT     H232655   4.587   4.026   2.421
10805WAT      O32656   5.070   0.340   4.027
10805WAT     H132657   4.973   0.336   4.049
10805WAT     H232658   5.119   0.268   4.077
10806WAT      O32659   0.573   0.107   8.538
10806WAT     H132660   0.654   0.048   8.539
10806WAT     H232661   0.542   0.123   8.632
10807WAT      O32662   2.854   8.422   1.994
10807WAT     H132663   2.786   8.379   2.053
10807WAT     H232664   2.814   8.439   1.904
10808WAT      O32665   6.344   9.676   6.393
10808WAT     H132666   6.257   9.671   6.345
10808WAT     H232667   6.329   9.660   6.491
10809WAT      O32668   9.250   0.359   8.495
10809WAT     H132669   9.222   0.367   8.590
10809WAT     H232670   9.214   0.274   8.457
10810WAT      O32671   7.363   6.292   3.499
10810WAT     H132672   7.308   6.375   3.506
10810WAT     H232673   7.361   6.259   3.404
10811WAT      O32674   9.561   6.395   9.347
10811WAT     H132675   9.579   6.447   9.430
10811WAT     H232676   9.463   6.396   9.328
10812WAT      O32677   4.023   4.423   8.142
10812WAT     H132678   4.023   4.378   8.231
10812WAT     H232679   3.930   4.428   8.106
10813WAT      O32680   2.357   8.712   3.126
10813WAT     H132681   2.396   8.765   3.050
10813WAT     H232682   2.426   8.648   3.159
10814WAT      O32683   7.502   2.665   1.235
10814WAT     H132684   7.445   2.671   1.317
10814WAT     H232685   7.525   2.756   1.203
10815WAT      O32686   1.145   6.894   6.916
10815WAT     H132687   1.224   6.836   6.935
10815WAT     H232688   1.169   6.989   6.934
10816WAT      O32689   1.023   5.889   9.716
10816WAT     H132690   1.068   5.959   9.771
10816WAT     H232691   1.057   5.799   9.742
10817WAT      O32692   2.992   9.267   3.320
10817WAT     H132693   3.055   9.210   3.374
10817WAT     H232694   2.959   9.343   3.377
10818WAT      O32695   2.623   4.962   1.863
10818WAT     H132696   2.590   4.935   1.772
10818WAT     H232697   2.712   4.918   1.880
10819WAT      O32698   6.926   4.698   1.031
10819WAT     H132699   7.011   4.701   0.978
10819WAT     H232700   6.867   4.773   1.003
10820WAT      O32701   8.238   8.367   6.694
10820WAT     H132702   8.285   8.285   6.660
10820WAT     H232703   8.200   8.418   6.617
10821WAT      O32704   7.303   7.445   5.038
10821WAT     H132705   7.393   7.405   5.022
10821WAT     H232706   7.234   7.373   5.035
10822WAT      O32707   2.866   0.193   6.564
10822WAT     H132708   2.787   0.232   6.515
10822WAT     H232709   2.923   0.142   6.499
10823WAT      O32710   6.092   8.152   7.523
10823WAT     H132711   6.171   8.120   7.471
10823WAT     H232712   6.103   8.249   7.546
10824WAT      O32713   5.538   0.868   1.778
10824WAT     H132714   5.633   0.853   1.752
10824WAT     H232715   5.501   0.786   1.821
10825WAT      O32716   7.339   9.836   9.663
10825WAT     H132717   7.280   9.892   9.606
10825WAT     H232718   7.429   9.878   9.671
10826WAT      O32719   5.746   7.780   3.240
10826WAT     H132720   5.834   7.827   3.234
10826WAT     H232721   5.760   7.684   3.264
10827WAT      O32722   7.268   6.979   7.842
10827WAT     H132723   7.295   6.887   7.872
10827WAT     H232724   7.274   6.985   7.743
10828WAT      O32725   1.827   8.511   2.879
10828WAT     H132726   1.789   8.563   2.956
10828WAT     H232727   1.899   8.450   2.913
10829WAT      O32728   7.696   2.542   2.389
10829WAT     H132729   7.793   2.523   2.372
10829WAT     H232730   7.640   2.483   2.331
10830WAT      O32731   9.551   2.971   8.702
10830WAT     H132732   9.497   2.958   8.618
10830WAT     H232733   9.544   2.889   8.759
10831WAT      O32734   4.754   4.192   9.273
10831WAT     H132735   4.780   4.250   9.351
10831WAT     H232736   4.835   4.172   9.218
10832WAT      O32737   1.142   3.294   6.872
10832WAT     H132738   1.069   3.309   6.939
10832WAT     H232739   1.212   3.235   6.911
10833WAT      O32740   5.808   5.427   9.164
10833WAT     H132741   5.744   5.503   9.158
10833WAT     H232742   5.758   5.340   9.161
10834WAT      O32743   0.250   3.012   6.245
10834WAT     H132744   0.196   3.063   6.312
10834WAT     H232745   0.191   2.950   6.193
10835WAT      O32746   7.674   2.718   6.953
10835WAT     H132747   7.582   2.735   6.920
10835WAT     H232748   7.724   2.664   6.885
10836WAT      O32749   9.232   7.253   9.300
10836WAT     H132750   9.208   7.325   9.235
10836WAT     H232751   9.216   7.164   9.258
10837WAT      O32752   0.594   3.114   4.531
10837WAT     H132753   0.632   3.069   4.450
10837WAT     H232754   0.554   3.045   4.592
10838WAT      O32755   0.037   8.580   0.652
10838WAT     H132756   0.031   8.680   0.648
10838WAT     H232757   0.065   8.544   0.563
10839WAT      O32758   9.297   2.764   5.227
10839WAT     H132759   9.313   2.833   5.156
10839WAT     H232760   9.206   2.777   5.266
10840WAT      O32761   8.373   1.902   4.140
10840WAT     H132762   8.326   1.893   4.228
10840WAT     H232763   8.429   1.821   4.124
10841WAT      O32764   5.257   3.918   9.558
10841WAT     H132765   5.247   4.012   9.525
10841WAT     H232766   5.252   3.855   9.481
10842WAT      O32767   1.156   6.334   3.279
10842WAT     H132768   1.232   6.398   3.286
10842WAT     H232769   1.071   6.380   3.307
10843WAT      O32770   4.350   0.199   1.280
10843WAT     H132771   4.318   0.109   1.312
10843WAT     H232772   4.326   0.269   1.347
10844WAT      O32773   0.500   5.747   1.352
10844WAT     H132774   0.461   5.813   1.416
10844WAT     H232775   0.510   5.658   1.398
10845WAT      O32776   8.052   7.579   1.275
10845WAT     H132777   8.001   7.494   1.287
10845WAT     H232778   8.150   7.561   1.279
10846WAT      O32779   6.934   4.332   8.661
10846WAT     H132780   6.941   4.373   8.752
10846WAT     H232781   7.022   4.337   8.615
10847WAT      O32782   7.986   5.809   8.519
10847WAT     H132783   7.889   5.803   8.497
10847WAT     H232784   8.014   5.905   8.524
10848WAT      O32785   5.024   4.680   1.671
10848WAT     H132786   5.046   4.777   1.662
10848WAT     H232787   5.039   4.650   1.765
10849WAT      O32788   5.624   3.258   1.010
10849WAT     H132789   5.564   3.330   1.045
10849WAT     H232790   5.673   3.215   1.087
10850WAT      O32791   6.009   3.498   9.649
10850WAT     H132792   5.933   3.562   9.661
10850WAT     H232793   5.974   3.404   9.653
10851WAT      O32794   8.781   9.045   9.599
10851WAT     H132795   8.811   8.990   9.677
10851WAT     H232796   8.772   9.141   9.626
10852WAT      O32797   2.309   6.548   4.744
10852WAT     H132798   2.318   6.516   4.839
10852WAT     H232799   2.328   6.646   4.739
10853WAT      O32800   6.104   0.010   1.238
10853WAT     H132801   6.116  -0.072   1.183
10853WAT     H232802   6.174   0.014   1.309
10854WAT      O32803   4.822   3.945   0.496
10854WAT     H132804   4.852   3.850   0.490
10854WAT     H232805   4.847   3.993   0.412
10855WAT      O32806   4.419   3.100   4.926
10855WAT     H132807   4.477   3.141   4.856
10855WAT     H232808   4.325   3.095   4.893
10856WAT      O32809   9.268   9.434   0.019
10856WAT     H132810   9.326   9.389   0.087
10856WAT     H232811   9.200   9.491   0.066
10857WAT      O32812   3.457   5.794   4.168
10857WAT     H132813   3.427   5.879   4.124
10857WAT     H232814   3.421   5.791   4.261
10858WAT      O32815   9.404   0.817   3.923
10858WAT     H132816   9.452   0.895   3.885
10858WAT     H232817   9.469   0.753   3.964
10859WAT      O32818   6.538   3.955   2.169
10859WAT     H132819   6.526   3.874   2.226
10859WAT     H232820   6.598   3.933   2.092
10860WAT      O32821   1.001   1.220   4.361
10860WAT     H132822   1.101   1.216   4.365
10860WAT     H232823   0.964   1.201   4.452
10861WAT      O32824   5.858   7.314   5.039
10861WAT     H132825   5.858   7.289   4.942
10861WAT     H232826   5.953   7.318   5.072
10862WAT      O32827   6.984   8.857   3.175
10862WAT     H132828   6.930   8.827   3.253
10862WAT     H232829   6.995   8.956   3.177
10863WAT      O32830   8.806   2.847   7.424
10863WAT     H132831   8.872   2.920   7.411
10863WAT     H232832   8.763   2.824   7.336
10864WAT      O32833   1.569   6.728   0.125
10864WAT     H132834   1.506   6.778   0.184
10864WAT     H232835   1.542   6.631   0.121
10865WAT      O32836   5.887   9.699   1.725
10865WAT     H132837   5.966   9.735   1.776
10865WAT     H232838   5.832   9.775   1.691
10866WAT      O32839   6.322   9.667   8.339
10866WAT     H132840   6.270   9.634   8.418
10866WAT     H232841   6.325   9.767   8.340
10867WAT      O32842   7.165  -0.002   4.595
10867WAT     H132843   7.236   0.068   4.595
10867WAT     H232844   7.079   0.038   4.562
10868WAT      O32845   6.461   5.279   2.026
10868WAT     H132846   6.385   5.341   2.006
10868WAT     H232847   6.426   5.198   2.073
10869WAT      O32848   5.946   7.707   2.942
10869WAT     H132849   5.947   7.608   2.926
10869WAT     H232850   5.875   7.749   2.884
10870WAT      O32851   1.422   1.321   5.344
10870WAT     H132852   1.460   1.409   5.314
10870WAT     H232853   1.356   1.289   5.277
10871WAT      O32854   6.302   3.968   2.818
10871WAT     H132855   6.325   4.062   2.794
10871WAT     H232856   6.216   3.942   2.774
10872WAT      O32857   2.700   2.339   0.528
10872WAT     H132858   2.622   2.325   0.468
10872WAT     H232859   2.706   2.436   0.552
10873WAT      O32860   7.571   4.743   3.056
10873WAT     H132861   7.569   4.788   3.145
10873WAT     H232862   7.499   4.781   2.998
10874WAT      O32863   2.086   0.764   7.565
10874WAT     H132864   2.099   0.703   7.487
10874WAT     H232865   2.173   0.782   7.610
10875WAT      O32866   3.956   8.621   1.528
10875WAT     H132867   4.032   8.625   1.464
10875WAT     H232868   3.876   8.580   1.483
10876WAT      O32869   1.876   4.029   8.600
10876WAT     H132870   1.809   4.102   8.611
10876WAT     H232871   1.854   3.976   8.518
10877WAT      O32872   2.810   2.594   0.213
10877WAT     H132873   2.725   2.544   0.199
10877WAT     H232874   2.888   2.539   0.184
10878WAT      O32875   6.384   3.876   2.468
10878WAT     H132876   6.306   3.819   2.495
10878WAT     H232877   6.352   3.966   2.441
10879WAT      O32878   5.601   3.358   5.448
10879WAT     H132879   5.563   3.451   5.446
10879WAT     H232880   5.594   3.321   5.540
10880WAT      O32881   7.823   1.265   3.202
10880WAT     H132882   7.832   1.174   3.244
10880WAT     H232883   7.733   1.303   3.226
10881WAT      O32884   5.899   0.012   9.204
10881WAT     H132885   5.890   0.110   9.225
10881WAT     H232886   5.960  -0.001   9.126
10882WAT      O32887   7.601   3.323   7.036
10882WAT     H132888   7.507   3.314   7.004
10882WAT     H232889   7.605   3.394   7.107
10883WAT      O32890   8.521   3.774   3.634
10883WAT     H132891   8.454   3.804   3.567
10883WAT     H232892   8.482   3.701   3.690
10884WAT      O32893   9.657   3.720   6.518
10884WAT     H132894   9.634   3.665   6.598
10884WAT     H232895   9.736   3.680   6.471
10885WAT      O32896   3.404   1.286   0.087
10885WAT     H132897   3.456   1.303   0.170
10885WAT     H232898   3.431   1.198   0.048
10886WAT      O32899   0.502   0.437   7.775
10886WAT     H132900   0.579   0.494   7.747
10886WAT     H232901   0.528   0.341   7.768
10887WAT      O32902   6.973   8.038   2.787
10887WAT     H132903   6.941   8.030   2.882
10887WAT     H232904   7.059   8.088   2.785
10888WAT      O32905   4.361   0.582   0.393
10888WAT     H132906   4.404   0.495   0.415
10888WAT     H232907   4.417   0.630   0.324
10889WAT      O32908   8.728   0.523   9.762
10889WAT     H132909   8.749   0.563   9.851
10889WAT     H232910   8.805   0.539   9.700
10890WAT      O32911   4.831   0.145   6.966
10890WAT     H132912   4.822   0.137   6.867
10890WAT     H232913   4.899   0.214   6.988
10891WAT      O32914   6.458   7.801   9.609
10891WAT     H132915   6.534   7.819   9.547
10891WAT     H232916   6.492   7.791   9.702
10892WAT      O32917   1.506   0.885   0.731
10892WAT     H132918   1.473   0.791   0.739
10892WAT     H232919   1.550   0.898   0.643
10893WAT      O32920   4.991   4.121   9.139
10893WAT     H132921   5.059   4.048   9.145
10893WAT     H232922   5.039   4.209   9.130
10894WAT      O32923   0.506   2.196   5.451
10894WAT     H132924   0.590   2.143   5.437
10894WAT     H232925   0.520   2.264   5.523
10895WAT      O32926   6.172   8.398   6.608
10895WAT     H132927   6.255   8.343   6.620
10895WAT     H232928   6.102   8.366   6.672
10896WAT      O32929   4.319   8.073   9.478
10896WAT     H132930   4.403   8.029   9.510
10896WAT     H232931   4.262   8.097   9.556
10897WAT      O32932   9.421   2.728   8.827
10897WAT     H132933   9.461   2.638   8.808
10897WAT     H232934   9.418   2.743   8.926
10898WAT      O32935   3.788   9.761   2.005
10898WAT     H132936   3.881   9.735   1.982
10898WAT     H232937   3.770   9.741   2.101
10899WAT      O32938   3.205   7.968   7.875
10899WAT     H132939   3.122   8.012   7.839
10899WAT     H232940   3.231   8.012   7.961
10900WAT      O32941   0.846   7.326   8.876
10900WAT     H132942   0.879   7.291   8.963
10900WAT     H232943   0.923   7.354   8.819
10901WAT      O32944   3.388   2.277   6.766
10901WAT     H132945   3.322   2.216   6.723
10901WAT     H232946   3.400   2.252   6.862
10902WAT      O32947   9.547   1.370   7.142
10902WAT     H132948   9.518   1.346   7.234
10902WAT     H232949   9.634   1.326   7.122
10903WAT      O32950   2.252   2.244   6.590
10903WAT     H132951   2.172   2.239   6.530
10903WAT     H232952   2.246   2.325   6.648
10904WAT      O32953   1.583   4.968   7.337
10904WAT     H132954   1.545   4.878   7.358
10904WAT     H232955   1.619   4.968   7.244
10905WAT      O32956   6.478   6.698   8.005
10905WAT     H132957   6.490   6.624   8.071
10905WAT     H232958   6.530   6.677   7.922
10906WAT      O32959   8.384   6.686   9.805
10906WAT     H132960   8.296   6.704   9.848
10906WAT     H232961   8.457   6.699   9.872
10907WAT      O32962   7.321   4.466   7.284
10907WAT     H132963   7.395   4.436   7.345
10907WAT     H232964   7.357   4.532   7.218
10908WAT      O32965   2.212   2.459   3.747
10908WAT     H132966   2.165   2.440   3.661
10908WAT     H232967   2.307   2.428   3.739
10909WAT      O32968   6.744   3.761   8.178
10909WAT     H132969   6.805   3.721   8.109
10909WAT     H232970   6.654   3.776   8.139
10910WAT      O32971   8.781   6.394   2.020
10910WAT     H132972   8.824   6.380   2.109
10910WAT     H232973   8.841   6.357   1.948
10911WAT      O32974   8.174   5.402   2.350
10911WAT     H132975   8.132   5.414   2.440
10911WAT     H232976   8.252   5.463   2.340
10912WAT      O32977   7.703   8.527   3.001
10912WAT     H132978   7.677   8.434   2.975
10912WAT     H232979   7.797   8.545   2.972
10913WAT      O32980   5.449   3.119   1.410
10913WAT     H132981   5.454   3.023   1.384
10913WAT     H232982   5.425   3.127   1.506
10914WAT      O32983   8.990   0.373   0.059
10914WAT     H132984   9.000   0.382  -0.040
10914WAT     H232985   8.965   0.462   0.098
10915WAT      O32986   8.524   1.619   8.534
10915WAT     H132987   8.585   1.672   8.475
10915WAT     H232988   8.539   1.647   8.629
10916WAT      O32989   9.033   2.671   3.308
10916WAT     H132990   8.942   2.690   3.272
10916WAT     H232991   9.073   2.755   3.345
10917WAT      O32992   4.166   1.789   1.021
10917WAT     H132993   4.080   1.774   0.972
10917WAT     H232994   4.239   1.737   0.977
10918WAT      O32995   7.146   8.492   2.865
10918WAT     H132996   7.216   8.422   2.879
10918WAT     H232997   7.151   8.559   2.938
10919WAT      O32998   2.470   7.104   3.272
10919WAT     H132999   2.537   7.155   3.219
10919WAT     H233000   2.411   7.168   3.322
10920WAT      O33001   9.677   9.677   3.172
10920WAT     H133002   9.756   9.649   3.227
10920WAT     H233003   9.707   9.740   3.101
10921WAT      O33004   1.505   7.172   5.224
10921WAT     H133005   1.424   7.226   5.246
10921WAT     H233006   1.581   7.199   5.284
10922WAT      O33007   0.951   7.796   1.699
10922WAT     H133008   0.933   7.721   1.762
10922WAT     H233009   0.887   7.871   1.717
10923WAT      O33010   2.610   1.017   9.553
10923WAT     H133011   2.652   0.978   9.471
10923WAT     H233012   2.510   1.013   9.544
10924WAT      O33013   2.350   4.621   8.686
10924WAT     H133014   2.422   4.633   8.754
10924WAT     H233015   2.276   4.685   8.705
10925WAT      O33016   8.100   8.943   6.629
10925WAT     H133017   8.185   8.921   6.676
10925WAT     H233018   8.114   9.021   6.568
10926WAT      O33019   7.624   1.568   1.364
10926WAT     H133020   7.631   1.513   1.447
10926WAT     H233021   7.528   1.584   1.342
10927WAT      O33022   1.141   1.832   2.457
10927WAT     H133023   1.136   1.841   2.357
10927WAT     H233024   1.228   1.791   2.482
10928WAT      O33025   5.971   0.293   5.307
10928WAT     H133026   6.053   0.253   5.268
10928WAT     H233027   5.917   0.221   5.352
10929WAT      O33028   1.327   5.470   0.375
10929WAT     H133029   1.398   5.490   0.308
10929WAT     H233030   1.354   5.507   0.464
10930WAT      O33031   5.400   8.387   3.707
10930WAT     H133032   5.433   8.309   3.652
10930WAT     H233033   5.478   8.429   3.754
10931WAT      O33034   1.899   9.835   3.510
10931WAT     H133035   1.879   9.816   3.413
10931WAT     H233036   1.980   9.893   3.516
10932WAT      O33037   4.209   3.695   6.111
10932WAT     H133038   4.210   3.715   6.013
10932WAT     H233039   4.284   3.632   6.132
10933WAT      O33040   0.959   0.582   2.013
10933WAT     H133041   0.915   0.496   1.990
10933WAT     H233042   0.949   0.599   2.112
10934WAT      O33043   6.614   6.967   9.521
10934WAT     H133044   6.686   6.978   9.589
10934WAT     H233045   6.645   7.003   9.433
10935WAT      O33046   4.312   4.227   3.390
10935WAT     H133047   4.235   4.246   3.330
10935WAT     H233048   4.345   4.134   3.373
10936WAT      O33049   0.596   4.529   6.707
10936WAT     H133050   0.532   4.480   6.648
10936WAT     H233051   0.547   4.569   6.784
10937WAT      O33052   4.349   5.328   5.648
10937WAT     H133053   4.325   5.254   5.711
10937WAT     H233054   4.417   5.296   5.582
10938WAT      O33055   7.569   7.949   3.441
10938WAT     H133056   7.484   7.951   3.493
10938WAT     H233057   7.617   7.864   3.459
10939WAT      O33058   2.196   1.846   0.362
10939WAT     H133059   2.231   1.822   0.271
10939WAT     H233060   2.121   1.910   0.353
10940WAT      O33061   5.414   3.779   4.736
10940WAT     H133062   5.361   3.792   4.820
10940WAT     H233063   5.351   3.773   4.658
10941WAT      O33064   5.292   2.464   1.066
10941WAT     H133065   5.219   2.511   1.116
10941WAT     H233066   5.352   2.418   1.131
10942WAT      O33067   1.991   0.846   8.764
10942WAT     H133068   1.969   0.916   8.831
10942WAT     H233069   2.046   0.886   8.690
10943WAT      O33070   8.271   8.369   7.077
10943WAT     H133071   8.185   8.414   7.051
10943WAT     H233072   8.252   8.298   7.145
10944WAT      O33073   5.113   1.226   1.902
10944WAT     H133074   5.094   1.188   1.992
10944WAT     H233075   5.056   1.181   1.834
10945WAT      O33076   5.112   7.917   4.274
10945WAT     H133077   5.165   7.840   4.309
10945WAT     H233078   5.171   7.976   4.220
10946WAT      O33079   5.496   5.447   5.307
10946WAT     H133080   5.581   5.410   5.269
10946WAT     H233081   5.475   5.534   5.262
10947WAT      O33082   7.143   6.774   8.488
10947WAT     H133083   7.181   6.862   8.519
10947WAT     H233084   7.134   6.775   8.389
10948WAT      O33085   2.759   3.465   1.946
10948WAT     H133086   2.777   3.467   2.044
10948WAT     H233087   2.786   3.553   1.905
10949WAT      O33088   0.489   1.607   9.068
10949WAT     H133089   0.478   1.593   8.969
10949WAT     H233090   0.484   1.519   9.115
10950WAT      O33091   3.805   0.060   1.030
10950WAT     H133092   3.706   0.047   1.035
10950WAT     H233093   3.839   0.027   0.942
10951WAT      O33094   4.349   0.628   8.656
10951WAT     H133095   4.377   0.674   8.741
10951WAT     H233096   4.359   0.691   8.579
10952WAT      O33097   7.073   3.645   9.255
10952WAT     H133098   7.036   3.613   9.342
10952WAT     H233099   7.029   3.596   9.180
10953WAT      O33100   0.536   4.817   7.220
10953WAT     H133101   0.541   4.741   7.284
10953WAT     H233102   0.464   4.880   7.247
10954WAT      O33103   8.525   0.366   4.998
10954WAT     H133104   8.531   0.424   5.079
10954WAT     H233105   8.438   0.317   4.999
10955WAT      O33106   7.104   2.972   0.381
10955WAT     H133107   7.081   2.894   0.439
10955WAT     H233108   7.095   2.945   0.285
10956WAT      O33109   7.574   0.816   1.427
10956WAT     H133110   7.544   0.729   1.388
10956WAT     H233111   7.674   0.822   1.421
10957WAT      O33112   4.372   9.259   6.414
10957WAT     H133113   4.439   9.189   6.388
10957WAT     H233114   4.412   9.350   6.403
10958WAT      O33115   2.708   9.632   4.983
10958WAT     H133116   2.753   9.701   5.039
10958WAT     H233117   2.776   9.570   4.945
10959WAT      O33118   0.421   2.191   7.620
10959WAT     H133119   0.519   2.199   7.634
10959WAT     H233120   0.374   2.197   7.708
10960WAT      O33121   5.071   5.430   9.773
10960WAT     H133122   5.159   5.391   9.745
10960WAT     H233123   5.048   5.506   9.712
10961WAT      O33124   6.627   3.657   0.300
10961WAT     H133125   6.702   3.665   0.235
10961WAT     H233126   6.642   3.722   0.375
10962WAT      O33127   6.562   1.735   6.050
10962WAT     H133128   6.592   1.659   6.107
10962WAT     H233129   6.465   1.752   6.067
10963WAT      O33130   9.851   3.828   9.415
10963WAT     H133131   9.856   3.801   9.319
10963WAT     H233132   9.904   3.911   9.430
10964WAT      O33133   9.717   9.704   2.172
10964WAT     H133134   9.758   9.756   2.097
10964WAT     H233135   9.622   9.681   2.150
10965WAT      O33136   9.775   8.566   1.375
10965WAT     H133137   9.760   8.516   1.461
10965WAT     H233138   9.825   8.650   1.394
10966WAT      O33139   9.586   6.697   0.858
10966WAT     H133140   9.527   6.701   0.777
10966WAT     H233141   9.681   6.686   0.830
10967WAT      O33142   6.584   0.213   0.754
10967WAT     H133143   6.494   0.228   0.714
10967WAT     H233144   6.604   0.287   0.819
10968WAT      O33145   6.039   9.582   5.936
10968WAT     H133146   5.943   9.572   5.963
10968WAT     H233147   6.059   9.516   5.864
10969WAT      O33148   7.455   2.375   5.009
10969WAT     H133149   7.447   2.341   4.916
10969WAT     H233150   7.551   2.376   5.037
10970WAT      O33151   1.187   4.861   7.397
10970WAT     H133152   1.209   4.791   7.464
10970WAT     H233153   1.179   4.950   7.442
10971WAT      O33154   8.995   3.910   2.158
10971WAT     H133155   8.939   3.976   2.108
10971WAT     H233156   9.092   3.932   2.144
10972WAT      O33157   7.503   4.831   7.037
10972WAT     H133158   7.596   4.867   7.043
10972WAT     H233159   7.438   4.906   7.032
10973WAT      O33160   8.634   5.638   4.692
10973WAT     H133161   8.684   5.695   4.757
10973WAT     H233162   8.699   5.590   4.633
10974WAT      O33163   2.377   0.059   6.997
10974WAT     H133164   2.441   0.047   7.073
10974WAT     H233165   2.417   0.121   6.929
10975WAT      O33166   2.346   3.340   6.043
10975WAT     H133167   2.423   3.401   6.060
10975WAT     H233168   2.315   3.351   5.948
10976WAT      O33169   6.616   2.532   6.366
10976WAT     H133170   6.701   2.571   6.401
10976WAT     H233171   6.545   2.538   6.436
10977WAT      O33172   7.622   9.276   5.994
10977WAT     H133173   7.570   9.193   6.013
10977WAT     H233174   7.566   9.356   6.012
10978WAT      O33175   0.675   8.889   3.995
10978WAT     H133176   0.604   8.959   3.994
10978WAT     H233177   0.762   8.931   4.023
10979WAT      O33178   6.469   3.440   4.857
10979WAT     H133179   6.420   3.371   4.803
10979WAT     H233180   6.560   3.405   4.879
10980WAT      O33181   4.063   0.902   1.823
10980WAT     H133182   4.013   0.833   1.772
10980WAT     H233183   4.036   0.993   1.791
10981WAT      O33184   9.517   5.130   8.948
10981WAT     H133185   9.469   5.045   8.926
10981WAT     H233186   9.451   5.203   8.964
10982WAT      O33187   2.480   2.999   0.216
10982WAT     H133188   2.436   3.065   0.155
10982WAT     H233189   2.425   2.989   0.299
10983WAT      O33190   5.136   9.026   3.933
10983WAT     H133191   5.117   8.936   3.896
10983WAT     H233192   5.226   9.026   3.977
10984WAT      O33193   7.544   6.330   0.916
10984WAT     H133194   7.452   6.333   0.875
10984WAT     H233195   7.593   6.249   0.883
10985WAT      O33196   2.459   6.447   1.533
10985WAT     H133197   2.363   6.424   1.551
10985WAT     H233198   2.466   6.545   1.512
10986WAT      O33199   8.258   3.631   5.524
10986WAT     H133200   8.171   3.680   5.520
10986WAT     H233201   8.320   3.667   5.453
10987WAT      O33202   5.746   6.047   9.500
10987WAT     H133203   5.765   5.965   9.553
10987WAT     H233204   5.724   6.021   9.406
10988WAT      O33205   8.485   6.178   3.535
10988WAT     H133206   8.530   6.126   3.463
10988WAT     H233207   8.396   6.211   3.503
10989WAT      O33208   4.894   6.878   0.329
10989WAT     H133209   4.828   6.935   0.379
10989WAT     H233210   4.975   6.864   0.386
10990WAT      O33211   2.895   3.743   6.239
10990WAT     H133212   2.904   3.738   6.339
10990WAT     H233213   2.936   3.662   6.198
10991WAT      O33214   7.564   3.486   8.585
10991WAT     H133215   7.612   3.418   8.639
10991WAT     H233216   7.471   3.454   8.565
10992WAT      O33217   1.473   1.907   5.920
10992WAT     H133218   1.469   1.848   6.001
10992WAT     H233219   1.556   1.888   5.868
10993WAT      O33220   1.919   6.937   8.114
10993WAT     H133221   1.940   7.034   8.124
10993WAT     H233222   1.980   6.896   8.047
10994WAT      O33223   4.449   3.643   8.796
10994WAT     H133224   4.431   3.552   8.833
10994WAT     H233225   4.424   3.712   8.863
10995WAT      O33226   1.966   7.761   6.553
10995WAT     H133227   1.942   7.667   6.526
10995WAT     H233228   1.985   7.763   6.651
10996WAT      O33229   9.443   6.893   9.171
10996WAT     H133230   9.429   6.834   9.092
10996WAT     H233231   9.541   6.904   9.187
10997WAT      O33232   8.414   6.906   9.612
10997WAT     H133233   8.315   6.908   9.598
10997WAT     H233234   8.438   6.826   9.667
10998WAT      O33235   8.977   0.908   7.845
10998WAT     H133236   8.896   0.895   7.787
10998WAT     H233237   9.057   0.872   7.798
10999WAT      O33238   9.231   9.226   1.042
10999WAT     H133239   9.230   9.217   0.942
10999WAT     H233240   9.153   9.178   1.080
11000WAT      O33241   6.438   4.772   2.416
11000WAT     H133242   6.512   4.811   2.470
11000WAT     H233243   6.353   4.777   2.468
11001WAT      O33244   5.727   1.199   4.245
11001WAT     H133245   5.740   1.239   4.154
11001WAT     H233246   5.650   1.135   4.243
11002WAT      O33247   0.648   2.802   7.766
11002WAT     H133248   0.730   2.814   7.710
11002WAT     H233249   0.620   2.706   7.765
11003WAT      O33250   2.397   8.645   5.167
11003WAT     H133251   2.420   8.555   5.128
11003WAT     H233252   2.409   8.715   5.096
11004WAT      O33253   6.953   1.195   2.361
11004WAT     H133254   6.889   1.144   2.419
11004WAT     H233255   6.976   1.140   2.281
11005WAT      O33256   7.796   7.114   3.755
11005WAT     H133257   7.816   7.173   3.833
11005WAT     H233258   7.718   7.153   3.704
11006WAT      O33259   8.898   0.506   2.076
11006WAT     H133260   8.814   0.560   2.077
11006WAT     H233261   8.890   0.435   2.006
11007WAT      O33262   0.845   0.880   5.292
11007WAT     H133263   0.767   0.822   5.315
11007WAT     H233264   0.812   0.965   5.251
11008WAT      O33265   6.890   0.502   3.084
11008WAT     H133266   6.914   0.528   2.990
11008WAT     H233267   6.858   0.583   3.133
11009WAT      O33268   8.787   4.604   8.277
11009WAT     H133269   8.838   4.540   8.220
11009WAT     H233270   8.802   4.582   8.374
11010WAT      O33271   9.783   3.001   1.936
11010WAT     H133272   9.802   2.907   1.906
11010WAT     H233273   9.822   3.065   1.869
11011WAT      O33274   6.177   8.608   7.432
11011WAT     H133275   6.228   8.652   7.358
11011WAT     H233276   6.093   8.660   7.450
11012WAT      O33277   8.917   4.746   2.182
11012WAT     H133278   8.902   4.760   2.084
11012WAT     H233279   8.859   4.809   2.234
11013WAT      O33280   1.845   2.365   6.684
11013WAT     H133281   1.825   2.406   6.773
11013WAT     H233282   1.777   2.295   6.664
11014WAT      O33283   4.796   6.586   2.597
11014WAT     H133284   4.827   6.632   2.681
11014WAT     H233285   4.854   6.507   2.579
11015WAT      O33286   3.127   1.756   6.971
11015WAT     H133287   3.043   1.810   6.967
11015WAT     H233288   3.136   1.714   7.062
11016WAT      O33289   9.525   5.908   7.016
11016WAT     H133290   9.472   5.896   6.932
11016WAT     H233291   9.495   5.992   7.062
11017WAT      O33292   1.549   6.772   2.499
11017WAT     H133293   1.486   6.715   2.550
11017WAT     H233294   1.587   6.843   2.559
11018WAT      O33295   1.603   5.479   0.276
11018WAT     H133296   1.681   5.459   0.216
11018WAT     H233297   1.610   5.572   0.311
11019WAT      O33298   2.276   5.455   0.048
11019WAT     H133299   2.233   5.379   0.097
11019WAT     H233300   2.364   5.476   0.090
11020WAT      O33301   3.326   6.418   1.618
11020WAT     H133302   3.323   6.492   1.551
11020WAT     H233303   3.265   6.344   1.590
11021WAT      O33304   2.773   9.728   6.596
11021WAT     H133305   2.818   9.796   6.654
11021WAT     H233306   2.823   9.642   6.600
11022WAT      O33307   7.171   5.913   7.516
11022WAT     H133308   7.077   5.883   7.532
11022WAT     H233309   7.171   6.006   7.480
11023WAT      O33310   8.895   2.421   0.729
11023WAT     H133311   8.893   2.385   0.822
11023WAT     H233312   8.978   2.476   0.716
11024WAT      O33313   5.371   0.507   9.201
11024WAT     H133314   5.388   0.603   9.223
11024WAT     H233315   5.392   0.450   9.280
11025WAT      O33316   8.299   4.234   5.979
11025WAT     H133317   8.282   4.275   6.069
11025WAT     H233318   8.259   4.143   5.976
11026WAT      O33319   6.453   2.270   9.432
11026WAT     H133320   6.484   2.185   9.389
11026WAT     H233321   6.526   2.339   9.425
11027WAT      O33322   6.069   4.067   8.155
11027WAT     H133323   6.040   4.055   8.060
11027WAT     H233324   6.145   4.006   8.175
11028WAT      O33325   9.373   5.612   2.448
11028WAT     H133326   9.410   5.693   2.493
11028WAT     H233327   9.413   5.603   2.357
11029WAT      O33328   8.796   0.333   5.266
11029WAT     H133329   8.871   0.285   5.220
11029WAT     H233330   8.713   0.277   5.263
11030WAT      O33331   9.344   9.546   1.856
11030WAT     H133332   9.364   9.457   1.816
11030WAT     H233333   9.270   9.589   1.805
11031WAT      O33334   6.390   8.517   3.339
11031WAT     H133335   6.378   8.533   3.437
11031WAT     H233336   6.461   8.448   3.325
11032WAT      O33337   4.055   6.488   2.752
11032WAT     H133338   3.967   6.456   2.717
11032WAT     H233339   4.102   6.540   2.680
11033WAT      O33340   6.499   2.924   3.011
11033WAT     H133341   6.567   2.995   3.027
11033WAT     H233342   6.458   2.896   3.098
11034WAT      O33343   2.262   2.869   6.811
11034WAT     H133344   2.260   2.956   6.762
11034WAT     H233345   2.188   2.869   6.879
11035WAT      O33346   4.529   2.249   4.154
11035WAT     H133347   4.445   2.195   4.159
11035WAT     H233348   4.510   2.342   4.185
11036WAT      O33349   5.585   7.077   3.076
11036WAT     H133350   5.572   7.160   3.130
11036WAT     H233351   5.670   7.032   3.105
11037WAT      O33352   2.528   0.215   9.652
11037WAT     H133353   2.616   0.239   9.692
11037WAT     H233354   2.492   0.293   9.601
11038WAT      O33355   2.533   8.289   8.548
11038WAT     H133356   2.527   8.259   8.453
11038WAT     H233357   2.573   8.380   8.552
11039WAT      O33358   8.718   3.644   3.875
11039WAT     H133359   8.641   3.627   3.814
11039WAT     H233360   8.692   3.713   3.943
11040WAT      O33361   4.193   2.145   0.235
11040WAT     H133362   4.213   2.217   0.169
11040WAT     H233363   4.261   2.147   0.308
11041WAT      O33364   7.689   8.801   1.898
11041WAT     H133365   7.727   8.725   1.844
11041WAT     H233366   7.685   8.883   1.841
11042WAT      O33367   6.585   7.068   5.924
11042WAT     H133368   6.648   7.143   5.943
11042WAT     H233369   6.553   7.029   6.011
11043WAT      O33370   7.981   3.472   0.391
11043WAT     H133371   7.992   3.373   0.394
11043WAT     H233372   7.932   3.497   0.307
11044WAT      O33373   1.515   0.416   0.421
11044WAT     H133374   1.579   0.420   0.498
11044WAT     H233375   1.463   0.501   0.417
11045WAT      O33376   6.993   3.671   3.178
11045WAT     H133377   6.963   3.618   3.257
11045WAT     H233378   6.980   3.769   3.197
11046WAT      O33379   2.478   3.740   1.388
11046WAT     H133380   2.499   3.654   1.341
11046WAT     H233381   2.380   3.757   1.381
11047WAT      O33382   3.641   2.568   0.438
11047WAT     H133383   3.673   2.634   0.506
11047WAT     H233384   3.572   2.610   0.380
11048WAT      O33385   3.028   8.995   1.873
11048WAT     H133386   3.080   8.990   1.787
11048WAT     H233387   3.075   8.943   1.944
11049WAT      O33388   6.589   9.114   0.535
11049WAT     H133389   6.659   9.148   0.472
11049WAT     H233390   6.573   9.017   0.516
11050WAT      O33391   7.356   0.281   7.024
11050WAT     H133392   7.275   0.226   7.005
11050WAT     H233393   7.437   0.236   6.984
11051WAT      O33394   1.449   7.456   6.327
11051WAT     H133395   1.419   7.407   6.245
11051WAT     H233396   1.430   7.399   6.407
11052WAT      O33397   0.182   5.996   9.496
11052WAT     H133398   0.255   6.024   9.558
11052WAT     H233399   0.098   6.043   9.520
11053WAT      O33400   8.251   8.972   4.406
11053WAT     H133401   8.249   8.907   4.482
11053WAT     H233402   8.197   8.936   4.330
11054WAT      O33403   5.814   9.310   0.590
11054WAT     H133404   5.885   9.363   0.543
11054WAT     H233405   5.857   9.245   0.652
11055WAT      O33406   9.666   9.565   7.131
11055WAT     H133407   9.708   9.645   7.088
11055WAT     H233408   9.645   9.497   7.060
11056WAT      O33409   9.757   0.617   1.784
11056WAT     H133410   9.828   0.617   1.714
11056WAT     H233411   9.737   0.523   1.812
11057WAT      O33412   1.205   1.708   5.685
11057WAT     H133413   1.211   1.609   5.673
11057WAT     H233414   1.236   1.754   5.602
11058WAT      O33415   6.900   8.442   0.789
11058WAT     H133416   6.862   8.518   0.736
11058WAT     H233417   6.958   8.386   0.730
11059WAT      O33418   3.420   0.326   5.517
11059WAT     H133419   3.409   0.233   5.552
11059WAT     H233420   3.362   0.389   5.569
11060WAT      O33421   1.162   9.337   0.763
11060WAT     H133422   1.086   9.304   0.707
11060WAT     H233423   1.231   9.379   0.704
11061WAT      O33424   8.196   4.906   9.695
11061WAT     H133425   8.262   4.867   9.631
11061WAT     H233426   8.198   4.854   9.781
11062WAT      O33427   7.852   6.147   1.933
11062WAT     H133428   7.771   6.201   1.910
11062WAT     H233429   7.847   6.118   2.029
11063WAT      O33430   2.561   2.941   3.023
11063WAT     H133431   2.600   3.030   3.001
11063WAT     H233432   2.533   2.939   3.119
11064WAT      O33433   6.066   6.340   6.671
11064WAT     H133434   6.079   6.278   6.594
11064WAT     H233435   6.118   6.424   6.655
11065WAT      O33436   3.508   6.068   3.396
11065WAT     H133437   3.475   6.041   3.306
11065WAT     H233438   3.598   6.111   3.387
11066WAT      O33439   2.285   0.209   4.517
11066WAT     H133440   2.360   0.254   4.564
11066WAT     H233441   2.249   0.135   4.574
11067WAT      O33442   9.648   5.632   3.146
11067WAT     H133443   9.621   5.676   3.061
11067WAT     H233444   9.740   5.662   3.171
11068WAT      O33445   3.576   6.692   2.868
11068WAT     H133446   3.595   6.787   2.890
11068WAT     H233447   3.661   6.639   2.870
11069WAT      O33448   7.925   8.973   3.800
11069WAT     H133449   7.856   9.030   3.843
11069WAT     H233450   8.007   8.969   3.858
11070WAT      O33451   8.157   0.067   3.244
11070WAT     H133452   8.094   0.001   3.204
11070WAT     H233453   8.215   0.105   3.171
11071WAT      O33454   3.051   6.709   8.557
11071WAT     H133455   3.076   6.647   8.481
11071WAT     H233456   3.046   6.656   8.642
11072WAT      O33457   0.414   7.465   1.048
11072WAT     H133458   0.466   7.551   1.055
11072WAT     H233459   0.320   7.481   1.078
11073WAT      O33460   3.240   8.964   9.406
11073WAT     H133461   3.239   8.988   9.309
11073WAT     H233462   3.221   9.046   9.461
11074WAT      O33463   4.999   4.361   0.637
11074WAT     H133464   5.099   4.355   0.635
11074WAT     H233465   4.961   4.270   0.649
11075WAT      O33466   2.417   9.177   5.583
11075WAT     H133467   2.356   9.207   5.510
11075WAT     H233468   2.448   9.257   5.635
11076WAT      O33469   0.697   8.496   2.049
11076WAT     H133470   0.645   8.544   1.978
11076WAT     H233471   0.792   8.528   2.049
11077WAT      O33472   6.223   9.500   1.453
11077WAT     H133473   6.302   9.450   1.417
11077WAT     H233474   6.252   9.592   1.480
11078WAT      O33475   8.695   8.399   5.937
11078WAT     H133476   8.694   8.359   6.029
11078WAT     H233477   8.702   8.498   5.944
11079WAT      O33478   3.152   4.691   3.506
11079WAT     H133479   3.188   4.598   3.501
11079WAT     H233480   3.226   4.755   3.525
11080WAT      O33481   1.401   2.296   1.856
11080WAT     H133482   1.460   2.246   1.793
11080WAT     H233483   1.335   2.351   1.804
11081WAT      O33484   6.815   8.582   8.723
11081WAT     H133485   6.806   8.483   8.720
11081WAT     H233486   6.836   8.612   8.816
11082WAT      O33487   8.535   4.967   5.803
11082WAT     H133488   8.622   4.937   5.764
11082WAT     H233489   8.462   4.951   5.737
11083WAT      O33490   0.120   0.827   1.917
11083WAT     H133491   0.173   0.770   1.854
11083WAT     H233492   0.140   0.923   1.899
11084WAT      O33493   9.156   7.555   8.195
11084WAT     H133494   9.234   7.493   8.201
11084WAT     H233495   9.084   7.512   8.140
11085WAT      O33496   5.896   4.265   1.801
11085WAT     H133497   5.803   4.300   1.802
11085WAT     H233498   5.910   4.208   1.720
11086WAT      O33499   3.967   4.972   7.784
11086WAT     H133500   3.924   4.886   7.810
11086WAT     H233501   4.055   4.954   7.740
11087WAT      O33502   5.050   0.568   0.386
11087WAT     H133503   4.957   0.585   0.420
11087WAT     H233504   5.076   0.640   0.322
11088WAT      O33505   9.887   4.052   4.121
11088WAT     H133506   9.876   3.960   4.084
11088WAT     H233507   9.891   4.118   4.046
11089WAT      O33508   6.011   0.944   8.578
11089WAT     H133509   6.034   1.027   8.526
11089WAT     H233510   6.092   0.885   8.584
11090WAT      O33511   7.712   3.969   7.691
11090WAT     H133512   7.707   3.870   7.674
11090WAT     H233513   7.635   3.997   7.748
11091WAT      O33514   2.446   2.186   3.687
11091WAT     H133515   2.472   2.272   3.730
11091WAT     H233516   2.348   2.188   3.665
11092WAT      O33517   1.918   4.215   9.850
11092WAT     H133518   1.819   4.209   9.833
11092WAT     H233519   1.967   4.222   9.763
11093WAT      O33520   0.518   1.891   8.085
11093WAT     H133521   0.426   1.852   8.092
11093WAT     H233522   0.584   1.819   8.065
11094WAT      O33523   9.427   1.365   0.859
11094WAT     H133524   9.499   1.385   0.792
11094WAT     H233525   9.461   1.381   0.951
11095WAT      O33526   8.670   8.440   8.301
11095WAT     H133527   8.721   8.511   8.252
11095WAT     H233528   8.673   8.459   8.400
11096WAT      O33529   2.266   2.421   5.284
11096WAT     H133530   2.242   2.472   5.367
11096WAT     H233531   2.323   2.478   5.225
11097WAT      O33532   2.425   9.155   4.341
11097WAT     H133533   2.414   9.056   4.347
11097WAT     H233534   2.522   9.178   4.333
11098WAT      O33535   9.057   9.175   6.113
11098WAT     H133536   9.144   9.148   6.072
11098WAT     H233537   8.982   9.132   6.063
11099WAT      O33538   1.814   8.767   8.044
11099WAT     H133539   1.873   8.704   8.093
11099WAT     H233540   1.795   8.848   8.100
11100WAT      O33541   0.377   3.534   1.601
11100WAT     H133542   0.339   3.502   1.514
11100WAT     H233543   0.310   3.591   1.648
11101WAT      O33544   2.422   8.256   0.079
11101WAT     H133545   2.458   8.293  -0.007
11101WAT     H233546   2.488   8.273   0.152
11102WAT      O33547   5.928   3.333   3.460
11102WAT     H133548   5.877   3.335   3.546
11102WAT     H233549   5.864   3.328   3.384
11103WAT      O33550   5.822   6.551   7.516
11103WAT     H133551   5.791   6.534   7.422
11103WAT     H233552   5.883   6.630   7.517
11104WAT      O33553   7.226   2.950   9.712
11104WAT     H133554   7.313   2.997   9.702
11104WAT     H233555   7.155   3.001   9.663
11105WAT      O33556   1.527   5.896   3.245
11105WAT     H133557   1.534   5.994   3.263
11105WAT     H233558   1.558   5.878   3.151
11106WAT      O33559   0.424   1.173   3.462
11106WAT     H133560   0.501   1.140   3.517
11106WAT     H233561   0.458   1.220   3.381
11107WAT      O33562   5.274   1.507   2.401
11107WAT     H133563   5.245   1.570   2.330
11107WAT     H233564   5.255   1.547   2.491
11108WAT      O33565   2.094   8.343   9.738
11108WAT     H133566   2.013   8.391   9.770
11108WAT     H233567   2.082   8.244   9.750
11109WAT      O33568   0.953   1.006   5.732
11109WAT     H133569   0.892   0.966   5.663
11109WAT     H233570   0.920   0.982   5.823
11110WAT      O33571   4.161   5.938   0.393
11110WAT     H133572   4.081   5.948   0.333
11110WAT     H233573   4.240   5.908   0.339
11111WAT      O33574   4.498   2.981   2.477
11111WAT     H133575   4.418   3.039   2.463
11111WAT     H233576   4.470   2.898   2.525
11112WAT      O33577   7.656   2.364   4.612
11112WAT     H133578   7.590   2.312   4.666
11112WAT     H233579   7.707   2.426   4.672
11113WAT      O33580   1.467   8.582   9.622
11113WAT     H133581   1.372   8.597   9.596
11113WAT     H233582   1.527   8.610   9.547
11114WAT      O33583   2.447   4.100   8.856
11114WAT     H133584   2.467   4.197   8.842
11114WAT     H233585   2.529   4.055   8.893
11115WAT      O33586   2.431   0.767   5.382
11115WAT     H133587   2.338   0.731   5.384
11115WAT     H233588   2.428   0.864   5.357
11116WAT      O33589   6.145   1.632   7.205
11116WAT     H133590   6.243   1.622   7.225
11116WAT     H233591   6.133   1.688   7.123
11117WAT      O33592   7.219   1.121   8.053
11117WAT     H133593   7.273   1.051   8.101
11117WAT     H233594   7.216   1.204   8.107
11118WAT      O33595   6.305   0.032   3.573
11118WAT     H133596   6.213   0.020   3.536
11118WAT     H233597   6.353  -0.056   3.571
11119WAT      O33598   5.007   5.096   4.900
11119WAT     H133599   4.914   5.093   4.938
11119WAT     H233600   5.029   5.008   4.859
11120WAT      O33601   6.625   2.340   0.913
11120WAT     H133602   6.680   2.370   0.991
11120WAT     H233603   6.536   2.306   0.945
11121WAT      O33604   9.491   5.610   8.981
11121WAT     H133605   9.452   5.688   9.030
11121WAT     H233606   9.577   5.637   8.939
11122WAT      O33607   2.086   0.359   3.098
11122WAT     H133608   2.150   0.297   3.053
11122WAT     H233609   2.136   0.436   3.137
11123WAT      O33610   8.477   9.812   9.560
11123WAT     H133611   8.534   9.732   9.578
11123WAT     H233612   8.467   9.865   9.645
11124WAT      O33613   3.904   1.300   4.964
11124WAT     H133614   3.819   1.284   4.914
11124WAT     H233615   3.884   1.310   5.061
11125WAT      O33616   6.271   5.804   9.480
11125WAT     H133617   6.249   5.890   9.434
11125WAT     H233618   6.265   5.728   9.414
11126WAT      O33619   7.815   2.098   9.611
11126WAT     H133620   7.849   2.191   9.625
11126WAT     H233621   7.861   2.058   9.531
11127WAT      O33622   1.829   3.417   7.265
11127WAT     H133623   1.924   3.386   7.261
11127WAT     H233624   1.783   3.376   7.343
11128WAT      O33625   8.899   3.402   4.315
11128WAT     H133626   8.931   3.400   4.410
11128WAT     H233627   8.927   3.488   4.273
11129WAT      O33628   6.139   2.938   3.737
11129WAT     H133629   6.229   2.954   3.777
11129WAT     H233630   6.108   2.846   3.758
11130WAT      O33631   7.268   8.142   9.327
11130WAT     H133632   7.354   8.091   9.336
11130WAT     H233633   7.271   8.199   9.246
11131WAT      O33634   0.851   9.597   0.907
11131WAT     H133635   0.925   9.666   0.907
11131WAT     H233636   0.767   9.640   0.939
11132WAT      O33637   6.623   0.561   9.375
11132WAT     H133638   6.563   0.531   9.302
11132WAT     H233639   6.631   0.660   9.373
11133WAT      O33640   6.635   0.836   9.536
11133WAT     H133641   6.640   0.926   9.492
11133WAT     H233642   6.665   0.844   9.631
11134WAT      O33643   3.044   6.828   8.007
11134WAT     H133644   3.061   6.839   7.910
11134WAT     H233645   3.031   6.917   8.050
11135WAT      O33646   4.483   3.990   9.805
11135WAT     H133647   4.431   3.935   9.739
11135WAT     H233648   4.419   4.042   9.862
11136WAT      O33649   7.743   5.162   2.230
11136WAT     H133650   7.660   5.120   2.197
11136WAT     H233651   7.822   5.103   2.210
11137WAT      O33652   2.651   6.078   2.045
11137WAT     H133653   2.641   5.994   2.098
11137WAT     H233654   2.619   6.156   2.099
11138WAT      O33655   7.768   3.984   0.531
11138WAT     H133656   7.691   4.031   0.488
11138WAT     H233657   7.841   3.972   0.464
11139WAT      O33658   5.816   7.210   1.591
11139WAT     H133659   5.775   7.129   1.550
11139WAT     H233660   5.908   7.187   1.623
11140WAT      O33661   7.166   7.479   6.514
11140WAT     H133662   7.250   7.533   6.525
11140WAT     H233663   7.108   7.520   6.444
11141WAT      O33664   4.019   3.094   3.714
11141WAT     H133665   4.061   3.063   3.629
11141WAT     H233666   4.008   3.193   3.712
11142WAT      O33667   2.732   2.723   2.247
11142WAT     H133668   2.699   2.692   2.337
11142WAT     H233669   2.783   2.808   2.258
11143WAT      O33670   4.793   2.725   6.744
11143WAT     H133671   4.821   2.747   6.838
11143WAT     H233672   4.702   2.684   6.746
11144WAT      O33673   6.134   1.072   2.030
11144WAT     H133674   6.121   1.023   2.116
11144WAT     H233675   6.070   1.037   1.961
11145WAT      O33676   3.947   8.976   8.838
11145WAT     H133677   3.896   9.049   8.792
11145WAT     H233678   3.938   8.988   8.937
11146WAT      O33679   9.599   3.970   6.904
11146WAT     H133680   9.657   4.032   6.958
11146WAT     H233681   9.584   4.010   6.813
11147WAT      O33682   8.020   2.352   8.857
11147WAT     H133683   7.994   2.258   8.881
11147WAT     H233684   8.119   2.363   8.867
11148WAT      O33685   1.334   9.518   3.458
11148WAT     H133686   1.358   9.566   3.543
11148WAT     H233687   1.240   9.484   3.464
11149WAT      O33688   5.849   3.811   7.668
11149WAT     H133689   5.873   3.903   7.636
11149WAT     H233690   5.901   3.790   7.751
11150WAT      O33691   9.602   2.810   2.948
11150WAT     H133692   9.638   2.720   2.970
11150WAT     H233693   9.592   2.818   2.849
11151WAT      O33694   3.467   4.834   4.354
11151WAT     H133695   3.565   4.817   4.345
11151WAT     H233696   3.416   4.757   4.316
11152WAT      O33697   4.103   4.257   8.696
11152WAT     H133698   4.030   4.291   8.755
11152WAT     H233699   4.129   4.165   8.724
11153WAT      O33700   7.755   2.568   1.580
11153WAT     H133701   7.672   2.621   1.598
11153WAT     H233702   7.823   2.625   1.534
11154WAT      O33703   9.383   1.550   5.214
11154WAT     H133704   9.381   1.463   5.165
11154WAT     H233705   9.391   1.625   5.148
11155WAT      O33706   5.241   3.239   8.545
11155WAT     H133707   5.144   3.216   8.544
11155WAT     H233708   5.257   3.320   8.488
11156WAT      O33709   3.414   2.221   7.025
11156WAT     H133710   3.439   2.316   7.045
11156WAT     H233711   3.339   2.193   7.084
11157WAT      O33712   4.996   1.481   2.478
11157WAT     H133713   4.929   1.468   2.405
11157WAT     H233714   5.085   1.445   2.448
11158WAT      O33715   7.905   5.245   3.244
11158WAT     H133716   7.925   5.333   3.286
11158WAT     H233717   7.859   5.186   3.311
11159WAT      O33718   1.199   4.712   7.633
11159WAT     H133719   1.171   4.623   7.598
11159WAT     H233720   1.282   4.702   7.688
11160WAT      O33721   7.046   1.140   1.742
11160WAT     H133722   7.004   1.195   1.814
11160WAT     H233723   7.060   1.196   1.660
11161WAT      O33724   4.398   1.125   2.609
11161WAT     H133725   4.414   1.054   2.541
11161WAT     H233726   4.408   1.085   2.701
11162WAT      O33727   1.354   5.429   1.429
11162WAT     H133728   1.298   5.370   1.370
11162WAT     H233729   1.410   5.489   1.373
11163WAT      O33730   3.484   3.281   2.300
11163WAT     H133731   3.547   3.208   2.326
11163WAT     H233732   3.530   3.346   2.239
11164WAT      O33733   3.624   0.762   7.547
11164WAT     H133734   3.566   0.834   7.511
11164WAT     H233735   3.677   0.721   7.473
11165WAT      O33736   0.110   4.277   7.120
11165WAT     H133737   0.032   4.233   7.075
11165WAT     H233738   0.193   4.226   7.099
11166WAT      O33739   7.351   9.755   0.315
11166WAT     H133740   7.403   9.679   0.275
11166WAT     H233741   7.289   9.719   0.384
11167WAT      O33742   1.831   5.279   7.636
11167WAT     H133743   1.927   5.251   7.632
11167WAT     H233744   1.822   5.357   7.698
11168WAT      O33745   6.449   5.074   2.198
11168WAT     H133746   6.422   5.074   2.294
11168WAT     H233747   6.485   4.984   2.174
11169WAT      O33748   3.866   1.383   9.380
11169WAT     H133749   3.942   1.318   9.390
11169WAT     H233750   3.781   1.338   9.404
11170WAT      O33751   5.031   9.443   4.026
11170WAT     H133752   4.971   9.493   4.089
11170WAT     H233753   4.987   9.359   3.997
11171WAT      O33754   3.024  -0.001   0.308
11171WAT     H133755   2.933  -0.022   0.342
11171WAT     H233756   3.063   0.075   0.361
11172WAT      O33757   1.359   3.666   7.378
11172WAT     H133758   1.410   3.749   7.397
11172WAT     H233759   1.376   3.636   7.285
11173WAT      O33760   9.291   5.776   2.871
11173WAT     H133761   9.329   5.847   2.931
11173WAT     H233762   9.220   5.816   2.812
11174WAT      O33763   2.252   4.649   4.464
11174WAT     H133764   2.255   4.553   4.438
11174WAT     H233765   2.166   4.689   4.433
11175WAT      O33766   9.192   2.977   1.110
11175WAT     H133767   9.236   2.907   1.166
11175WAT     H233768   9.092   2.963   1.112
11176WAT      O33769   7.552   0.339   2.068
11176WAT     H133770   7.606   0.351   1.985
11176WAT     H233771   7.533   0.242   2.082
11177WAT      O33772   6.916   3.548   9.865
11177WAT     H133773   7.011   3.518   9.858
11177WAT     H233774   6.896   3.574   9.959
11178WAT      O33775   1.158   7.686   4.475
11178WAT     H133776   1.111   7.767   4.511
11178WAT     H233777   1.124   7.605   4.522
11179WAT      O33778   1.747   6.809   5.273
11179WAT     H133779   1.712   6.860   5.352
11179WAT     H233780   1.815   6.743   5.304
11180WAT      O33781   0.877   0.299   7.929
11180WAT     H133782   0.873   0.348   8.016
11180WAT     H233783   0.929   0.352   7.863
11181WAT      O33784   2.540   9.411   1.425
11181WAT     H133785   2.502   9.355   1.351
11181WAT     H233786   2.634   9.436   1.404
11182WAT      O33787   8.820   4.240   3.939
11182WAT     H133788   8.840   4.149   3.976
11182WAT     H233789   8.898   4.300   3.954
11183WAT      O33790   8.791   6.709   2.979
11183WAT     H133791   8.738   6.624   2.970
11183WAT     H233792   8.803   6.731   3.075
11184WAT      O33793   4.080   1.706   5.109
11184WAT     H133794   4.108   1.644   5.182
11184WAT     H233795   4.140   1.786   5.107
11185WAT      O33796   0.398   9.213   5.843
11185WAT     H133797   0.368   9.252   5.930
11185WAT     H233798   0.417   9.115   5.856
11186WAT      O33799   9.652   5.666   5.197
11186WAT     H133800   9.558   5.692   5.215
11186WAT     H233801   9.673   5.678   5.100
11187WAT      O33802   3.735   1.070   6.043
11187WAT     H133803   3.699   0.998   6.103
11187WAT     H233804   3.826   1.096   6.073
11188WAT      O33805   0.367   3.163   3.539
11188WAT     H133806   0.284   3.216   3.555
11188WAT     H233807   0.381   3.099   3.615
11189WAT      O33808   9.568   8.195   1.125
11189WAT     H133809   9.656   8.155   1.101
11189WAT     H233810   9.519   8.220   1.042
11190WAT      O33811   4.530   9.363   8.741
11190WAT     H133812   4.459   9.341   8.808
11190WAT     H233813   4.582   9.443   8.773
11191WAT      O33814   7.850   0.830   1.744
11191WAT     H133815   7.829   0.843   1.841
11191WAT     H233816   7.765   0.834   1.691
11192WAT      O33817   2.343   9.124   9.448
11192WAT     H133818   2.333   9.151   9.352
11192WAT     H233819   2.410   9.051   9.456
11193WAT      O33820   3.193   6.697   9.438
11193WAT     H133821   3.099   6.669   9.456
11193WAT     H233822   3.206   6.792   9.468
11194WAT      O33823   6.182   2.380   7.473
11194WAT     H133824   6.229   2.317   7.411
11194WAT     H233825   6.198   2.351   7.568
11195WAT      O33826   9.761   0.729   8.493
11195WAT     H133827   9.786   0.685   8.580
11195WAT     H233828   9.844   0.750   8.442
11196WAT      O33829   9.128   8.172   7.508
11196WAT     H133830   9.221   8.171   7.472
11196WAT     H233831   9.065   8.206   7.438
11197WAT      O33832   0.419   1.715   4.493
11197WAT     H133833   0.462   1.655   4.561
11197WAT     H233834   0.320   1.710   4.502
11198WAT      O33835   0.414   8.637   7.083
11198WAT     H133836   0.460   8.699   7.019
11198WAT     H233837   0.342   8.586   7.036
11199WAT      O33838   9.077   6.629   8.799
11199WAT     H133839   9.033   6.718   8.784
11199WAT     H233840   9.074   6.577   8.714
11200WAT      O33841   1.187   4.097   5.097
11200WAT     H133842   1.203   4.014   5.151
11200WAT     H233843   1.112   4.149   5.139
11201WAT      O33844   4.632   7.989   7.123
11201WAT     H133845   4.650   7.936   7.206
11201WAT     H233846   4.612   7.927   7.048
11202WAT      O33847   1.109   2.336   8.890
11202WAT     H133848   1.197   2.358   8.847
11202WAT     H233849   1.088   2.405   8.959
11203WAT      O33850   9.453   3.284   6.887
11203WAT     H133851   9.409   3.243   6.967
11203WAT     H233852   9.506   3.214   6.839
11204WAT      O33853   2.633   4.968   2.566
11204WAT     H133854   2.711   4.927   2.615
11204WAT     H233855   2.591   5.038   2.623
11205WAT      O33856   6.610   2.562   3.128
11205WAT     H133857   6.643   2.639   3.073
11205WAT     H233858   6.578   2.596   3.216
11206WAT      O33859   1.046   5.509   2.824
11206WAT     H133860   1.102   5.487   2.744
11206WAT     H233861   0.957   5.544   2.794
11207WAT      O33862   3.445   7.244   4.940
11207WAT     H133863   3.373   7.229   4.872
11207WAT     H233864   3.499   7.324   4.914
11208WAT      O33865   8.136   8.631   2.565
11208WAT     H133866   8.219   8.671   2.604
11208WAT     H233867   8.056   8.671   2.609
11209WAT      O33868   3.905   3.321   7.045
11209WAT     H133869   3.917   3.268   6.961
11209WAT     H233870   3.847   3.271   7.108
11210WAT      O33871   6.881   8.930   6.374
11210WAT     H133872   6.876   8.898   6.468
11210WAT     H233873   6.816   8.879   6.318
11211WAT      O33874   2.835   4.362   9.335
11211WAT     H133875   2.744   4.360   9.293
11211WAT     H233876   2.843   4.442   9.394
11212WAT      O33877   3.785   9.035   9.773
11212WAT     H133878   3.832   8.973   9.711
11212WAT     H233879   3.813   9.016   9.867
11213WAT      O33880   3.750   6.115   9.758
11213WAT     H133881   3.700   6.113   9.672
11213WAT     H233882   3.759   6.209   9.790
11214WAT      O33883   7.830   0.543   7.430
11214WAT     H133884   7.773   0.623   7.446
11214WAT     H233885   7.772   0.465   7.409
11215WAT      O33886   1.851   3.598   4.023
11215WAT     H133887   1.876   3.530   4.092
11215WAT     H233888   1.880   3.688   4.054
11216WAT      O33889   2.247   7.695   4.617
11216WAT     H133890   2.260   7.751   4.534
11216WAT     H233891   2.155   7.657   4.617
11217WAT      O33892   8.976   7.302   2.706
11217WAT     H133893   8.933   7.303   2.797
11217WAT     H233894   8.920   7.247   2.644
11218WAT      O33895   4.776   0.110   0.767
11218WAT     H133896   4.695   0.146   0.813
11218WAT     H233897   4.755   0.018   0.731
11219WAT      O33898   7.324   8.464   5.748
11219WAT     H133899   7.252   8.531   5.730
11219WAT     H233900   7.291   8.372   5.727
11220WAT      O33901   2.716   7.081   9.041
11220WAT     H133902   2.712   6.998   8.985
11220WAT     H233903   2.660   7.068   9.123
11221WAT      O33904   0.587   2.397   6.769
11221WAT     H133905   0.646   2.368   6.694
11221WAT     H233906   0.510   2.333   6.777
11222WAT      O33907   9.344   4.459   9.401
11222WAT     H133908   9.331   4.557   9.415
11222WAT     H233909   9.304   4.432   9.313
11223WAT      O33910   3.694   9.746   9.219
11223WAT     H133911   3.679   9.712   9.312
11223WAT     H233912   3.719   9.843   9.223
11224WAT      O33913   8.851   5.221   6.976
11224WAT     H133914   8.929   5.254   6.924
11224WAT     H233915   8.768   5.227   6.919
11225WAT      O33916   3.167   3.630   9.363
11225WAT     H133917   3.195   3.631   9.267
11225WAT     H233918   3.097   3.699   9.378
11226WAT      O33919   3.314   1.839   2.730
11226WAT     H133920   3.306   1.789   2.643
11226WAT     H233921   3.377   1.791   2.790
11227WAT      O33922   9.499   0.899   2.348
11227WAT     H133923   9.563   0.904   2.425
11227WAT     H233924   9.432   0.973   2.356
11228WAT      O33925   8.992   6.530   5.159
11228WAT     H133926   9.072   6.533   5.218
11228WAT     H233927   8.959   6.624   5.143
11229WAT      O33928   2.241   2.803   8.401
11229WAT     H133929   2.221   2.709   8.428
11229WAT     H233930   2.323   2.804   8.343
11230WAT      O33931   1.169   1.973   4.158
11230WAT     H133932   1.231   2.037   4.204
11230WAT     H233933   1.146   1.898   4.220
11231WAT      O33934   0.294   4.834   1.157
11231WAT     H133935   0.283   4.894   1.078
11231WAT     H233936   0.391   4.830   1.183
11232WAT      O33937   6.786   0.659   1.115
11232WAT     H133938   6.699   0.708   1.115
11232WAT     H233939   6.826   0.661   1.207
11233WAT      O33940   1.379   6.061   5.614
11233WAT     H133941   1.433   5.977   5.615
11233WAT     H233942   1.429   6.133   5.566
11234WAT      O33943   4.639   7.319   9.678
11234WAT     H133944   4.724   7.340   9.726
11234WAT     H233945   4.579   7.398   9.682
11235WAT      O33946   3.054   4.746   2.276
11235WAT     H133947   2.955   4.752   2.263
11235WAT     H233948   3.085   4.823   2.332
11236WAT      O33949   3.814   7.352   8.442
11236WAT     H133950   3.899   7.329   8.490
11236WAT     H233951   3.832   7.359   8.344
11237WAT      O33952   2.491   5.216   1.775
11237WAT     H133953   2.538   5.130   1.797
11237WAT     H233954   2.458   5.257   1.860
11238WAT      O33955   4.525   6.468   6.169
11238WAT     H133956   4.579   6.384   6.184
11238WAT     H233957   4.587   6.545   6.156
11239WAT      O33958   0.738   2.865   4.072
11239WAT     H133959   0.704   2.826   4.157
11239WAT     H233960   0.699   2.817   3.994
11240WAT      O33961   1.130   2.670   0.455
11240WAT     H133962   1.201   2.740   0.466
11240WAT     H233963   1.091   2.648   0.544
11241WAT      O33964   3.649   6.102   8.660
11241WAT     H133965   3.581   6.147   8.719
11241WAT     H233966   3.723   6.166   8.640
11242WAT      O33967   2.600   0.035   1.022
11242WAT     H133968   2.619  -0.063   1.013
11242WAT     H233969   2.556   0.068   0.938
11243WAT      O33970   2.527   4.493   0.052
11243WAT     H133971   2.454   4.427   0.036
11243WAT     H233972   2.489   4.586   0.052
11244WAT      O33973   4.281   3.700   8.585
11244WAT     H133974   4.332   3.728   8.504
11244WAT     H233975   4.344   3.673   8.657
11245WAT      O33976   7.942   4.139   6.073
11245WAT     H133977   7.901   4.050   6.094
11245WAT     H233978   7.890   4.182   5.999
11246WAT      O33979   0.248   0.712   2.536
11246WAT     H133980   0.184   0.761   2.596
11246WAT     H233981   0.340   0.716   2.574
11247WAT      O33982   7.094   2.704   0.454
11247WAT     H133983   7.163   2.639   0.423
11247WAT     H233984   7.032   2.659   0.518
11248WAT      O33985   1.777   1.770   7.058
11248WAT     H133986   1.678   1.761   7.076
11248WAT     H233987   1.818   1.679   7.055
11249WAT      O33988   0.353   0.267   4.511
11249WAT     H133989   0.446   0.252   4.478
11249WAT     H233990   0.353   0.275   4.610
11250WAT      O33991   9.654   2.162   9.086
11250WAT     H133992   9.745   2.133   9.114
11250WAT     H233993   9.643   2.260   9.101
11251WAT      O33994   6.206   2.296   3.095
11251WAT     H133995   6.246   2.239   3.023
11251WAT     H233996   6.212   2.392   3.069
11252WAT      O33997   7.357   2.171   8.983
11252WAT     H133998   7.299   2.215   9.050
11252WAT     H233999   7.452   2.170   9.016
11253WAT      O34000   3.450   1.119   3.157
11253WAT     H134001   3.507   1.050   3.112
11253WAT     H234002   3.376   1.073   3.206
11254WAT      O34003   7.350   3.391   8.474
11254WAT     H134004   7.400   3.304   8.468
11254WAT     H234005   7.337   3.427   8.382
11255WAT      O34006   1.647   4.514   1.091
11255WAT     H134007   1.655   4.417   1.066
11255WAT     H234008   1.561   4.550   1.055
11256WAT      O34009   4.927   5.709   0.467
11256WAT     H134010   4.864   5.654   0.412
11256WAT     H234011   4.898   5.804   0.467
11257WAT      O34012   4.064   5.434   7.957
11257WAT     H134013   4.007   5.370   8.009
11257WAT     H234014   4.130   5.477   8.019
11258WAT      O34015   4.988   6.312   1.871
11258WAT     H134016   4.890   6.295   1.874
11258WAT     H234017   5.017   6.329   1.777
11259WAT      O34018   1.447   3.832   6.031
11259WAT     H134019   1.351   3.857   6.043
11259WAT     H234020   1.463   3.741   6.071
11260WAT      O34021   5.532   1.197   5.751
11260WAT     H134022   5.555   1.168   5.844
11260WAT     H234023   5.457   1.264   5.755
11261WAT      O34024   5.632   4.636   5.800
11261WAT     H134025   5.656   4.680   5.713
11261WAT     H234026   5.696   4.665   5.871
11262WAT      O34027   5.277   9.282   9.319
11262WAT     H134028   5.235   9.372   9.331
11262WAT     H234029   5.351   9.289   9.251
11263WAT      O34030   6.284   7.923   2.865
11263WAT     H134031   6.243   7.923   2.956
11263WAT     H234032   6.359   7.857   2.861
11264WAT      O34033   0.804   4.919   1.533
11264WAT     H134034   0.880   4.856   1.515
11264WAT     H234035   0.821   5.006   1.487
11265WAT      O34036   1.540   2.316   9.829
11265WAT     H134037   1.619   2.364   9.791
11265WAT     H234038   1.460   2.375   9.823
11266WAT      O34039   1.317   2.656   3.869
11266WAT     H134040   1.402   2.609   3.892
11266WAT     H234041   1.338   2.749   3.837
11267WAT      O34042   6.434   5.813   6.436
11267WAT     H134043   6.429   5.805   6.535
11267WAT     H234044   6.363   5.755   6.395
11268WAT      O34045   8.391   8.790   1.546
11268WAT     H134046   8.412   8.706   1.496
11268WAT     H234047   8.472   8.818   1.598
11269WAT      O34048   7.122   9.754   3.249
11269WAT     H134049   7.099   9.743   3.152
11269WAT     H234050   7.046   9.798   3.297
11270WAT      O34051   6.232   6.012   5.245
11270WAT     H134052   6.317   5.962   5.260
11270WAT     H234053   6.233   6.053   5.154
11271WAT      O34054   6.586   9.581   0.879
11271WAT     H134055   6.589   9.631   0.965
11271WAT     H234056   6.666   9.520   0.874
11272WAT      O34057   4.925   3.561   1.403
11272WAT     H134058   4.869   3.562   1.486
11272WAT     H234059   4.873   3.600   1.327
11273WAT      O34060   9.434   0.986   9.839
11273WAT     H134061   9.429   1.046   9.919
11273WAT     H234062   9.524   0.943   9.836
11274WAT      O34063   1.068   0.035   6.300
11274WAT     H134064   0.995   0.084   6.348
11274WAT     H234065   1.032  -0.005   6.216
11275WAT      O34066   6.764   6.684   9.469
11275WAT     H134067   6.821   6.634   9.534
11275WAT     H234068   6.670   6.689   9.503
11276WAT      O34069   2.630   3.671   2.184
11276WAT     H134070   2.605   3.660   2.087
11276WAT     H234071   2.664   3.585   2.219
11277WAT      O34072   8.178   6.353   9.191
11277WAT     H134073   8.193   6.441   9.235
11277WAT     H234074   8.216   6.355   9.098
11278WAT      O34075   5.119   3.546   8.036
11278WAT     H134076   5.058   3.588   8.103
11278WAT     H234077   5.155   3.460   8.072
11279WAT      O34078   7.802   4.601   5.082
11279WAT     H134079   7.773   4.598   4.986
11279WAT     H234080   7.869   4.674   5.094
11280WAT      O34081   7.312   9.731   2.828
11280WAT     H134082   7.350   9.668   2.760
11280WAT     H234083   7.285   9.816   2.783
11281WAT      O34084   8.623   7.805   7.915
11281WAT     H134085   8.547   7.782   7.976
11281WAT     H234086   8.653   7.898   7.933
11282WAT      O34087   6.457   3.748   0.530
11282WAT     H134088   6.359   3.740   0.513
11282WAT     H234089   6.484   3.686   0.603
11283WAT      O34090   7.870   2.234   4.492
11283WAT     H134091   7.795   2.273   4.545
11283WAT     H234092   7.950   2.294   4.498
11284WAT      O34093   6.465   1.365   8.919
11284WAT     H134094   6.492   1.300   8.848
11284WAT     H234095   6.435   1.451   8.876
11285WAT      O34096   3.600   1.646   6.793
11285WAT     H134097   3.509   1.665   6.828
11285WAT     H234098   3.667   1.659   6.867
11286WAT      O34099   9.882   7.368   1.361
11286WAT     H134100   9.932   7.310   1.426
11286WAT     H234101   9.903   7.339   1.268
11287WAT      O34102   8.013   1.530   7.680
11287WAT     H134103   7.933   1.498   7.631
11287WAT     H234104   8.089   1.543   7.617
11288WAT      O34105   1.040   3.258   0.531
11288WAT     H134106   1.132   3.297   0.519
11288WAT     H234107   1.040   3.197   0.610
11289WAT      O34108   2.890   8.411   1.406
11289WAT     H134109   2.878   8.437   1.310
11289WAT     H234110   2.805   8.424   1.456
11290WAT      O34111   7.631   6.905   9.416
11290WAT     H134112   7.635   6.834   9.345
11290WAT     H234113   7.690   6.878   9.492
11291WAT      O34114   3.851   3.270   2.221
11291WAT     H134115   3.928   3.309   2.170
11291WAT     H234116   3.765   3.310   2.188
11292WAT      O34117   2.132   8.177   4.982
11292WAT     H134118   2.060   8.109   4.992
11292WAT     H234119   2.144   8.227   5.068
11293WAT      O34120   0.341   6.158   6.364
11293WAT     H134121   0.372   6.244   6.323
11293WAT     H234122   0.416   6.092   6.363
11294WAT      O34123   1.411   1.651   0.219
11294WAT     H134124   1.506   1.626   0.200
11294WAT     H234125   1.391   1.739   0.177
11295WAT      O34126   7.296   3.080   5.002
11295WAT     H134127   7.357   3.121   4.934
11295WAT     H234128   7.329   3.102   5.094
11296WAT      O34129   8.080   0.481   7.478
11296WAT     H134130   8.086   0.434   7.566
11296WAT     H234131   7.986   0.511   7.462
11297WAT      O34132   4.061   2.388   2.679
11297WAT     H134133   4.074   2.391   2.778
11297WAT     H234134   4.148   2.366   2.635
11298WAT      O34135   1.263   9.147   4.567
11298WAT     H134136   1.321   9.077   4.525
11298WAT     H234137   1.298   9.171   4.657
11299WAT      O34138   2.045   9.536   3.377
11299WAT     H134139   1.969   9.532   3.311
11299WAT     H234140   2.010   9.514   3.468
11300WAT      O34141   7.591   9.041   0.265
11300WAT     H134142   7.673   9.074   0.216
11300WAT     H234143   7.619   8.985   0.343
11301WAT      O34144   2.791   8.924   1.981
11301WAT     H134145   2.709   8.981   1.982
11301WAT     H234146   2.851   8.953   1.907
11302WAT      O34147   8.338   2.719   9.012
11302WAT     H134148   8.425   2.682   9.044
11302WAT     H234149   8.267   2.702   9.081
11303WAT      O34150   6.683   1.456   5.733
11303WAT     H134151   6.737   1.375   5.753
11303WAT     H234152   6.586   1.431   5.729
11304WAT      O34153   3.412   7.873   5.443
11304WAT     H134154   3.447   7.782   5.467
11304WAT     H234155   3.326   7.889   5.491
11305WAT      O34156   7.600   8.464   8.065
11305WAT     H134157   7.591   8.454   7.966
11305WAT     H234158   7.694   8.441   8.092
11306WAT      O34159   9.389   5.516   0.454
11306WAT     H134160   9.316   5.499   0.521
11306WAT     H234161   9.423   5.428   0.419
11307WAT      O34162   6.900   5.705   0.177
11307WAT     H134163   6.963   5.648   0.124
11307WAT     H234164   6.953   5.763   0.239
11308WAT      O34165   3.802   1.547   1.581
11308WAT     H134166   3.760   1.637   1.583
11308WAT     H234167   3.736   1.480   1.547
11309WAT      O34168   2.742   2.877   0.876
11309WAT     H134169   2.723   2.823   0.957
11309WAT     H234170   2.738   2.975   0.899
11310WAT      O34171   2.291   6.895   1.625
11310WAT     H134172   2.342   6.943   1.696
11310WAT     H234173   2.336   6.808   1.604
11311WAT      O34174   5.516   5.489   1.504
11311WAT     H134175   5.531   5.392   1.525
11311WAT     H234176   5.521   5.543   1.588
11312WAT      O34177   9.285   7.937   2.829
11312WAT     H134178   9.362   7.933   2.765
11312WAT     H234179   9.313   7.988   2.911
11313WAT      O34180   7.040   4.239   6.744
11313WAT     H134181   7.078   4.317   6.793
11313WAT     H234182   7.056   4.155   6.796
11314WAT      O34183   5.988   1.460   9.580
11314WAT     H134184   5.889   1.455   9.583
11314WAT     H234185   6.024   1.458   9.674
11315WAT      O34186   6.623   9.772   6.836
11315WAT     H134187   6.646   9.699   6.772
11315WAT     H234188   6.533   9.809   6.814
11316WAT      O34189   3.760   4.276   7.134
11316WAT     H134190   3.666   4.302   7.112
11316WAT     H234191   3.801   4.345   7.193
11317WAT      O34192   3.251   9.496   5.507
11317WAT     H134193   3.178   9.435   5.478
11317WAT     H234194   3.304   9.452   5.579
11318WAT      O34195   2.630   7.869   3.194
11318WAT     H134196   2.556   7.904   3.252
11318WAT     H234197   2.699   7.824   3.250
11319WAT      O34198   7.146   7.960   7.520
11319WAT     H134199   7.140   7.970   7.420
11319WAT     H234200   7.075   8.016   7.563
11320WAT      O34201   1.341   6.206   1.432
11320WAT     H134202   1.272   6.148   1.388
11320WAT     H234203   1.299   6.294   1.458
11321WAT      O34204   1.642   2.980   6.497
11321WAT     H134205   1.636   2.880   6.499
11321WAT     H234206   1.551   3.019   6.512
11322WAT      O34207   1.173   4.748   4.671
11322WAT     H134208   1.192   4.656   4.705
11322WAT     H234209   1.103   4.744   4.599
11323WAT      O34210   4.144   8.582   4.533
11323WAT     H134211   4.111   8.502   4.482
11323WAT     H234212   4.192   8.551   4.615
11324WAT      O34213   1.418   4.050   3.732
11324WAT     H134214   1.395   4.089   3.643
11324WAT     H234215   1.338   4.055   3.792
11325WAT      O34216   5.853   0.788   9.109
11325WAT     H134217   5.912   0.844   9.050
11325WAT     H234218   5.774   0.755   9.057
11326WAT      O34219   2.109   6.566   3.795
11326WAT     H134220   2.081   6.634   3.863
11326WAT     H234221   2.073   6.476   3.821
11327WAT      O34222   1.804   6.438   6.800
11327WAT     H134223   1.825   6.341   6.787
11327WAT     H234224   1.862   6.476   6.871
11328WAT      O34225   3.274   8.698   7.064
11328WAT     H134226   3.249   8.740   6.976
11328WAT     H234227   3.254   8.762   7.138
11329WAT      O34228   7.100   0.729   4.401
11329WAT     H134229   7.127   0.758   4.493
11329WAT     H234230   7.063   0.637   4.405
11330WAT      O34231   6.481   3.690   5.864
11330WAT     H134232   6.514   3.765   5.807
11330WAT     H234233   6.523   3.695   5.954
11331WAT      O34234   8.831   5.906   0.843
11331WAT     H134235   8.780   5.952   0.916
11331WAT     H234236   8.815   5.807   0.848
11332WAT      O34237   6.449   9.786   9.006
11332WAT     H134238   6.386   9.863   9.010
11332WAT     H234239   6.522   9.805   8.941
11333WAT      O34240   6.878   7.741   5.426
11333WAT     H134241   6.931   7.659   5.404
11333WAT     H234242   6.855   7.740   5.523
11334WAT      O34243   7.990   0.987   5.544
11334WAT     H134244   8.039   0.913   5.498
11334WAT     H234245   7.993   0.972   5.643
11335WAT      O34246   9.588   6.843   4.127
11335WAT     H134247   9.623   6.853   4.034
11335WAT     H234248   9.559   6.748   4.141
11336WAT      O34249   2.771   3.828   3.171
11336WAT     H134250   2.834   3.801   3.244
11336WAT     H234251   2.770   3.757   3.101
11337WAT      O34252   5.994   5.980   4.246
11337WAT     H134253   6.030   5.898   4.292
11337WAT     H234254   5.911   6.010   4.292
11338WAT      O34255   2.916   6.999   7.537
11338WAT     H134256   2.947   7.081   7.586
11338WAT     H234257   2.852   6.948   7.594
11339WAT      O34258   2.518   3.740   8.482
11339WAT     H134259   2.597   3.786   8.441
11339WAT     H234260   2.507   3.650   8.440
11340WAT      O34261   3.827   4.748   6.385
11340WAT     H134262   3.862   4.806   6.459
11340WAT     H234263   3.834   4.652   6.412
11341WAT      O34264   5.558   0.465   6.232
11341WAT     H134265   5.554   0.561   6.204
11341WAT     H234266   5.640   0.450   6.287
11342WAT      O34267   2.859   1.144   6.151
11342WAT     H134268   2.849   1.050   6.185
11342WAT     H234269   2.801   1.205   6.204
11343WAT      O34270   8.581   4.390   4.145
11343WAT     H134271   8.671   4.417   4.178
11343WAT     H234272   8.571   4.420   4.050
11344WAT      O34273   3.906   3.338   2.853
11344WAT     H134274   3.866   3.414   2.801
11344WAT     H234275   3.832   3.282   2.891
11345WAT      O34276   7.631   3.838   7.391
11345WAT     H134277   7.561   3.867   7.326
11345WAT     H234278   7.720   3.839   7.347
11346WAT      O34279   4.200   8.112   6.529
11346WAT     H134280   4.233   8.018   6.527
11346WAT     H234281   4.101   8.114   6.515
11347WAT      O34282   1.591   0.510   6.693
11347WAT     H134283   1.608   0.608   6.707
11347WAT     H234284   1.636   0.458   6.765
11348WAT      O34285   2.135   5.328   4.688
11348WAT     H134286   2.091   5.243   4.658
11348WAT     H234287   2.069   5.403   4.686
11349WAT      O34288   5.251   2.013   5.312
11349WAT     H134289   5.299   2.096   5.288
11349WAT     H234290   5.156   2.019   5.281
11350WAT      O34291   8.717   8.376   9.426
11350WAT     H134292   8.672   8.309   9.367
11350WAT     H234293   8.812   8.349   9.442
11351WAT      O34294   7.617   5.877   0.706
11351WAT     H134295   7.624   5.868   0.607
11351WAT     H234296   7.576   5.795   0.744
11352WAT      O34297   1.615   8.139   1.171
11352WAT     H134298   1.632   8.202   1.095
11352WAT     H234299   1.681   8.064   1.167
11353WAT      O34300   6.593   9.582   8.787
11353WAT     H134301   6.650   9.597   8.868
11353WAT     H234302   6.520   9.517   8.810
11354WAT      O34303   0.758   8.205   0.154
11354WAT     H134304   0.712   8.293   0.156
11354WAT     H234305   0.850   8.216   0.118
11355WAT      O34306   0.025   0.630   5.279
11355WAT     H134307   0.090   0.651   5.206
11355WAT     H234308  -0.062   0.600   5.240
11356WAT      O34309   7.835   2.481   7.332
11356WAT     H134310   7.817   2.570   7.292
11356WAT     H234311   7.811   2.409   7.267
11357WAT      O34312   6.780   3.571   2.033
11357WAT     H134313   6.697   3.541   2.081
11357WAT     H234314   6.828   3.491   1.997
11358WAT      O34315   6.230   7.177   5.584
11358WAT     H134316   6.282   7.256   5.616
11358WAT     H234317   6.237   7.171   5.484
11359WAT      O34318   9.725   4.157   3.770
11359WAT     H134319   9.737   4.155   3.671
11359WAT     H234320   9.815   4.161   3.814
11360WAT      O34321   5.576   3.569   4.711
11360WAT     H134322   5.533   3.492   4.756
11360WAT     H234323   5.522   3.652   4.727
11361WAT      O34324   5.618   6.044   5.373
11361WAT     H134325   5.601   6.106   5.450
11361WAT     H234326   5.669   5.965   5.406
11362WAT      O34327   0.769   1.964   9.359
11362WAT     H134328   0.769   1.876   9.312
11362WAT     H234329   0.852   1.973   9.413
11363WAT      O34330   3.441   3.753   6.507
11363WAT     H134331   3.455   3.772   6.604
11363WAT     H234332   3.352   3.789   6.478
11364WAT      O34333   4.896   1.646   0.240
11364WAT     H134334   4.936   1.737   0.239
11364WAT     H234335   4.912   1.601   0.152
11365WAT      O34336   8.326   3.787   7.790
11365WAT     H134337   8.353   3.855   7.722
11365WAT     H234338   8.405   3.730   7.813
11366WAT      O34339   2.536   9.083   6.985
11366WAT     H134340   2.621   9.135   6.995
11366WAT     H234341   2.465   9.142   6.948
11367WAT      O34342   5.523   4.113   6.808
11367WAT     H134343   5.450   4.091   6.743
11367WAT     H234344   5.490   4.099   6.901
11368WAT      O34345   0.988   9.697   9.317
11368WAT     H134346   1.074   9.744   9.297
11368WAT     H234347   0.937   9.748   9.386
11369WAT      O34348   7.104   7.735   1.433
11369WAT     H134349   7.167   7.811   1.419
11369WAT     H234350   7.067   7.706   1.345
11370WAT      O34351   3.095   0.302   0.209
11370WAT     H134352   3.131   0.395   0.208
11370WAT     H234353   3.123   0.256   0.293
11371WAT      O34354   1.986   9.308   6.931
11371WAT     H134355   1.890   9.293   6.958
11371WAT     H234356   2.027   9.221   6.905
11372WAT      O34357   5.115   0.626   5.419
11372WAT     H134358   5.098   0.563   5.495
11372WAT     H234359   5.049   0.609   5.347
11373WAT      O34360   5.497   6.815   0.670
11373WAT     H134361   5.468   6.833   0.764
11373WAT     H234362   5.436   6.747   0.629
11374WAT      O34363   6.152   5.471   2.679
11374WAT     H134364   6.231   5.445   2.735
11374WAT     H234365   6.079   5.403   2.692
11375WAT      O34366   8.659   2.014   2.142
11375WAT     H134367   8.661   2.113   2.154
11375WAT     H234368   8.636   1.992   2.047
11376WAT      O34369   6.865   5.288   2.442
11376WAT     H134370   6.774   5.317   2.413
11376WAT     H234371   6.931   5.362   2.429
11377WAT      O34372   4.904   2.596   4.415
11377WAT     H134373   4.988   2.542   4.409
11377WAT     H234374   4.910   2.657   4.494
11378WAT      O34375   5.880   8.159   1.088
11378WAT     H134376   5.960   8.206   1.124
11378WAT     H234377   5.868   8.072   1.137
11379WAT      O34378   4.187   8.125   2.533
11379WAT     H134379   4.138   8.209   2.511
11379WAT     H234380   4.234   8.136   2.621
11380WAT      O34381   4.751   4.275   5.454
11380WAT     H134382   4.797   4.338   5.392
11380WAT     H234383   4.707   4.203   5.402
11381WAT      O34384   1.085   3.402   5.030
11381WAT     H134385   1.069   3.500   5.041
11381WAT     H234386   1.053   3.372   4.940
11382WAT      O34387   7.263   3.985   7.401
11382WAT     H134388   7.220   3.927   7.470
11382WAT     H234389   7.193   4.025   7.342
11383WAT      O34390   8.643   3.578   2.935
11383WAT     H134391   8.651   3.499   2.874
11383WAT     H234392   8.732   3.624   2.941
11384WAT      O34393   0.265   0.438   2.629
11384WAT     H134394   0.274   0.519   2.571
11384WAT     H234395   0.292   0.357   2.578
11385WAT      O34396   7.046   2.130   3.893
11385WAT     H134397   7.025   2.106   3.987
11385WAT     H234398   7.134   2.178   3.889
11386WAT      O34399   5.755   9.446   5.844
11386WAT     H134400   5.790   9.495   5.764
11386WAT     H234401   5.822   9.379   5.875
11387WAT      O34402   4.968   8.418   5.863
11387WAT     H134403   4.947   8.473   5.944
11387WAT     H234404   5.026   8.341   5.890
11388WAT      O34405   4.326   0.106   2.405
11388WAT     H134406   4.378   0.040   2.350
11388WAT     H234407   4.325   0.075   2.501
11389WAT      O34408   2.418   4.762   4.181
11389WAT     H134409   2.427   4.861   4.189
11389WAT     H234410   2.470   4.718   4.255
11390WAT      O34411   1.408   5.282   9.341
11390WAT     H134412   1.351   5.352   9.386
11390WAT     H234413   1.354   5.199   9.329
11391WAT      O34414   5.650   6.400   6.945
11391WAT     H134415   5.637   6.352   7.033
11391WAT     H234416   5.712   6.347   6.887
11392WAT      O34417   1.540   1.900   0.626
11392WAT     H134418   1.565   1.835   0.697
11392WAT     H234419   1.499   1.851   0.549
11393WAT      O34420   8.175   6.170   7.811
11393WAT     H134421   8.146   6.116   7.890
11393WAT     H234422   8.101   6.173   7.744
11394WAT      O34423   1.290   8.584   6.056
11394WAT     H134424   1.224   8.512   6.079
11394WAT     H234425   1.265   8.625   5.969
11395WAT      O34426   4.407   8.372   3.992
11395WAT     H134427   4.441   8.416   3.908
11395WAT     H234428   4.369   8.282   3.970
11396WAT      O34429   1.181   1.573   4.813
11396WAT     H134430   1.091   1.584   4.854
11396WAT     H234431   1.211   1.659   4.772
11397WAT      O34432   2.006   5.425   6.122
11397WAT     H134433   2.103   5.415   6.144
11397WAT     H234434   1.996   5.478   6.038
11398WAT      O34435   3.469   6.611   5.549
11398WAT     H134436   3.370   6.612   5.564
11398WAT     H234437   3.509   6.531   5.594
11399WAT      O34438   9.723   9.178   4.003
11399WAT     H134439   9.687   9.204   3.914
11399WAT     H234440   9.777   9.094   3.995
11400WAT      O34441   8.723   6.457   4.639
11400WAT     H134442   8.676   6.369   4.633
11400WAT     H234443   8.698   6.514   4.561
11401WAT      O34444   1.771   3.011   1.684
11401WAT     H134445   1.852   2.998   1.740
11401WAT     H234446   1.790   3.079   1.613
11402WAT      O34447   8.018   2.684   4.532
11402WAT     H134448   8.015   2.635   4.620
11402WAT     H234449   7.929   2.680   4.489
11403WAT      O34450   8.013   6.357   8.909
11403WAT     H134451   7.960   6.400   8.982
11403WAT     H234452   8.075   6.424   8.868
11404WAT      O34453   4.910   8.603   6.081
11404WAT     H134454   4.924   8.700   6.098
11404WAT     H234455   4.921   8.553   6.167
11405WAT      O34456   6.397   6.095   6.153
11405WAT     H134457   6.445   6.095   6.241
11405WAT     H234458   6.368   6.188   6.130
11406WAT      O34459   4.133   7.215   8.948
11406WAT     H134460   4.168   7.247   9.036
11406WAT     H234461   4.185   7.257   8.874
11407WAT      O34462   5.089   0.011   8.326
11407WAT     H134463   5.038   0.094   8.347
11407WAT     H234464   5.184   0.034   8.306
11408WAT      O34465   5.338   3.563   0.587
11408WAT     H134466   5.342   3.485   0.650
11408WAT     H234467   5.273   3.630   0.621
11409WAT      O34468   5.776   5.624   6.213
11409WAT     H134469   5.802   5.610   6.309
11409WAT     H234470   5.840   5.686   6.169
11410WAT      O34471   3.637   0.837   8.890
11410WAT     H134472   3.553   0.856   8.941
11410WAT     H234473   3.619   0.767   8.821
11411WAT      O34474   4.777   2.338   4.095
11411WAT     H134475   4.693   2.292   4.126
11411WAT     H234476   4.774   2.434   4.121
11412WAT      O34477   2.558   5.699   6.693
11412WAT     H134478   2.519   5.768   6.753
11412WAT     H234479   2.571   5.736   6.602
11413WAT      O34480   3.730   1.042   4.955
11413WAT     H134481   3.825   1.011   4.954
11413WAT     H234482   3.711   1.094   4.872
11414WAT      O34483   9.810   9.024   3.672
11414WAT     H134484   9.756   8.939   3.675
11414WAT     H234485   9.873   9.026   3.749
11415WAT      O34486   3.397   9.276   3.066
11415WAT     H134487   3.352   9.236   2.986
11415WAT     H234488   3.456   9.351   3.038
11416WAT      O34489   4.439   7.232   3.278
11416WAT     H134490   4.427   7.296   3.354
11416WAT     H234491   4.467   7.283   3.196
11417WAT      O34492   2.404   6.400   4.061
11417WAT     H134493   2.477   6.347   4.018
11417WAT     H234494   2.330   6.339   4.088
11418WAT      O34495   1.616   6.808   5.980
11418WAT     H134496   1.571   6.739   5.923
11418WAT     H234497   1.646   6.884   5.923
11419WAT      O34498   6.856   3.630   3.413
11419WAT     H134499   6.902   3.700   3.467
11419WAT     H234500   6.790   3.582   3.470
11420WAT      O34501   9.647   3.968   8.077
11420WAT     H134502   9.609   3.908   8.006
11420WAT     H234503   9.746   3.974   8.066
11421WAT      O34504   4.082   9.797   4.172
11421WAT     H134505   4.169   9.807   4.124
11421WAT     H234506   4.077   9.706   4.213
11422WAT      O34507   6.084   8.165   5.326
11422WAT     H134508   6.146   8.188   5.251
11422WAT     H234509   6.021   8.241   5.341
11423WAT      O34510   0.040   9.378   2.687
11423WAT     H134511   0.023   9.456   2.747
11423WAT     H234512  -0.026   9.378   2.612
11424WAT      O34513   5.428   2.930   7.304
11424WAT     H134514   5.384   2.956   7.218
11424WAT     H234515   5.447   2.832   7.303
11425WAT      O34516   2.649   9.720   6.924
11425WAT     H134517   2.668   9.805   6.875
11425WAT     H234518   2.564   9.679   6.889
11426WAT      O34519   9.089   6.973   2.497
11426WAT     H134520   9.111   6.880   2.466
11426WAT     H234521   8.991   6.980   2.512
11427WAT      O34522   1.372   4.819   5.972
11427WAT     H134523   1.374   4.890   5.902
11427WAT     H234524   1.281   4.817   6.015
11428WAT      O34525   0.155   6.724   9.046
11428WAT     H134526   0.057   6.710   9.059
11428WAT     H234527   0.202   6.710   9.133
11429WAT      O34528   6.432   5.211   4.454
11429WAT     H134529   6.390   5.201   4.363
11429WAT     H234530   6.455   5.120   4.490
11430WAT      O34531   8.027   5.123   8.026
11430WAT     H134532   8.053   5.109   7.931
11430WAT     H234533   7.979   5.042   8.060
11431WAT      O34534   7.979   1.978   9.829
11431WAT     H134535   7.901   1.995   9.890
11431WAT     H234536   7.945   1.962   9.736
11432WAT      O34537   2.673   8.316   0.886
11432WAT     H134538   2.672   8.280   0.792
11432WAT     H234539   2.767   8.314   0.921
11433WAT      O34540   6.473   9.640   7.884
11433WAT     H134541   6.534   9.706   7.927
11433WAT     H234542   6.442   9.676   7.796
11434WAT      O34543   8.563   7.296   1.773
11434WAT     H134544   8.475   7.301   1.726
11434WAT     H234545   8.624   7.366   1.737
11435WAT      O34546   4.823   6.862   5.263
11435WAT     H134547   4.850   6.878   5.358
11435WAT     H234548   4.749   6.795   5.260
11436WAT      O34549   6.690   8.860   3.774
11436WAT     H134550   6.696   8.907   3.862
11436WAT     H234551   6.674   8.926   3.701
11437WAT      O34552   9.452   9.056   4.366
11437WAT     H134553   9.508   9.135   4.339
11437WAT     H234554   9.457   8.986   4.294
11438WAT      O34555   3.559   5.924   9.008
11438WAT     H134556   3.567   5.825   9.019
11438WAT     H234557   3.645   5.967   9.033
11439WAT      O34558   9.759   4.819   8.064
11439WAT     H134559   9.839   4.767   8.093
11439WAT     H234560   9.679   4.790   8.117
11440WAT      O34561   9.113   9.295   5.297
11440WAT     H134562   9.089   9.270   5.204
11440WAT     H234563   9.138   9.392   5.300
11441WAT      O34564   3.680   4.873   2.069
11441WAT     H134565   3.639   4.898   2.157
11441WAT     H234566   3.736   4.949   2.036
11442WAT      O34567   4.685   3.347   6.980
11442WAT     H134568   4.625   3.424   7.004
11442WAT     H234569   4.780   3.378   6.978
11443WAT      O34570   6.336   1.632   4.210
11443WAT     H134571   6.399   1.704   4.238
11443WAT     H234572   6.273   1.610   4.285
11444WAT      O34573   9.865   7.572   0.863
11444WAT     H134574   9.920   7.625   0.798
11444WAT     H234575   9.921   7.551   0.943
11445WAT      O34576   6.689   7.251   0.133
11445WAT     H134577   6.745   7.211   0.061
11445WAT     H234578   6.645   7.334   0.099
11446WAT      O34579   4.295   1.025   3.582
11446WAT     H134580   4.209   1.072   3.565
11446WAT     H234581   4.329   1.048   3.673
11447WAT      O34582   0.871   2.650   2.930
11447WAT     H134583   0.889   2.722   2.998
11447WAT     H234584   0.950   2.642   2.869
11448WAT      O34585   6.563   3.024   2.541
11448WAT     H134586   6.619   2.943   2.524
11448WAT     H234587   6.521   3.017   2.632
11449WAT      O34588   8.163   8.751   7.814
11449WAT     H134589   8.137   8.785   7.724
11449WAT     H234590   8.194   8.828   7.871
11450WAT      O34591   9.233   5.290   5.354
11450WAT     H134592   9.190   5.232   5.284
11450WAT     H234593   9.332   5.277   5.351
11451WAT      O34594   1.511   4.340   7.009
11451WAT     H134595   1.454   4.290   7.075
11451WAT     H234596   1.607   4.326   7.030
11452WAT      O34597   8.930   5.429   2.000
11452WAT     H134598   9.030   5.416   2.000
11452WAT     H234599   8.903   5.478   1.917
11453WAT      O34600   0.344   4.988   7.308
11453WAT     H134601   0.303   4.980   7.400
11453WAT     H234602   0.382   5.079   7.297
11454WAT      O34603   4.866   6.449   3.122
11454WAT     H134604   4.794   6.483   3.061
11454WAT     H234605   4.871   6.349   3.115
11455WAT      O34606   0.447   9.409   9.073
11455WAT     H134607   0.380   9.344   9.038
11455WAT     H234608   0.478   9.380   9.163
11456WAT      O34609   2.347   2.001   3.408
11456WAT     H134610   2.296   2.050   3.478
11456WAT     H234611   2.284   1.955   3.346
11457WAT      O34612   6.864   4.440   3.923
11457WAT     H134613   6.834   4.386   4.002
11457WAT     H234614   6.858   4.384   3.841
11458WAT      O34615   2.280   6.884   5.943
11458WAT     H134616   2.267   6.979   5.971
11458WAT     H234617   2.360   6.878   5.883
11459WAT      O34618   1.990   0.070   2.400
11459WAT     H134619   2.057   0.009   2.357
11459WAT     H234620   1.959   0.030   2.486
11460WAT      O34621   2.776   3.074   6.744
11460WAT     H134622   2.692   3.037   6.704
11460WAT     H234623   2.855   3.039   6.693
11461WAT      O34624   0.058   0.238   6.187
11461WAT     H134625   0.010   0.324   6.206
11461WAT     H234626   0.102   0.243   6.098
11462WAT      O34627   4.477   9.056   6.210
11462WAT     H134628   4.403   8.997   6.179
11462WAT     H234629   4.495   9.127   6.142
11463WAT      O34630   2.885   6.455   3.597
11463WAT     H134631   2.947   6.380   3.619
11463WAT     H234632   2.938   6.537   3.575
11464WAT      O34633   1.903   0.560   2.209
11464WAT     H134634   1.889   0.475   2.261
11464WAT     H234635   1.942   0.539   2.120
11465WAT      O34636   6.107   6.107   9.756
11465WAT     H134637   6.151   6.162   9.827
11465WAT     H234638   6.149   6.016   9.753
11466WAT      O34639   4.369   3.686   4.473
11466WAT     H134640   4.292   3.668   4.412
11466WAT     H234641   4.412   3.600   4.499
11467WAT      O34642   1.811   5.712   4.600
11467WAT     H134643   1.891   5.753   4.558
11467WAT     H234644   1.728   5.755   4.564
11468WAT      O34645   7.398   2.413   3.241
11468WAT     H134646   7.459   2.360   3.182
11468WAT     H234647   7.343   2.475   3.185
11469WAT      O34648   6.834   1.805   3.183
11469WAT     H134649   6.776   1.886   3.170
11469WAT     H234650   6.930   1.830   3.167
11470WAT      O34651   6.241   4.945   9.465
11470WAT     H134652   6.181   5.021   9.440
11470WAT     H234653   6.188   4.877   9.516
11471WAT      O34654   9.744   3.627   7.982
11471WAT     H134655   9.649   3.656   7.998
11471WAT     H234656   9.744   3.553   7.915
11472WAT      O34657   0.886   7.310   2.233
11472WAT     H134658   0.887   7.340   2.137
11472WAT     H234659   0.792   7.284   2.258
11473WAT      O34660   0.753   6.838   6.769
11473WAT     H134661   0.737   6.776   6.846
11473WAT     H234662   0.692   6.814   6.694
11474WAT      O34663   3.978   0.360   9.631
11474WAT     H134664   3.931   0.330   9.548
11474WAT     H234665   3.956   0.297   9.706
11475WAT      O34666   6.628   1.982   6.205
11475WAT     H134667   6.565   1.936   6.142
11475WAT     H234668   6.598   2.077   6.217
11476WAT      O34669   0.475   8.215   1.867
11476WAT     H134670   0.425   8.300   1.884
11476WAT     H234671   0.572   8.235   1.855
11477WAT      O34672   4.168   1.378   6.718
11477WAT     H134673   4.199   1.336   6.633
11477WAT     H234674   4.078   1.419   6.705
11478WAT      O34675   5.265   0.193   4.145
11478WAT     H134676   5.263   0.129   4.222
11478WAT     H234677   5.309   0.278   4.174
11479WAT      O34678   9.368   5.926   3.459
11479WAT     H134679   9.276   5.889   3.470
11479WAT     H234680   9.423   5.865   3.402
11480WAT      O34681   8.775   8.976   5.055
11480WAT     H134682   8.683   8.956   5.020
11480WAT     H234683   8.778   8.956   5.153
11481WAT      O34684   0.660   4.927   8.423
11481WAT     H134685   0.654   4.828   8.433
11481WAT     H234686   0.599   4.971   8.489
11482WAT      O34687   5.100   0.021   2.476
11482WAT     H134688   5.074  -0.076   2.478
11482WAT     H234689   5.148   0.044   2.561
11483WAT      O34690   8.281   3.642   7.014
11483WAT     H134691   8.196   3.671   7.058
11483WAT     H234692   8.352   3.631   7.083
11484WAT      O34693   8.039   6.119   1.214
11484WAT     H134694   7.992   6.132   1.301
11484WAT     H234695   7.972   6.104   1.142
11485WAT      O34696   1.160   8.397   3.697
11485WAT     H134697   1.121   8.422   3.609
11485WAT     H234698   1.157   8.476   3.758
11486WAT      O34699   7.024   8.042   5.669
11486WAT     H134700   6.969   7.998   5.740
11486WAT     H234701   6.971   8.049   5.585
11487WAT      O34702   4.590   5.597   0.895
11487WAT     H134703   4.590   5.618   0.993
11487WAT     H234704   4.565   5.679   0.843
11488WAT      O34705   5.879   5.291   1.789
11488WAT     H134706   5.841   5.307   1.880
11488WAT     H234707   5.954   5.224   1.795
11489WAT      O34708   8.424   0.529   5.487
11489WAT     H134709   8.384   0.486   5.406
11489WAT     H234710   8.456   0.458   5.550
11490WAT      O34711   6.400   3.137   5.061
11490WAT     H134712   6.364   3.126   4.969
11490WAT     H234713   6.499   3.153   5.056
11491WAT      O34714   2.548   9.811   6.444
11491WAT     H134715   2.624   9.790   6.506
11491WAT     H234716   2.477   9.742   6.453
11492WAT      O34717   7.778   1.194   7.634
11492WAT     H134718   7.849   1.218   7.568
11492WAT     H234719   7.730   1.278   7.663
11493WAT      O34720   2.817   5.726   2.995
11493WAT     H134721   2.761   5.795   3.042
11493WAT     H234722   2.868   5.770   2.921
11494WAT      O34723   6.718   0.892   8.831
11494WAT     H134724   6.770   0.810   8.855
11494WAT     H234725   6.620   0.873   8.841
11495WAT      O34726   0.695   4.967   1.007
11495WAT     H134727   0.685   4.969   0.907
11495WAT     H234728   0.633   5.034   1.048
11496WAT      O34729   7.660   7.067   1.835
11496WAT     H134730   7.664   6.998   1.764
11496WAT     H234731   7.654   7.023   1.925
11497WAT      O34732   2.822   1.883   2.785
11497WAT     H134733   2.801   1.941   2.864
11497WAT     H234734   2.881   1.933   2.721
11498WAT      O34735   5.160   4.242   5.781
11498WAT     H134736   5.227   4.316   5.790
11498WAT     H234737   5.205   4.160   5.747
11499WAT      O34738   5.269   4.124   7.652
11499WAT     H134739   5.193   4.187   7.637
11499WAT     H234740   5.305   4.135   7.744
11500WAT      O34741   8.700   0.395   6.113
11500WAT     H134742   8.798   0.416   6.114
11500WAT     H234743   8.663   0.416   6.022
11501WAT      O34744   6.271   3.384   0.031
11501WAT     H134745   6.340   3.329   0.077
11501WAT     H234746   6.262   3.355  -0.065
11502WAT      O34747   5.857   5.662   0.592
11502WAT     H134748   5.786   5.714   0.639
11502WAT     H234749   5.913   5.613   0.659
11503WAT      O34750   7.771   3.158   2.132
11503WAT     H134751   7.749   3.199   2.044
11503WAT     H234752   7.687   3.126   2.176
11504WAT      O34753   1.962   8.192   6.026
11504WAT     H134754   1.869   8.165   6.002
11504WAT     H234755   1.963   8.290   6.050
11505WAT      O34756   6.465   0.147   4.500
11505WAT     H134757   6.513   0.060   4.487
11505WAT     H234758   6.389   0.135   4.563
11506WAT      O34759   2.339   6.655   0.981
11506WAT     H134760   2.384   6.588   0.920
11506WAT     H234761   2.251   6.619   1.011
11507WAT      O34762   5.724   8.380   8.603
11507WAT     H134763   5.771   8.461   8.639
11507WAT     H234764   5.684   8.328   8.678
11508WAT      O34765   3.090   6.552   0.298
11508WAT     H134766   3.186   6.556   0.326
11508WAT     H234767   3.035   6.608   0.359
11509WAT      O34768   6.893   5.172   2.702
11509WAT     H134769   6.884   5.228   2.620
11509WAT     H234770   6.985   5.133   2.706
11510WAT      O34771   4.925   6.769   4.132
11510WAT     H134772   5.008   6.714   4.135
11510WAT     H234773   4.941   6.849   4.074
11511WAT      O34774   0.063   9.835   1.807
11511WAT     H134775   0.040   9.776   1.729
11511WAT     H234776  -0.020   9.860   1.856
11512WAT      O34777   9.056   0.781   0.414
11512WAT     H134778   8.964   0.799   0.380
11512WAT     H234779   9.072   0.683   0.416
11513WAT      O34780   2.053   1.853   1.216
11513WAT     H134781   2.058   1.763   1.172
11513WAT     H234782   1.957   1.877   1.230
11514WAT      O34783   2.367   6.137   2.680
11514WAT     H134784   2.362   6.237   2.680
11514WAT     H234785   2.320   6.101   2.760
11515WAT      O34786   0.438   2.737   5.232
11515WAT     H134787   0.344   2.767   5.252
11515WAT     H234788   0.470   2.780   5.148
11516WAT      O34789   8.719   0.744   7.110
11516WAT     H134790   8.714   0.784   7.018
11516WAT     H234791   8.797   0.782   7.159
11517WAT      O34792   4.658   0.681   9.878
11517WAT     H134793   4.564   0.671   9.846
11517WAT     H234794   4.662   0.663   9.976
11518WAT      O34795   5.107   6.133   4.388
11518WAT     H134796   5.079   6.036   4.388
11518WAT     H234797   5.049   6.184   4.451
11519WAT      O34798   6.142   7.294   1.021
11519WAT     H134799   6.043   7.310   1.016
11519WAT     H234800   6.182   7.309   0.930
11520WAT      O34801   3.160   9.705   8.485
11520WAT     H134802   3.105   9.779   8.521
11520WAT     H234803   3.256   9.719   8.509
11521WAT      O34804   4.960   6.644   0.631
11521WAT     H134805   4.941   6.553   0.595
11521WAT     H234806   5.043   6.680   0.589
11522WAT      O34807   3.381   7.881   1.748
11522WAT     H134808   3.352   7.794   1.788
11522WAT     H234809   3.315   7.910   1.680
11523WAT      O34810   2.746   5.284   6.329
11523WAT     H134811   2.822   5.219   6.328
11523WAT     H234812   2.769   5.363   6.273
11524WAT      O34813   6.167   0.157   6.242
11524WAT     H134814   6.240   0.108   6.290
11524WAT     H234815   6.206   0.236   6.195
11525WAT      O34816   3.123   6.251   8.534
11525WAT     H134817   3.146   6.234   8.630
11525WAT     H234818   3.033   6.212   8.514
11526WAT      O34819   7.734   1.823   0.410
11526WAT     H134820   7.797   1.759   0.453
11526WAT     H234821   7.722   1.903   0.469
11527WAT      O34822   7.523   4.555   6.687
11527WAT     H134823   7.492   4.648   6.706
11527WAT     H234824   7.519   4.538   6.589
11528WAT      O34825   5.436   3.570   9.317
11528WAT     H134826   5.514   3.592   9.376
11528WAT     H234827   5.436   3.472   9.297
11529WAT      O34828   4.495   0.286   4.754
11529WAT     H134829   4.444   0.303   4.838
11529WAT     H234830   4.531   0.373   4.719
11530WAT      O34831   8.565   7.318   2.825
11530WAT     H134832   8.483   7.351   2.873
11530WAT     H234833   8.607   7.244   2.879
11531WAT      O34834   3.612   6.953   2.616
11531WAT     H134835   3.516   6.933   2.597
11531WAT     H234836   3.624   6.968   2.715
11532WAT      O34837   6.635   8.330   0.538
11532WAT     H134838   6.710   8.268   0.561
11532WAT     H234839   6.562   8.278   0.492
11533WAT      O34840   2.464   3.310   7.779
11533WAT     H134841   2.543   3.306   7.718
11533WAT     H234842   2.391   3.365   7.738
11534WAT      O34843   4.028   3.719   3.028
11534WAT     H134844   4.012   3.806   3.075
11534WAT     H234845   3.946   3.663   3.034
11535WAT      O34846   0.917   1.137   8.202
11535WAT     H134847   0.951   1.090   8.283
11535WAT     H234848   0.938   1.235   8.208
11536WAT      O34849   2.326   4.290   9.795
11536WAT     H134850   2.344   4.254   9.886
11536WAT     H234851   2.233   4.326   9.790
11537WAT      O34852   7.643   4.938   2.467
11537WAT     H134853   7.626   5.036   2.473
11537WAT     H234854   7.676   4.904   2.556
11538WAT      O34855   2.042   0.523   0.907
11538WAT     H134856   2.105   0.598   0.889
11538WAT     H234857   2.014   0.525   1.003
11539WAT      O34858   7.218   9.175   3.088
11539WAT     H134859   7.245   9.236   3.013
11539WAT     H234860   7.292   9.111   3.107
11540WAT      O34861   5.918   5.234   8.261
11540WAT     H134862   5.888   5.180   8.183
11540WAT     H234863   5.976   5.309   8.230
11541WAT      O34864   2.747   6.816   7.675
11541WAT     H134865   2.674   6.773   7.622
11541WAT     H234866   2.740   6.788   7.771
11542WAT      O34867   8.731   1.825   4.055
11542WAT     H134868   8.783   1.886   4.115
11542WAT     H234869   8.740   1.856   3.960
11543WAT      O34870   4.088   2.349   6.587
11543WAT     H134871   4.051   2.269   6.633
11543WAT     H234872   4.068   2.431   6.641
11544WAT      O34873   2.047   3.114   6.339
11544WAT     H134874   2.114   3.070   6.399
11544WAT     H234875   2.028   3.206   6.373
11545WAT      O34876   0.639   8.989   5.426
11545WAT     H134877   0.732   8.953   5.417
11545WAT     H234878   0.614   9.038   5.343
11546WAT      O34879   5.932   5.160   4.706
11546WAT     H134880   5.913   5.113   4.792
11546WAT     H234881   5.891   5.251   4.709
11547WAT      O34882   4.395   1.635   4.261
11547WAT     H134883   4.375   1.717   4.208
11547WAT     H234884   4.492   1.611   4.252
11548WAT      O34885   0.800   8.546   1.494
11548WAT     H134886   0.805   8.543   1.394
11548WAT     H234887   0.891   8.532   1.532
11549WAT      O34888   8.886   5.175   7.472
11549WAT     H134889   8.930   5.241   7.533
11549WAT     H234890   8.844   5.224   7.395
11550WAT      O34891   8.700   8.849   2.526
11550WAT     H134892   8.645   8.766   2.531
11550WAT     H234893   8.705   8.881   2.431
11551WAT      O34894   5.517   9.378   9.764
11551WAT     H134895   5.600   9.382   9.820
11551WAT     H234896   5.521   9.300   9.702
11552WAT      O34897   1.475   3.823   0.561
11552WAT     H134898   1.539   3.765   0.511
11552WAT     H234899   1.470   3.913   0.517
11553WAT      O34900   1.732   1.763   9.859
11553WAT     H134901   1.684   1.803   9.938
11553WAT     H234902   1.686   1.679   9.831
11554WAT      O34903   9.096   3.484   6.589
11554WAT     H134904   9.009   3.457   6.549
11554WAT     H234905   9.103   3.583   6.591
11555WAT      O34906   9.588   4.517   2.773
11555WAT     H134907   9.592   4.616   2.780
11555WAT     H234908   9.508   4.483   2.823
11556WAT      O34909   8.060   6.569   3.255
11556WAT     H134910   8.054   6.528   3.346
11556WAT     H234911   7.986   6.635   3.243
11557WAT      O34912   3.001   2.035   1.807
11557WAT     H134913   3.082   2.038   1.748
11557WAT     H234914   2.967   1.942   1.813
11558WAT      O34915   8.995   3.584   7.949
11558WAT     H134916   9.011   3.678   7.920
11558WAT     H234917   8.897   3.563   7.945
11559WAT      O34918   6.180   1.100   4.184
11559WAT     H134919   6.123   1.061   4.257
11559WAT     H234920   6.171   1.199   4.183
11560WAT      O34921   7.571   3.681   2.304
11560WAT     H134922   7.604   3.763   2.352
11560WAT     H234923   7.510   3.629   2.363
11561WAT      O34924   4.826   6.119   6.992
11561WAT     H134925   4.910   6.089   7.037
11561WAT     H234926   4.826   6.219   6.985
11562WAT      O34927   5.169   6.434   2.747
11562WAT     H134928   5.129   6.381   2.673
11562WAT     H234929   5.154   6.531   2.731
11563WAT      O34930   5.458   3.225   4.447
11563WAT     H134931   5.363   3.199   4.468
11563WAT     H234932   5.474   3.215   4.349
11564WAT      O34933   7.826   1.595   3.960
11564WAT     H134934   7.912   1.641   3.940
11564WAT     H234935   7.750   1.647   3.920
11565WAT      O34936   8.825   9.644   4.397
11565WAT     H134937   8.773   9.595   4.328
11565WAT     H234938   8.886   9.711   4.353
11566WAT      O34939   0.571   4.858   2.048
11566WAT     H134940   0.653   4.806   2.069
11566WAT     H234941   0.550   4.920   2.123
11567WAT      O34942   1.165   3.534   6.153
11567WAT     H134943   1.169   3.439   6.183
11567WAT     H234944   1.117   3.589   6.221
11568WAT      O34945   1.632   1.327   7.071
11568WAT     H134946   1.601   1.284   6.986
11568WAT     H234947   1.636   1.258   7.143
11569WAT      O34948   2.965   6.964   2.660
11569WAT     H134949   3.028   7.004   2.726
11569WAT     H234950   2.876   6.950   2.703
11570WAT      O34951   3.262   4.918   5.613
11570WAT     H134952   3.193   4.989   5.599
11570WAT     H234953   3.330   4.922   5.539
11571WAT      O34954   8.327   8.801   6.736
11571WAT     H134955   8.308   8.720   6.791
11571WAT     H234956   8.415   8.790   6.691
11572WAT      O34957   1.088   9.837   3.698
11572WAT     H134958   1.055   9.745   3.679
11572WAT     H234959   1.106   9.847   3.796
11573WAT      O34960   4.127   2.249   4.600
11573WAT     H134961   4.032   2.223   4.582
11573WAT     H234962   4.179   2.168   4.627
11574WAT      O34963   0.379   0.811   3.127
11574WAT     H134964   0.452   0.865   3.169
11574WAT     H234965   0.355   0.850   3.038
11575WAT      O34966   1.587   5.772   0.044
11575WAT     H134967   1.587   5.725  -0.045
11575WAT     H234968   1.493   5.790   0.072
11576WAT      O34969   0.351   4.259   1.317
11576WAT     H134970   0.342   4.168   1.357
11576WAT     H234971   0.409   4.255   1.236
11577WAT      O34972   8.836   0.196   5.654
11577WAT     H134973   8.798   0.173   5.744
11577WAT     H234974   8.901   0.271   5.663
11578WAT      O34975   6.705   0.264   2.587
11578WAT     H134976   6.768   0.200   2.542
11578WAT     H234977   6.670   0.222   2.671
11579WAT      O34978   6.569   1.201   3.233
11579WAT     H134979   6.556   1.218   3.330
11579WAT     H234980   6.512   1.264   3.180
11580WAT      O34981   7.313   3.715   4.519
11580WAT     H134982   7.221   3.699   4.484
11580WAT     H234983   7.380   3.691   4.450
11581WAT      O34984   7.599   6.675   9.214
11581WAT     H134985   7.617   6.596   9.155
11581WAT     H234986   7.532   6.735   9.170
11582WAT      O34987   4.726   6.578   4.815
11582WAT     H134988   4.778   6.646   4.867
11582WAT     H234989   4.729   6.599   4.718
11583WAT      O34990   9.031   1.875   2.003
11583WAT     H134991   8.987   1.827   2.079
11583WAT     H234992   9.087   1.810   1.951
11584WAT      O34993   7.506   7.715   0.277
11584WAT     H134994   7.459   7.646   0.223
11584WAT     H234995   7.461   7.804   0.265
11585WAT      O34996   3.591   6.464   3.323
11585WAT     H134997   3.496   6.459   3.353
11585WAT     H234998   3.634   6.375   3.336
11586WAT      O34999   7.570   7.596   3.750
11586WAT     H135000   7.627   7.626   3.826
11586WAT     H235001   7.576   7.663   3.676
11587WAT      O35002   3.259   0.060   4.186
11587WAT     H135003   3.172   0.105   4.165
11587WAT     H235004   3.245  -0.039   4.192
11588WAT      O35005   7.463   9.360   1.387
11588WAT     H135006   7.412   9.440   1.356
11588WAT     H235007   7.448   9.347   1.485
11589WAT      O35008   4.235   5.641   6.540
11589WAT     H135009   4.287   5.565   6.500
11589WAT     H235010   4.256   5.725   6.491
11590WAT      O35011   2.045   8.391   8.100
11590WAT     H135012   2.069   8.388   8.002
11590WAT     H235013   2.017   8.484   8.124
11591WAT      O35014   6.202   2.803   1.979
11591WAT     H135015   6.148   2.885   1.960
11591WAT     H235016   6.243   2.769   1.894
11592WAT      O35017   6.849   4.984   3.321
11592WAT     H135018   6.879   4.913   3.257
11592WAT     H235019   6.801   5.056   3.271
11593WAT      O35020   6.431   4.235   4.043
11593WAT     H135021   6.435   4.279   3.953
11593WAT     H235022   6.455   4.302   4.113
11594WAT      O35023   4.793   4.793   8.554
11594WAT     H135024   4.823   4.874   8.503
11594WAT     H235025   4.847   4.786   8.638
11595WAT      O35026   3.919   0.373   7.762
11595WAT     H135027   3.835   0.427   7.763
11595WAT     H235028   3.944   0.349   7.856
11596WAT      O35029   4.915   4.170   8.016
11596WAT     H135030   4.946   4.188   8.109
11596WAT     H235031   4.829   4.119   8.019
11597WAT      O35032   5.101   0.307   9.718
11597WAT     H135033   5.158   0.346   9.789
11597WAT     H235034   5.128   0.344   9.629
11598WAT      O35035   0.369   9.766   2.907
11598WAT     H135036   0.386   9.862   2.930
11598WAT     H235037   0.272   9.754   2.884
11599WAT      O35038   1.036   9.825   8.915
11599WAT     H135039   0.982   9.822   8.999
11599WAT     H235040   1.133   9.820   8.938
11600WAT      O35041   7.777   1.302   3.961
11600WAT     H135042   7.837   1.382   3.957
11600WAT     H235043   7.828   1.220   3.937
11601WAT      O35044   4.239   4.101   5.204
11601WAT     H135045   4.265   4.195   5.182
11601WAT     H235046   4.150   4.100   5.250
11602WAT      O35047   7.955   8.575   8.402
11602WAT     H135048   8.035   8.612   8.450
11602WAT     H235049   7.911   8.505   8.457
11603WAT      O35050   6.645   0.672   3.777
11603WAT     H135051   6.664   0.746   3.712
11603WAT     H235052   6.731   0.628   3.804
11604WAT      O35053   8.205   4.527   4.496
11604WAT     H135054   8.213   4.552   4.399
11604WAT     H235055   8.291   4.486   4.527
11605WAT      O35056   1.895   7.250   3.265
11605WAT     H135057   1.949   7.201   3.334
11605WAT     H235058   1.908   7.348   3.276
11606WAT      O35059   1.283   3.171   4.153
11606WAT     H135060   1.220   3.137   4.222
11606WAT     H235061   1.359   3.107   4.142
11607WAT      O35062   0.639   0.055   2.708
11607WAT     H135063   0.675   0.057   2.615
11607WAT     H235064   0.697  -0.004   2.765
11608WAT      O35065   2.979   3.375   2.779
11608WAT     H135066   2.906   3.333   2.725
11608WAT     H235067   3.021   3.306   2.837
11609WAT      O35068   8.137   5.774   5.070
11609WAT     H135069   8.199   5.701   5.100
11609WAT     H235070   8.056   5.775   5.129
11610WAT      O35071   2.762   7.558   2.832
11610WAT     H135072   2.706   7.561   2.749
11610WAT     H235073   2.808   7.646   2.844
11611WAT      O35074   3.520   3.101   7.340
11611WAT     H135075   3.520   3.073   7.436
11611WAT     H235076   3.445   3.057   7.291
11612WAT      O35077   2.763   4.926   7.623
11612WAT     H135078   2.759   5.011   7.570
11612WAT     H235079   2.823   4.861   7.576
11613WAT      O35080   0.193   9.714   3.727
11613WAT     H135081   0.269   9.707   3.791
11613WAT     H235082   0.144   9.627   3.723
11614WAT      O35083   9.866   9.678   4.061
11614WAT     H135084   9.902   9.605   4.003
11614WAT     H235085   9.925   9.689   4.141
11615WAT      O35086   7.674   3.727   8.697
11615WAT     H135087   7.594   3.787   8.699
11615WAT     H235088   7.645   3.633   8.680
11616WAT      O35089   0.707   1.739   9.217
11616WAT     H135090   0.620   1.749   9.169
11616WAT     H235091   0.696   1.673   9.292
11617WAT      O35092   1.245   4.609   5.846
11617WAT     H135093   1.302   4.686   5.875
11617WAT     H235094   1.207   4.628   5.756
11618WAT      O35095   5.220   2.377   2.951
11618WAT     H135096   5.305   2.348   2.907
11618WAT     H235097   5.187   2.461   2.907
11619WAT      O35098   3.531   2.766   4.199
11619WAT     H135099   3.485   2.799   4.281
11619WAT     H235100   3.609   2.709   4.224
11620WAT      O35101   1.855   2.476   1.873
11620WAT     H135102   1.818   2.383   1.879
11620WAT     H235103   1.860   2.516   1.964
11621WAT      O35104   0.660   3.538   0.413
11621WAT     H135105   0.679   3.632   0.383
11621WAT     H235106   0.737   3.479   0.389
11622WAT      O35107   6.839   4.053   8.147
11622WAT     H135108   6.938   4.062   8.153
11622WAT     H235109   6.809   3.980   8.208
11623WAT      O35110   6.734   7.999   8.031
11623WAT     H135111   6.815   7.951   7.997
11623WAT     H235112   6.751   8.098   8.032
11624WAT      O35113   7.235   0.088   2.202
11624WAT     H135114   7.253   0.182   2.232
11624WAT     H235115   7.155   0.053   2.251
11625WAT      O35116   1.728   0.611   8.255
11625WAT     H135117   1.637   0.648   8.278
11625WAT     H235118   1.752   0.638   8.162
11626WAT      O35119   6.309   5.603   0.552
11626WAT     H135120   6.249   5.670   0.595
11626WAT     H235121   6.330   5.529   0.616
11627WAT      O35122   8.753   3.263   7.452
11627WAT     H135123   8.799   3.337   7.501
11627WAT     H235124   8.655   3.270   7.466
11628WAT      O35125   7.894   8.652   7.184
11628WAT     H135126   7.928   8.581   7.122
11628WAT     H235127   7.833   8.713   7.133
11629WAT      O35128   2.504   1.364   7.326
11629WAT     H135129   2.513   1.435   7.396
11629WAT     H235130   2.563   1.388   7.248
11630WAT      O35131   0.998   0.160   1.958
11630WAT     H135132   0.925   0.227   1.949
11630WAT     H235133   0.976   0.096   2.032
11631WAT      O35134   6.572   8.927   6.411
11631WAT     H135135   6.482   8.967   6.428
11631WAT     H235136   6.579   8.900   6.315
11632WAT      O35137   5.835   7.012   2.732
11632WAT     H135138   5.817   7.071   2.654
11632WAT     H235139   5.887   6.932   2.702
11633WAT      O35140   0.770   9.788   3.871
11633WAT     H135141   0.689   9.840   3.895
11633WAT     H235142   0.757   9.746   3.781
11634WAT      O35143   8.737   8.414   4.094
11634WAT     H135144   8.699   8.322   4.082
11634WAT     H235145   8.738   8.438   4.190
11635WAT      O35146   4.265   1.647   4.698
11635WAT     H135147   4.208   1.571   4.730
11635WAT     H235148   4.313   1.688   4.776
11636WAT      O35149   9.613   0.977   4.108
11636WAT     H135150   9.529   0.941   4.149
11636WAT     H235151   9.665   0.902   4.066
11637WAT      O35152   7.913   1.561   6.450
11637WAT     H135153   8.003   1.587   6.415
11637WAT     H235154   7.919   1.545   6.548
11638WAT      O35155   3.406   9.328   9.190
11638WAT     H135156   3.322   9.373   9.162
11638WAT     H235157   3.415   9.241   9.141
11639WAT      O35158   3.466   0.117   3.962
11639WAT     H135159   3.471   0.192   4.028
11639WAT     H235160   3.425   0.037   4.006
11640WAT      O35161   8.815   1.125   4.142
11640WAT     H135162   8.854   1.210   4.177
11640WAT     H235163   8.886   1.056   4.133
11641WAT      O35164   3.991   2.791   9.261
11641WAT     H135165   4.032   2.767   9.349
11641WAT     H235166   4.053   2.852   9.211
11642WAT      O35167   7.266   9.308   0.488
11642WAT     H135168   7.285   9.393   0.537
11642WAT     H235169   7.319   9.306   0.403
11643WAT      O35170   7.784   6.858   9.606
11643WAT     H135171   7.821   6.810   9.685
11643WAT     H235172   7.783   6.957   9.625
11644WAT      O35173   8.399   6.391   4.804
11644WAT     H135174   8.400   6.481   4.762
11644WAT     H235175   8.474   6.385   4.870
11645WAT      O35176   4.569   1.131   7.764
11645WAT     H135177   4.643   1.130   7.831
11645WAT     H235178   4.555   1.225   7.731
11646WAT      O35179   0.729   4.345   4.182
11646WAT     H135180   0.728   4.356   4.082
11646WAT     H235181   0.717   4.248   4.204
11647WAT      O35182   7.869   3.508   1.457
11647WAT     H135183   7.910   3.473   1.373
11647WAT     H235184   7.941   3.528   1.524
11648WAT      O35185   7.756   7.652   3.947
11648WAT     H135186   7.816   7.727   3.921
11648WAT     H235187   7.715   7.671   4.037
11649WAT      O35188   7.228   7.426   4.095
11649WAT     H135189   7.258   7.512   4.053
11649WAT     H235190   7.235   7.434   4.194
11650WAT      O35191   6.322   6.923   3.794
11650WAT     H135192   6.255   6.852   3.774
11650WAT     H235193   6.407   6.880   3.827
11651WAT      O35194   3.275   5.786   8.210
11651WAT     H135195   3.232   5.846   8.142
11651WAT     H235196   3.361   5.826   8.240
11652WAT      O35197   1.621   3.400   5.099
11652WAT     H135198   1.712   3.360   5.109
11652WAT     H235199   1.581   3.416   5.189
11653WAT      O35200   8.601   5.545   8.337
11653WAT     H135201   8.684   5.600   8.346
11653WAT     H235202   8.536   5.570   8.409
11654WAT      O35203   0.577   5.198   3.517
11654WAT     H135204   0.537   5.120   3.564
11654WAT     H235205   0.566   5.187   3.418
11655WAT      O35206   8.490   1.154   3.503
11655WAT     H135207   8.468   1.189   3.412
11655WAT     H235208   8.585   1.175   3.525
11656WAT      O35209   3.370   5.513   3.770
11656WAT     H135210   3.385   5.530   3.672
11656WAT     H235211   3.453   5.476   3.810
11657WAT      O35212   8.021   6.762   6.457
11657WAT     H135213   7.926   6.773   6.428
11657WAT     H235214   8.059   6.679   6.414
11658WAT      O35215   4.333   7.881   6.441
11658WAT     H135216   4.385   7.902   6.359
11658WAT     H235217   4.387   7.821   6.500
11659WAT      O35218   7.880   5.850   0.812
11659WAT     H135219   7.889   5.864   0.911
11659WAT     H235220   7.791   5.884   0.782
11660WAT      O35221   2.127   9.195   6.233
11660WAT     H135222   2.107   9.289   6.261
11660WAT     H235223   2.042   9.148   6.209
11661WAT      O35224   8.564   0.188   5.256
11661WAT     H135225   8.470   0.221   5.243
11661WAT     H235226   8.593   0.137   5.176
11662WAT      O35227   2.266   8.861   8.457
11662WAT     H135228   2.250   8.873   8.555
11662WAT     H235229   2.238   8.769   8.429
11663WAT      O35230   0.081   2.534   9.682
11663WAT     H135231   0.165   2.496   9.722
11663WAT     H235232   0.085   2.527   9.583
11664WAT      O35233   2.715   1.628   3.619
11664WAT     H135234   2.634   1.669   3.578
11664WAT     H235235   2.688   1.581   3.703
11665WAT      O35236   1.016   9.177   6.486
11665WAT     H135237   1.057   9.119   6.557
11665WAT     H235238   1.029   9.273   6.510
11666WAT      O35239   0.916   6.656   0.358
11666WAT     H135240   0.862   6.725   0.309
11666WAT     H235241   0.910   6.674   0.456
11667WAT      O35242   0.710   5.563   3.169
11667WAT     H135243   0.617   5.600   3.173
11667WAT     H235244   0.719   5.488   3.234
11668WAT      O35245   6.946   0.861   6.206
11668WAT     H135246   7.043   0.842   6.223
11668WAT     H235247   6.930   0.868   6.108
11669WAT      O35248   9.009   6.903   9.346
11669WAT     H135249   8.917   6.865   9.351
11669WAT     H235250   9.049   6.908   9.438
11670WAT      O35251   8.160   0.537   8.967
11670WAT     H135252   8.230   0.592   8.920
11670WAT     H235253   8.103   0.491   8.898
11671WAT      O35254   3.163   2.162   0.119
11671WAT     H135255   3.254   2.121   0.127
11671WAT     H235256   3.103   2.124   0.190
11672WAT      O35257   4.878   1.982   5.854
11672WAT     H135258   4.829   2.042   5.791
11672WAT     H235259   4.902   2.032   5.937
11673WAT      O35260   5.750   5.992   7.546
11673WAT     H135261   5.817   6.026   7.479
11673WAT     H235262   5.668   5.962   7.498
11674WAT      O35263   1.840   8.795   7.473
11674WAT     H135264   1.939   8.785   7.465
11674WAT     H235265   1.795   8.732   7.410
11675WAT      O35266   0.989   4.243   1.196
11675WAT     H135267   0.922   4.261   1.268
11675WAT     H235268   1.023   4.149   1.206
11676WAT      O35269   2.663   3.499   0.193
11676WAT     H135270   2.707   3.448   0.119
11676WAT     H235271   2.681   3.453   0.280
11677WAT      O35272   1.866   7.104   3.731
11677WAT     H135273   1.861   7.044   3.652
11677WAT     H235274   1.810   7.066   3.805
11678WAT      O35275   0.542   1.781   0.982
11678WAT     H135276   0.589   1.806   0.897
11678WAT     H235277   0.610   1.754   1.051
11679WAT      O35278   1.971   8.819   5.073
11679WAT     H135279   1.978   8.719   5.080
11679WAT     H235280   1.926   8.855   5.155
11680WAT      O35281   0.191   1.568   8.849
11680WAT     H135282   0.207   1.666   8.850
11680WAT     H235283   0.278   1.520   8.840
11681WAT      O35284   7.041   5.562   3.334
11681WAT     H135285   7.131   5.595   3.304
11681WAT     H235286   6.998   5.630   3.394
11682WAT      O35287   1.223   6.716   3.382
11682WAT     H135288   1.289   6.681   3.448
11682WAT     H235289   1.133   6.675   3.398
11683WAT      O35290   5.110   8.401   1.453
11683WAT     H135291   5.063   8.484   1.425
11683WAT     H235292   5.208   8.408   1.431
11684WAT      O35293   1.576   9.749   4.987
11684WAT     H135294   1.528   9.689   4.923
11684WAT     H235295   1.527   9.751   5.074
11685WAT      O35296   9.436   0.364   9.626
11685WAT     H135297   9.501   0.390   9.697
11685WAT     H235298   9.461   0.275   9.587
11686WAT      O35299   0.721   5.520   2.081
11686WAT     H135300   0.692   5.493   1.989
11686WAT     H235301   0.641   5.520   2.142
11687WAT      O35302   8.571   4.133   5.471
11687WAT     H135303   8.670   4.145   5.463
11687WAT     H235304   8.552   4.059   5.536
11688WAT      O35305   4.772   3.365   8.786
11688WAT     H135306   4.751   3.351   8.883
11688WAT     H235307   4.736   3.454   8.758
11689WAT      O35308   4.168   7.729   3.524
11689WAT     H135309   4.222   7.787   3.464
11689WAT     H235310   4.084   7.777   3.550
11690WAT      O35311   0.356   0.786   0.612
11690WAT     H135312   0.394   0.852   0.547
11690WAT     H235313   0.353   0.696   0.568
11691WAT      O35314   7.618   5.852   0.415
11691WAT     H135315   7.687   5.810   0.356
11691WAT     H235316   7.539   5.791   0.423
11692WAT      O35317   2.262   5.694   7.445
11692WAT     H135318   2.346   5.660   7.402
11692WAT     H235319   2.226   5.771   7.391
11693WAT      O35320   8.258   3.404   6.903
11693WAT     H135321   8.161   3.422   6.917
11693WAT     H235322   8.311   3.483   6.932
11694WAT      O35323   9.387   0.565   7.558
11694WAT     H135324   9.335   0.631   7.504
11694WAT     H235325   9.414   0.607   7.644
11695WAT      O35326   2.270   8.921   5.387
11695WAT     H135327   2.254   8.853   5.459
11695WAT     H235328   2.369   8.934   5.375
11696WAT      O35329   5.284   1.423   1.799
11696WAT     H135330   5.226   1.358   1.847
11696WAT     H235331   5.366   1.442   1.853
11697WAT      O35332   5.296   4.878   5.634
11697WAT     H135333   5.302   4.804   5.701
11697WAT     H235334   5.349   4.854   5.553
11698WAT      O35335   4.349   0.676   2.118
11698WAT     H135336   4.447   0.659   2.131
11698WAT     H235337   4.335   0.725   2.032
11699WAT      O35338   6.336   0.596   8.178
11699WAT     H135339   6.364   0.692   8.176
11699WAT     H235340   6.244   0.588   8.216
11700WAT      O35341   3.371   0.474   5.951
11700WAT     H135342   3.417   0.562   5.953
11700WAT     H235343   3.288   0.481   5.895
11701WAT      O35344   8.272   3.167   7.960
11701WAT     H135345   8.260   3.105   8.037
11701WAT     H235346   8.256   3.261   7.989
11702WAT      O35347   2.819   5.469   8.001
11702WAT     H135348   2.765   5.403   8.054
11702WAT     H235349   2.896   5.422   7.958
11703WAT      O35350   0.120   4.937   8.297
11703WAT     H135351   0.151   4.890   8.214
11703WAT     H235352   0.031   4.901   8.325
11704WAT      O35353   3.418   9.618   3.901
11704WAT     H135354   3.347   9.627   3.971
11704WAT     H235355   3.508   9.625   3.944
11705WAT      O35356   1.288   6.795   5.539
11705WAT     H135357   1.207   6.850   5.518
11705WAT     H235358   1.334   6.770   5.454
11706WAT      O35359   1.145   1.277   7.947
11706WAT     H135360   1.239   1.266   7.917
11706WAT     H235361   1.141   1.280   8.047
11707WAT      O35362   7.333   1.144   5.847
11707WAT     H135363   7.329   1.237   5.883
11707WAT     H235364   7.388   1.143   5.763
11708WAT      O35365   1.649   2.718   1.230
11708WAT     H135366   1.700   2.789   1.278
11708WAT     H235367   1.699   2.692   1.147
11709WAT      O35368   4.337   1.575   6.028
11709WAT     H135369   4.331   1.486   5.983
11709WAT     H235370   4.246   1.602   6.060
11710WAT      O35371   6.680   8.049   1.949
11710WAT     H135372   6.678   8.138   1.995
11710WAT     H235373   6.744   8.053   1.872
11711WAT      O35374   8.867   7.153   9.315
11711WAT     H135375   8.920   7.069   9.305
11711WAT     H235376   8.918   7.218   9.372
11712WAT      O35377   4.596   3.989   9.056
11712WAT     H135378   4.617   4.024   8.965
11712WAT     H235379   4.615   4.059   9.124
11713WAT      O35380   1.086   6.690   6.183
11713WAT     H135381   1.105   6.729   6.272
11713WAT     H235382   1.059   6.762   6.119
11714WAT      O35383   1.117   0.405   6.502
11714WAT     H135384   1.190   0.341   6.522
11714WAT     H235385   1.125   0.436   6.407
11715WAT      O35386   1.245   8.375   4.687
11715WAT     H135387   1.204   8.464   4.670
11715WAT     H235388   1.269   8.368   4.784
11716WAT      O35389   7.686   5.868   3.665
11716WAT     H135390   7.711   5.885   3.761
11716WAT     H235391   7.599   5.818   3.662
11717WAT      O35392   1.002   8.881   6.103
11717WAT     H135393   0.971   8.924   6.188
11717WAT     H235394   1.102   8.887   6.097
11718WAT      O35395   4.699   2.865   5.461
11718WAT     H135396   4.723   2.947   5.409
11718WAT     H235397   4.702   2.785   5.402
11719WAT      O35398   4.062   8.888   9.821
11719WAT     H135399   4.084   8.943   9.740
11719WAT     H235400   4.147   8.854   9.862
11720WAT      O35401   0.013   1.876   7.010
11720WAT     H135402  -0.010   1.784   6.981
11720WAT     H235403   0.037   1.875   7.108
11721WAT      O35404   3.670   1.638   3.714
11721WAT     H135405   3.626   1.633   3.804
11721WAT     H235406   3.712   1.550   3.693
11722WAT      O35407   5.977   6.120   4.892
11722WAT     H135408   5.963   6.177   4.974
11722WAT     H235409   6.071   6.086   4.891
11723WAT      O35410   8.426   5.788   6.061
11723WAT     H135411   8.524   5.786   6.081
11723WAT     H235412   8.375   5.793   6.148
11724WAT      O35413   2.016   9.152   8.640
11724WAT     H135414   1.975   9.212   8.571
11724WAT     H235415   2.114   9.169   8.644
11725WAT      O35416   6.102   5.985   8.847
11725WAT     H135417   6.195   5.969   8.880
11725WAT     H235418   6.088   5.934   8.762
11726WAT      O35419   9.102   8.315   1.167
11726WAT     H135420   9.054   8.386   1.218
11726WAT     H235421   9.171   8.357   1.107
11727WAT      O35422   1.570   5.545   2.618
11727WAT     H135423   1.534   5.637   2.602
11727WAT     H235424   1.557   5.521   2.714
11728WAT      O35425   2.365   6.870   8.091
11728WAT     H135426   2.371   6.965   8.121
11728WAT     H235427   2.324   6.815   8.164
11729WAT      O35428   7.133   4.009   6.255
11729WAT     H135429   7.206   4.074   6.232
11729WAT     H235430   7.151   3.921   6.210
11730WAT      O35431   2.146   9.637   1.334
11730WAT     H135432   2.175   9.710   1.272
11730WAT     H235433   2.177   9.658   1.427
11731WAT      O35434   6.876   8.924   1.941
11731WAT     H135435   6.957   8.972   1.909
11731WAT     H235436   6.903   8.838   1.984
11732WAT      O35437   3.865   9.617   9.054
11732WAT     H135438   3.927   9.571   9.118
11732WAT     H235439   3.813   9.688   9.102
11733WAT      O35440   3.163   2.408   2.795
11733WAT     H135441   3.109   2.492   2.798
11733WAT     H235442   3.115   2.335   2.843
11734WAT      O35443   7.840   3.672   2.996
11734WAT     H135444   7.745   3.687   3.025
11734WAT     H235445   7.873   3.753   2.948
11735WAT      O35446   3.959   4.591   0.837
11735WAT     H135447   4.054   4.608   0.814
11735WAT     H235448   3.900   4.624   0.763
11736WAT      O35449   0.318   8.333   5.726
11736WAT     H135450   0.301   8.388   5.644
11736WAT     H235451   0.241   8.270   5.741
11737WAT      O35452   9.379   3.010   5.115
11737WAT     H135453   9.477   3.001   5.099
11737WAT     H235454   9.335   3.042   5.031
11738WAT      O35455   5.817   8.671   5.340
11738WAT     H135456   5.872   8.594   5.308
11738WAT     H235457   5.741   8.686   5.277
11739WAT      O35458   7.306   4.902   4.059
11739WAT     H135459   7.331   4.958   3.981
11739WAT     H235460   7.250   4.956   4.123
11740WAT      O35461   4.208   5.572   9.195
11740WAT     H135462   4.202   5.474   9.214
11740WAT     H235463   4.117   5.613   9.204
11741WAT      O35464   4.806   2.601   3.431
11741WAT     H135465   4.901   2.573   3.417
11741WAT     H235466   4.748   2.520   3.441
11742WAT      O35467   5.758   2.648   1.610
11742WAT     H135468   5.789   2.707   1.536
11742WAT     H235469   5.802   2.675   1.695
11743WAT      O35470   2.834   0.387   0.306
11743WAT     H135471   2.928   0.366   0.279
11743WAT     H235472   2.830   0.478   0.346
11744WAT      O35473   4.223   2.724   4.485
11744WAT     H135474   4.264   2.747   4.397
11744WAT     H235475   4.292   2.684   4.545
11745WAT      O35476   3.586   0.327   8.611
11745WAT     H135477   3.619   0.275   8.690
11745WAT     H235478   3.652   0.400   8.590
11746WAT      O35479   9.335   6.407   0.836
11746WAT     H135480   9.396   6.429   0.913
11746WAT     H235481   9.317   6.309   0.836
11747WAT      O35482   1.949   2.125   5.943
11747WAT     H135483   1.869   2.134   5.884
11747WAT     H235484   1.928   2.065   6.020
11748WAT      O35485   0.164   5.341   7.180
11748WAT     H135486   0.092   5.367   7.244
11748WAT     H235487   0.169   5.409   7.106
11749WAT      O35488   7.462   7.424   3.543
11749WAT     H135489   7.501   7.479   3.617
11749WAT     H235490   7.485   7.466   3.455
11750WAT      O35491   4.189   0.333   0.072
11750WAT     H135492   4.157   0.327  -0.023
11750WAT     H235493   4.284   0.303   0.077
11751WAT      O35494   3.605   8.203   5.211
11751WAT     H135495   3.632   8.212   5.115
11751WAT     H235496   3.683   8.223   5.270
11752WAT      O35497   0.687   7.802   6.126
11752WAT     H135498   0.770   7.849   6.157
11752WAT     H235499   0.655   7.740   6.199
11753WAT      O35500   1.523   8.172   8.501
11753WAT     H135501   1.563   8.099   8.557
11753WAT     H235502   1.436   8.140   8.463
11754WAT      O35503   2.397   4.713   9.838
11754WAT     H135504   2.316   4.733   9.891
11754WAT     H235505   2.432   4.796   9.795
11755WAT      O35506   1.493   1.593   4.362
11755WAT     H135507   1.481   1.517   4.298
11755WAT     H235508   1.487   1.679   4.312
11756WAT      O35509   5.934   9.236   9.732
11756WAT     H135510   5.919   9.142   9.702
11756WAT     H235511   5.905   9.299   9.661
11757WAT      O35512   9.461   5.206   3.206
11757WAT     H135513   9.538   5.230   3.148
11757WAT     H235514   9.386   5.270   3.191
11758WAT      O35515   7.254   2.800   8.206
11758WAT     H135516   7.222   2.766   8.294
11758WAT     H235517   7.190   2.773   8.134
11759WAT      O35518   6.951   1.049   6.644
11759WAT     H135519   6.909   1.030   6.555
11759WAT     H235520   6.918   0.983   6.711
11760WAT      O35521   1.579   2.039   2.539
11760WAT     H135522   1.509   2.058   2.608
11760WAT     H235523   1.634   2.121   2.523
11761WAT      O35524   2.420   3.764   2.400
11761WAT     H135525   2.425   3.725   2.308
11761WAT     H235526   2.382   3.857   2.395
11762WAT      O35527   4.822   1.108   7.925
11762WAT     H135528   4.796   1.144   8.015
11762WAT     H235529   4.830   1.008   7.931
11763WAT      O35530   3.272   2.530   2.545
11763WAT     H135531   3.302   2.563   2.634
11763WAT     H235532   3.199   2.589   2.511
11764WAT      O35533   5.687   5.194   6.886
11764WAT     H135534   5.729   5.271   6.838
11764WAT     H235535   5.749   5.162   6.957
11765WAT      O35536   4.100   9.177   0.503
11765WAT     H135537   4.051   9.260   0.528
11765WAT     H235538   4.035   9.112   0.462
11766WAT      O35539   3.308   8.249   1.197
11766WAT     H135540   3.260   8.318   1.251
11766WAT     H235541   3.352   8.184   1.259
11767WAT      O35542   6.417   4.307   6.872
11767WAT     H135543   6.335   4.324   6.818
11767WAT     H235544   6.426   4.377   6.943
11768WAT      O35545   0.929   2.208   9.281
11768WAT     H135546   0.901   2.297   9.317
11768WAT     H235547   0.867   2.137   9.314
11769WAT      O35548   3.051   8.238   6.998
11769WAT     H135549   3.025   8.226   6.902
11769WAT     H235550   3.103   8.322   7.009
11770WAT      O35551   1.008   1.577   8.707
11770WAT     H135552   1.027   1.675   8.695
11770WAT     H235553   1.055   1.544   8.789
11771WAT      O35554   0.967   7.237   9.105
11771WAT     H135555   0.928   7.189   9.183
11771WAT     H235556   1.031   7.176   9.058
11772WAT      O35557   3.883   1.841   4.042
11772WAT     H135558   3.808   1.865   3.981
11772WAT     H235559   3.849   1.781   4.115
11773WAT      O35560   3.171   5.562   5.739
11773WAT     H135561   3.081   5.588   5.703
11773WAT     H235562   3.163   5.537   5.835
11774WAT      O35563   1.383   6.027   8.178
11774WAT     H135564   1.321   6.101   8.203
11774WAT     H235565   1.360   5.945   8.230
11775WAT      O35566   2.293   7.786   8.242
11775WAT     H135567   2.362   7.720   8.210
11775WAT     H235568   2.289   7.863   8.180
11776WAT      O35569   7.136   7.147   1.468
11776WAT     H135570   7.097   7.232   1.434
11776WAT     H235571   7.063   7.089   1.506
11777WAT      O35572   0.658   4.900   6.985
11777WAT     H135573   0.608   4.907   7.071
11777WAT     H235574   0.594   4.897   6.908
11778WAT      O35575   2.939   6.950   0.108
11778WAT     H135576   2.917   6.878   0.042
11778WAT     H235577   3.029   6.988   0.087
11779WAT      O35578   0.896   1.037   8.667
11779WAT     H135579   0.970   1.020   8.732
11779WAT     H235580   0.833   1.104   8.705
11780WAT      O35581   2.234   2.433   3.472
11780WAT     H135582   2.204   2.391   3.386
11780WAT     H235583   2.330   2.460   3.464
11781WAT      O35584   0.573   3.114   5.616
11781WAT     H135585   0.614   3.101   5.525
11781WAT     H235586   0.642   3.099   5.686
11782WAT      O35587   8.595   9.092   5.975
11782WAT     H135588   8.543   9.169   5.940
11782WAT     H235589   8.561   9.067   6.066
11783WAT      O35590   5.897   8.417   3.367
11783WAT     H135591   5.935   8.393   3.278
11783WAT     H235592   5.857   8.508   3.363
11784WAT      O35593   6.027   6.921   0.399
11784WAT     H135594   6.053   6.968   0.314
11784WAT     H235595   5.932   6.891   0.393
11785WAT      O35596   4.973   1.732   5.931
11785WAT     H135597   5.073   1.733   5.927
11785WAT     H235598   4.937   1.813   5.884
11786WAT      O35599   4.135   3.353   0.108
11786WAT     H135600   4.110   3.278   0.168
11786WAT     H235601   4.126   3.440   0.157
11787WAT      O35602   3.625   9.099   6.995
11787WAT     H135603   3.651   9.019   6.940
11787WAT     H235604   3.536   9.083   7.036
11788WAT      O35605   3.627   3.191   5.620
11788WAT     H135606   3.585   3.172   5.709
11788WAT     H235607   3.574   3.263   5.574
11789WAT      O35608   6.890   0.196   5.314
11789WAT     H135609   6.938   0.242   5.239
11789WAT     H235610   6.894   0.097   5.300
11790WAT      O35611   3.665   3.616   5.649
11790WAT     H135612   3.582   3.616   5.593
11790WAT     H235613   3.730   3.549   5.613
11791WAT      O35614   0.485   7.979   5.052
11791WAT     H135615   0.456   7.921   4.975
11791WAT     H235616   0.410   7.987   5.118
11792WAT      O35617   3.347   6.822   8.071
11792WAT     H135618   3.294   6.741   8.046
11792WAT     H235619   3.357   6.825   8.170
11793WAT      O35620   0.007   0.276   8.106
11793WAT     H135621  -0.063   0.284   8.177
11793WAT     H235622  -0.004   0.350   8.040
11794WAT      O35623   7.281   9.510   3.160
11794WAT     H135624   7.242   9.466   3.241
11794WAT     H235625   7.251   9.606   3.157
11795WAT      O35626   0.300   2.077   3.962
11795WAT     H135627   0.206   2.086   3.992
11795WAT     H235628   0.303   2.062   3.863
11796WAT      O35629   2.005   2.345   4.588
11796WAT     H135630   2.080   2.406   4.562
11796WAT     H235631   1.924   2.398   4.609
11797WAT      O35632   8.851   0.342   3.964
11797WAT     H135633   8.922   0.402   3.927
11797WAT     H235634   8.856   0.252   3.921
11798WAT      O35635   6.232   5.512   5.315
11798WAT     H135636   6.229   5.496   5.216
11798WAT     H235637   6.322   5.549   5.339
11799WAT      O35638   9.602   6.527   9.578
11799WAT     H135639   9.589   6.620   9.546
11799WAT     H235640   9.676   6.525   9.646
11800WAT      O35641   0.969   4.509   9.468
11800WAT     H135642   1.014   4.440   9.411
11800WAT     H235643   0.870   4.501   9.458
11801WAT      O35644   7.465   3.981   7.225
11801WAT     H135645   7.383   3.983   7.282
11801WAT     H235646   7.515   4.066   7.237
11802WAT      O35647   5.338   7.910   3.952
11802WAT     H135648   5.408   7.913   3.880
11802WAT     H235649   5.329   8.001   3.993
11803WAT      O35650   0.735   0.331   1.229
11803WAT     H135651   0.681   0.309   1.311
11803WAT     H235652   0.825   0.363   1.257
11804WAT      O35653   5.157   4.269   4.232
11804WAT     H135654   5.224   4.340   4.255
11804WAT     H235655   5.070   4.290   4.276
11805WAT      O35656   0.482   8.173   5.418
11805WAT     H135657   0.408   8.212   5.363
11805WAT     H235658   0.447   8.096   5.472
11806WAT      O35659   9.155   2.393   9.166
11806WAT     H135660   9.249   2.398   9.133
11806WAT     H235661   9.094   2.439   9.102
11807WAT      O35662   1.477   0.582   9.122
11807WAT     H135663   1.381   0.583   9.150
11807WAT     H235664   1.482   0.586   9.022
11808WAT      O35665   4.113   2.200   8.258
11808WAT     H135666   4.080   2.216   8.351
11808WAT     H235667   4.037   2.207   8.194
11809WAT      O35668   0.508   8.524   6.782
11809WAT     H135669   0.414   8.544   6.753
11809WAT     H235670   0.506   8.474   6.868
11810WAT      O35671   8.118   4.350   9.332
11810WAT     H135672   8.183   4.390   9.267
11810WAT     H235673   8.025   4.373   9.304
11811WAT      O35674   4.024   2.793   9.590
11811WAT     H135675   3.975   2.707   9.601
11811WAT     H235676   3.973   2.867   9.634
11812WAT      O35677   6.191   9.048   3.275
11812WAT     H135678   6.164   8.967   3.224
11812WAT     H235679   6.228   9.021   3.364
11813WAT      O35680   3.730   7.281   9.784
11813WAT     H135681   3.699   7.322   9.869
11813WAT     H235682   3.809   7.222   9.802
11814WAT      O35683   9.095   4.634   9.617
11814WAT     H135684   9.000   4.637   9.587
11814WAT     H235685   9.115   4.543   9.654
11815WAT      O35686   8.320   9.237   3.281
11815WAT     H135687   8.394   9.170   3.281
11815WAT     H235688   8.256   9.216   3.356
11816WAT      O35689   8.234   4.433   8.264
11816WAT     H135690   8.308   4.418   8.330
11816WAT     H235691   8.264   4.496   8.193
11817WAT      O35692   0.386   1.330   8.277
11817WAT     H135693   0.478   1.368   8.273
11817WAT     H235694   0.388   1.239   8.317
11818WAT      O35695   7.045   3.151   4.913
11818WAT     H135696   7.126   3.100   4.942
11818WAT     H235697   7.072   3.244   4.887
11819WAT      O35698   1.074   9.151   7.976
11819WAT     H135699   1.114   9.127   7.888
11819WAT     H235700   1.144   9.192   8.035
11820WAT      O35701   3.159   4.712   4.036
11820WAT     H135702   3.199   4.719   3.944
11820WAT     H235703   3.231   4.692   4.102
11821WAT      O35704   7.950   7.938   3.538
11821WAT     H135705   8.032   7.978   3.578
11821WAT     H235706   7.882   8.009   3.524
11822WAT      O35707   2.678   5.490   7.530
11822WAT     H135708   2.775   5.498   7.553
11822WAT     H235709   2.641   5.405   7.568
11823WAT      O35710   5.621   9.573   7.205
11823WAT     H135711   5.567   9.643   7.251
11823WAT     H235712   5.718   9.590   7.219
11824WAT      O35713   4.168   9.090   2.506
11824WAT     H135714   4.230   9.162   2.476
11824WAT     H235715   4.221   9.011   2.538
11825WAT      O35716   2.168   4.020   1.632
11825WAT     H135717   2.178   3.956   1.555
11825WAT     H235718   2.234   4.095   1.622
11826WAT      O35719   4.481   9.798   4.150
11826WAT     H135720   4.552   9.731   4.126
11826WAT     H235721   4.410   9.798   4.080
11827WAT      O35722   3.453   9.478   7.538
11827WAT     H135723   3.423   9.558   7.590
11827WAT     H235724   3.464   9.400   7.600
11828WAT      O35725   1.851   0.399   7.150
11828WAT     H135726   1.909   0.385   7.230
11828WAT     H235727   1.839   0.497   7.133
11829WAT      O35728   0.334   1.144   0.865
11829WAT     H135729   0.266   1.207   0.904
11829WAT     H235730   0.426   1.174   0.891
11830WAT      O35731   6.442   7.915   1.610
11830WAT     H135732   6.472   8.011   1.604
11830WAT     H235733   6.363   7.901   1.551
11831WAT      O35734   4.871   3.324   3.824
11831WAT     H135735   4.818   3.240   3.808
11831WAT     H235736   4.813   3.403   3.803
11832WAT      O35737   5.430   5.713   7.582
11832WAT     H135738   5.340   5.671   7.596
11832WAT     H235739   5.449   5.776   7.658
11833WAT      O35740   4.661   8.674   1.557
11833WAT     H135741   4.694   8.641   1.468
11833WAT     H235742   4.576   8.626   1.580
11834WAT      O35743   6.763   0.469   2.433
11834WAT     H135744   6.727   0.480   2.340
11834WAT     H235745   6.731   0.382   2.471
11835WAT      O35746   9.194   9.252   3.095
11835WAT     H135747   9.212   9.183   3.165
11835WAT     H235748   9.132   9.321   3.132
11836WAT      O35749   3.612   6.772   8.063
11836WAT     H135750   3.650   6.760   7.971
11836WAT     H235751   3.515   6.795   8.055
11837WAT      O35752   6.084   3.866   7.436
11837WAT     H135753   6.018   3.930   7.474
11837WAT     H235754   6.037   3.799   7.378
11838WAT      O35755   8.699   6.160   8.151
11838WAT     H135756   8.672   6.130   8.060
11838WAT     H235757   8.754   6.089   8.195
11839WAT      O35758   2.563   4.006   0.300
11839WAT     H135759   2.562   4.031   0.396
11839WAT     H235760   2.645   4.042   0.256
11840WAT      O35761   8.893   3.509   8.743
11840WAT     H135762   8.823   3.456   8.791
11840WAT     H235763   8.885   3.606   8.767
11841WAT      O35764   3.715   7.346   3.983
11841WAT     H135765   3.672   7.285   3.917
11841WAT     H235766   3.769   7.415   3.934
11842WAT      O35767   8.943   1.719   8.390
11842WAT     H135768   9.026   1.756   8.431
11842WAT     H235769   8.938   1.621   8.405
11843WAT      O35770   3.857   0.126   8.386
11843WAT     H135771   3.851   0.026   8.394
11843WAT     H235772   3.948   0.151   8.353
11844WAT      O35773   2.065   7.491   9.607
11844WAT     H135774   2.059   7.425   9.682
11844WAT     H235775   1.976   7.499   9.562
11845WAT      O35776   3.971   3.482   5.726
11845WAT     H135777   3.976   3.443   5.818
11845WAT     H235778   4.046   3.548   5.715
11846WAT      O35779   8.623   2.799   3.358
11846WAT     H135780   8.578   2.735   3.421
11846WAT     H235781   8.554   2.846   3.303
11847WAT      O35782   6.338   1.251   7.075
11847WAT     H135783   6.274   1.181   7.108
11847WAT     H235784   6.396   1.212   7.004
11848WAT      O35785   1.721   3.489   3.805
11848WAT     H135786   1.688   3.405   3.848
11848WAT     H235787   1.760   3.549   3.875
11849WAT      O35788   3.241   3.144   3.992
11849WAT     H135789   3.142   3.132   3.985
11849WAT     H235790   3.281   3.142   3.901
11850WAT      O35791   3.071   3.690   8.761
11850WAT     H135792   3.059   3.787   8.736
11850WAT     H235793   3.087   3.683   8.860
11851WAT      O35794   0.787   0.172   7.167
11851WAT     H135795   0.821   0.159   7.074
11851WAT     H235796   0.749   0.264   7.177
11852WAT      O35797   3.748   6.953   7.598
11852WAT     H135798   3.791   7.042   7.611
11852WAT     H235799   3.817   6.881   7.608
11853WAT      O35800   2.374   2.117   1.219
11853WAT     H135801   2.413   2.185   1.156
11853WAT     H235802   2.432   2.036   1.219
11854WAT      O35803   3.739   1.924   6.567
11854WAT     H135804   3.787   1.857   6.624
11854WAT     H235805   3.640   1.911   6.577
11855WAT      O35806   5.894   1.750   0.062
11855WAT     H135807   5.986   1.743   0.024
11855WAT     H235808   5.860   1.659   0.086
11856WAT      O35809   2.769   1.093   1.933
11856WAT     H135810   2.816   1.019   1.981
11856WAT     H235811   2.778   1.177   1.985
11857WAT      O35812   4.995   2.056   5.222
11857WAT     H135813   4.977   2.131   5.159
11857WAT     H235814   4.917   1.994   5.224
11858WAT      O35815   9.865   8.074   1.658
11858WAT     H135816   9.866   7.993   1.717
11858WAT     H235817   9.928   8.061   1.583
11859WAT      O35818   8.144   8.523   7.656
11859WAT     H135819   8.185   8.607   7.693
11859WAT     H235820   8.193   8.444   7.693
11860WAT      O35821   7.679   6.344   7.219
11860WAT     H135822   7.717   6.275   7.280
11860WAT     H235823   7.750   6.410   7.195
11861WAT      O35824   7.433   0.490   8.186
11861WAT     H135825   7.508   0.465   8.125
11861WAT     H235826   7.346   0.463   8.145
11862WAT      O35827   3.398   7.025   7.162
11862WAT     H135828   3.364   6.934   7.141
11862WAT     H235829   3.384   7.044   7.260
11863WAT      O35830   9.839   6.748   9.363
11863WAT     H135831   9.903   6.728   9.437
11863WAT     H235832   9.822   6.665   9.309
11864WAT      O35833   3.808   0.276   5.925
11864WAT     H135834   3.868   0.295   5.848
11864WAT     H235835   3.727   0.226   5.892
11865WAT      O35836   5.889   2.753   4.621
11865WAT     H135837   5.981   2.717   4.634
11865WAT     H235838   5.892   2.830   4.558
11866WAT      O35839   1.493   7.538   8.185
11866WAT     H135840   1.414   7.598   8.195
11866WAT     H235841   1.553   7.573   8.113
11867WAT      O35842   1.213   9.454   9.850
11867WAT     H135843   1.212   9.445   9.750
11867WAT     H235844   1.151   9.388   9.891
11868WAT      O35845   0.501   7.270   7.258
11868WAT     H135846   0.589   7.233   7.230
11868WAT     H235847   0.501   7.369   7.245
11869WAT      O35848   6.543   5.862   7.323
11869WAT     H135849   6.620   5.837   7.382
11869WAT     H235850   6.457   5.856   7.374
11870WAT      O35851   3.111   8.180   8.160
11870WAT     H135852   3.154   8.091   8.172
11870WAT     H235853   3.065   8.184   8.071
11871WAT      O35854   9.759   3.127   8.719
11871WAT     H135855   9.680   3.070   8.696
11871WAT     H235856   9.821   3.076   8.778
11872WAT      O35857   5.980   1.593   0.481
11872WAT     H135858   5.979   1.510   0.424
11872WAT     H235859   6.020   1.571   0.570
11873WAT      O35860   0.852   5.994   5.962
11873WAT     H135861   0.880   6.081   5.921
11873WAT     H235862   0.753   5.984   5.954
11874WAT      O35863   2.172   2.351   1.040
11874WAT     H135864   2.247   2.394   1.091
11874WAT     H235865   2.147   2.410   0.963
11875WAT      O35866   2.813   0.274   6.192
11875WAT     H135867   2.855   0.267   6.101
11875WAT     H235868   2.776   0.185   6.219
11876WAT      O35869   4.390   1.454   3.656
11876WAT     H135870   4.319   1.426   3.592
11876WAT     H235871   4.410   1.552   3.644
11877WAT      O35872   6.520   1.454   7.791
11877WAT     H135873   6.576   1.424   7.714
11877WAT     H235874   6.478   1.542   7.770
11878WAT      O35875   4.125   0.225   1.879
11878WAT     H135876   4.146   0.222   1.977
11878WAT     H235877   4.209   0.219   1.826
11879WAT      O35878   3.205   3.190   8.056
11879WAT     H135879   3.120   3.171   8.105
11879WAT     H235880   3.262   3.251   8.111
11880WAT      O35881   8.886   2.445   7.617
11880WAT     H135882   8.803   2.390   7.621
11880WAT     H235883   8.868   2.536   7.655
11881WAT      O35884   7.832   4.079   7.431
11881WAT     H135885   7.803   3.991   7.467
11881WAT     H235886   7.923   4.102   7.464
11882WAT      O35887   3.755   7.953   1.489
11882WAT     H135888   3.830   7.897   1.525
11882WAT     H235889   3.709   7.904   1.415
11883WAT      O35890   4.393   3.745   0.771
11883WAT     H135891   4.466   3.784   0.716
11883WAT     H235892   4.305   3.780   0.741
11884WAT      O35893   9.316   7.793   0.772
11884WAT     H135894   9.377   7.869   0.751
11884WAT     H235895   9.299   7.789   0.871
11885WAT      O35896   0.309   7.149   6.556
11885WAT     H135897   0.249   7.075   6.587
11885WAT     H235898   0.402   7.133   6.588
11886WAT      O35899   6.064   3.101   5.763
11886WAT     H135900   6.089   3.159   5.841
11886WAT     H235901   6.104   3.010   5.775
11887WAT      O35902   4.410   1.536   1.375
11887WAT     H135903   4.323   1.537   1.326
11887WAT     H235904   4.438   1.441   1.391
11888WAT      O35905   8.017   8.054   2.814
11888WAT     H135906   7.938   8.023   2.762
11888WAT     H235907   8.096   8.063   2.753
11889WAT      O35908   5.566   5.697   9.179
11889WAT     H135909   5.608   5.686   9.089
11889WAT     H235910   5.543   5.793   9.194
11890WAT      O35911   9.491   4.502   7.004
11890WAT     H135912   9.549   4.542   6.933
11890WAT     H235913   9.448   4.575   7.058
11891WAT      O35914   2.196   7.497   3.359
11891WAT     H135915   2.233   7.407   3.380
11891WAT     H235916   2.203   7.515   3.261
11892WAT      O35917   8.673   8.170   2.994
11892WAT     H135918   8.732   8.217   2.929
11892WAT     H235919   8.704   8.190   3.087
11893WAT      O35920   5.021   3.257   6.805
11893WAT     H135921   4.987   3.335   6.858
11893WAT     H235922   5.088   3.207   6.859
11894WAT      O35923   9.232   6.358   6.264
11894WAT     H135924   9.317   6.364   6.212
11894WAT     H235925   9.237   6.417   6.344
11895WAT      O35926   9.457   0.774   2.056
11895WAT     H135927   9.475   0.723   2.140
11895WAT     H235928   9.544   0.801   2.014
11896WAT      O35929   3.206   1.687   4.541
11896WAT     H135930   3.156   1.686   4.628
11896WAT     H235931   3.276   1.758   4.544
11897WAT      O35932   3.176   7.559   6.936
11897WAT     H135933   3.244   7.558   7.009
11897WAT     H235934   3.125   7.645   6.940
11898WAT      O35935   9.264   1.181   9.110
11898WAT     H135936   9.317   1.101   9.139
11898WAT     H235937   9.312   1.228   9.036
11899WAT      O35938   1.058   4.183   1.682
11899WAT     H135939   1.122   4.193   1.758
11899WAT     H235940   1.102   4.131   1.608
11900WAT      O35941   3.964   1.968   9.831
11900WAT     H135942   3.929   2.031   9.900
11900WAT     H235943   4.046   1.922   9.866
11901WAT      O35944   2.959   8.092   1.203
11901WAT     H135945   2.920   8.079   1.295
11901WAT     H235946   3.049   8.049   1.199
11902WAT      O35947   0.111   4.669   8.714
11902WAT     H135948   0.135   4.720   8.796
11902WAT     H235949   0.013   4.675   8.698
11903WAT      O35950   4.885   9.236   7.406
11903WAT     H135951   4.786   9.236   7.394
11903WAT     H235952   4.921   9.145   7.386
11904WAT      O35953   1.743   2.937   8.044
11904WAT     H135954   1.826   2.884   8.060
11904WAT     H235955   1.710   2.975   8.130
11905WAT      O35956   3.923   9.621   5.138
11905WAT     H135957   4.009   9.574   5.157
11905WAT     H235958   3.881   9.650   5.224
11906WAT      O35959   3.301   1.259   3.811
11906WAT     H135960   3.332   1.323   3.881
11906WAT     H235961   3.325   1.166   3.838
11907WAT      O35962   6.362   8.912   7.032
11907WAT     H135963   6.440   8.966   7.062
11907WAT     H235964   6.381   8.873   6.942
11908WAT      O35965   1.647   4.211   1.350
11908WAT     H135966   1.598   4.183   1.432
11908WAT     H235967   1.662   4.310   1.351
11909WAT      O35968   3.301   4.645   2.206
11909WAT     H135969   3.207   4.673   2.228
11909WAT     H235970   3.327   4.685   2.118
11910WAT      O35971   2.798   5.111   6.767
11910WAT     H135972   2.895   5.103   6.789
11910WAT     H235973   2.777   5.054   6.687
11911WAT      O35974   0.799   3.658   9.679
11911WAT     H135975   0.756   3.683   9.592
11911WAT     H235976   0.876   3.718   9.696
11912WAT      O35977   7.899   3.810   6.345
11912WAT     H135978   7.887   3.909   6.339
11912WAT     H235979   7.860   3.776   6.430
11913WAT      O35980   3.431   4.204   4.047
11913WAT     H135981   3.481   4.166   3.969
11913WAT     H235982   3.427   4.303   4.040
11914WAT      O35983   8.688   2.956   9.624
11914WAT     H135984   8.742   2.884   9.667
11914WAT     H235985   8.736   3.043   9.634
11915WAT      O35986   2.835   8.653   7.216
11915WAT     H135987   2.763   8.585   7.224
11915WAT     H235988   2.915   8.624   7.270
11916WAT      O35989   8.038   8.737   9.419
11916WAT     H135990   8.048   8.663   9.352
11916WAT     H235991   7.941   8.759   9.429
11917WAT      O35992   0.657   0.373   8.177
11917WAT     H135993   0.602   0.439   8.125
11917WAT     H235994   0.751   0.406   8.183
11918WAT      O35995   3.966   3.739   7.766
11918WAT     H135996   3.989   3.793   7.847
11918WAT     H235997   4.032   3.664   7.756
11919WAT      O35998   7.401   8.639   1.157
11919WAT     H135999   7.430   8.732   1.181
11919WAT     H236000   7.319   8.644   1.099
11920WAT      O36001   3.701   3.349   1.061
11920WAT     H136002   3.621   3.399   1.092
11920WAT     H236003   3.673   3.262   1.021
11921WAT      O36004   6.204   6.956   2.968
11921WAT     H136005   6.279   7.001   2.920
11921WAT     H236006   6.117   6.997   2.938
11922WAT      O36007   5.464   3.180   1.969
11922WAT     H136008   5.397   3.207   2.039
11922WAT     H236009   5.500   3.262   1.925
11923WAT      O36010   4.688   3.677   7.927
11923WAT     H136011   4.622   3.627   7.984
11923WAT     H236012   4.649   3.764   7.899
11924WAT      O36013   6.251   1.461   6.899
11924WAT     H136014   6.309   1.542   6.886
11924WAT     H236015   6.280   1.413   6.982
11925WAT      O36016   3.654   2.459   9.721
11925WAT     H136017   3.661   2.478   9.819
11925WAT     H236018   3.574   2.403   9.703
11926WAT      O36019   2.094   9.052   6.950
11926WAT     H136020   2.052   9.023   7.036
11926WAT     H236021   2.171   8.993   6.929
11927WAT      O36022   8.990   5.754   4.947
11927WAT     H136023   8.896   5.773   4.920
11927WAT     H236024   9.011   5.804   5.032
11928WAT      O36025   9.815   8.151   4.632
11928WAT     H136026   9.909   8.184   4.623
11928WAT     H236027   9.811   8.080   4.703
11929WAT      O36028   5.053   8.512   8.636
11929WAT     H136029   5.130   8.464   8.680
11929WAT     H236030   4.969   8.461   8.652
11930WAT      O36031   7.698   2.583   4.784
11930WAT     H136032   7.609   2.591   4.828
11930WAT     H236033   7.728   2.672   4.750
11931WAT      O36034   3.426   4.366   7.340
11931WAT     H136035   3.492   4.323   7.402
11931WAT     H236036   3.334   4.352   7.375
11932WAT      O36037   9.596   8.677   5.547
11932WAT     H136038   9.611   8.747   5.478
11932WAT     H236039   9.664   8.686   5.620
11933WAT      O36040   7.072   8.338   4.691
11933WAT     H136041   7.010   8.287   4.751
11933WAT     H236042   7.026   8.360   4.606
11934WAT      O36043   0.389   1.536   0.986
11934WAT     H136044   0.393   1.490   0.898
11934WAT     H236045   0.419   1.631   0.975
11935WAT      O36046   1.863   2.195   3.887
11935WAT     H136047   1.854   2.263   3.960
11935WAT     H236048   1.918   2.118   3.920
11936WAT      O36049   0.761   5.078   9.193
11936WAT     H136050   0.775   5.164   9.243
11936WAT     H236051   0.734   5.099   9.099
11937WAT      O36052   4.623   7.783   1.829
11937WAT     H136053   4.575   7.856   1.780
11937WAT     H236054   4.688   7.739   1.767
11938WAT      O36055   2.538   4.061   1.972
11938WAT     H136056   2.515   4.153   1.942
11938WAT     H236057   2.456   4.016   2.007
11939WAT      O36058   0.808   8.757   4.759
11939WAT     H136059   0.816   8.672   4.809
11939WAT     H236060   0.712   8.787   4.759
11940WAT      O36061   1.343   9.383   6.584
11940WAT     H136062   1.302   9.349   6.500
11940WAT     H236063   1.308   9.330   6.662
11941WAT      O36064   1.099   4.032   0.364
11941WAT     H136065   1.028   4.078   0.310
11941WAT     H236066   1.107   3.937   0.334
11942WAT      O36067   4.810   1.496   9.439
11942WAT     H136068   4.777   1.526   9.350
11942WAT     H236069   4.799   1.569   9.506
11943WAT      O36070   0.996   4.036   1.985
11943WAT     H136071   0.933   4.030   1.908
11943WAT     H236072   1.067   4.103   1.964
11944WAT      O36073   1.413   2.692   9.555
11944WAT     H136074   1.481   2.641   9.609
11944WAT     H236075   1.457   2.773   9.515
11945WAT      O36076   5.960   6.562   2.509
11945WAT     H136077   6.024   6.492   2.477
11945WAT     H236078   5.919   6.533   2.595
11946WAT      O36079   1.429   4.654   2.639
11946WAT     H136080   1.349   4.710   2.657
11946WAT     H236081   1.512   4.707   2.657
11947WAT      O36082   4.959   4.728   7.756
11947WAT     H136083   4.996   4.797   7.817
11947WAT     H236084   4.860   4.718   7.773
11948WAT      O36085   0.136   1.256   6.808
11948WAT     H136086   0.135   1.255   6.908
11948WAT     H236087   0.175   1.170   6.774
11949WAT      O36088   0.718   3.310   4.692
11949WAT     H136089   0.713   3.408   4.677
11949WAT     H236090   0.665   3.262   4.622
11950WAT      O36091   6.730   0.518   6.587
11950WAT     H136092   6.829   0.510   6.574
11950WAT     H236093   6.683   0.459   6.521
11951WAT      O36094   8.431   5.296   7.875
11951WAT     H136095   8.511   5.352   7.853
11951WAT     H236096   8.368   5.295   7.796
11952WAT      O36097   8.973   0.360   5.833
11952WAT     H136098   9.050   0.366   5.896
11952WAT     H236099   8.966   0.446   5.782
11953WAT      O36100   9.530   1.876   4.424
11953WAT     H136101   9.611   1.935   4.424
11953WAT     H236102   9.528   1.822   4.508
11954WAT      O36103   6.129   9.367   6.517
11954WAT     H136104   6.160   9.302   6.587
11954WAT     H236105   6.030   9.359   6.506
11955WAT      O36106   0.936   0.037   1.301
11955WAT     H136107   0.953  -0.060   1.316
11955WAT     H236108   0.884   0.075   1.378
11956WAT      O36109   9.500   5.867   8.051
11956WAT     H136110   9.492   5.872   8.150
11956WAT     H236111   9.589   5.905   8.023
11957WAT      O36112   9.288   2.421   7.424
11957WAT     H136113   9.232   2.402   7.344
11957WAT     H236114   9.381   2.387   7.409
11958WAT      O36115   8.082   8.235   8.753
11958WAT     H136116   8.150   8.162   8.747
11958WAT     H236117   8.127   8.321   8.775
11959WAT      O36118   5.461   7.627   8.208
11959WAT     H136119   5.557   7.652   8.208
11959WAT     H236120   5.426   7.630   8.114
11960WAT      O36121   4.708   0.573   3.663
11960WAT     H136122   4.808   0.564   3.670
11960WAT     H236123   4.669   0.485   3.636
11961WAT      O36124   0.375   6.925   4.963
11961WAT     H136125   0.432   6.990   5.012
11961WAT     H236126   0.396   6.832   4.994
11962WAT      O36127   7.450   3.651   4.300
11962WAT     H136128   7.452   3.737   4.248
11962WAT     H236129   7.407   3.579   4.245
11963WAT      O36130   3.277   9.079   0.191
11963WAT     H136131   3.301   9.159   0.246
11963WAT     H236132   3.178   9.069   0.189
11964WAT      O36133   8.980   3.627   2.099
11964WAT     H136134   9.002   3.715   2.141
11964WAT     H236135   9.009   3.553   2.159
11965WAT      O36136   9.347   3.339   4.074
11965WAT     H136137   9.247   3.337   4.066
11965WAT     H236138   9.384   3.413   4.019
11966WAT      O36139   2.592   4.135   0.538
11966WAT     H136140   2.569   4.233   0.541
11966WAT     H236141   2.576   4.095   0.628
11967WAT      O36142   5.396   3.470   5.636
11967WAT     H136143   5.414   3.537   5.564
11967WAT     H236144   5.410   3.512   5.725
11968WAT      O36145   9.853   7.077   8.830
11968WAT     H136146   9.940   7.031   8.812
11968WAT     H236147   9.784   7.008   8.855
11969WAT      O36148   6.812   7.818   9.023
11969WAT     H136149   6.748   7.874   8.970
11969WAT     H236150   6.898   7.808   8.972
11970WAT      O36151   7.914   9.462   5.151
11970WAT     H136152   8.012   9.441   5.156
11970WAT     H236153   7.901   9.560   5.162
11971WAT      O36154   8.973   5.889   1.156
11971WAT     H136155   8.968   5.811   1.093
11971WAT     H236156   9.011   5.858   1.243
11972WAT      O36157   1.188   7.422   3.354
11972WAT     H136158   1.117   7.388   3.292
11972WAT     H236159   1.272   7.439   3.302
11973WAT      O36160   7.387   4.975   5.682
11973WAT     H136161   7.462   4.985   5.616
11973WAT     H236162   7.326   4.903   5.652
11974WAT      O36163   8.825   4.859   2.955
11974WAT     H136164   8.738   4.862   2.907
11974WAT     H236165   8.812   4.817   3.045
11975WAT      O36166   8.509   3.304   7.541
11975WAT     H136167   8.469   3.213   7.534
11975WAT     H236168   8.502   3.337   7.635
11976WAT      O36169   9.229   3.149   4.472
11976WAT     H136170   9.171   3.112   4.399
11976WAT     H236171   9.248   3.078   4.540
11977WAT      O36172   9.044   4.835   5.111
11977WAT     H136173   9.034   4.847   5.012
11977WAT     H236174   9.011   4.745   5.138
11978WAT      O36175   6.953   7.728   2.994
11978WAT     H136176   6.973   7.644   3.044
11978WAT     H236177   7.038   7.776   2.973
11979WAT      O36178   3.344   6.541   0.706
11979WAT     H136179   3.245   6.553   0.694
11979WAT     H236180   3.361   6.467   0.771
11980WAT      O36181   6.017   5.342   6.586
11980WAT     H136182   6.025   5.260   6.642
11980WAT     H236183   5.987   5.318   6.494
11981WAT      O36184   5.347   5.161   4.221
11981WAT     H136185   5.283   5.185   4.293
11981WAT     H236186   5.398   5.242   4.193
11982WAT      O36187   0.742   9.485   8.369
11982WAT     H136188   0.657   9.505   8.319
11982WAT     H236189   0.786   9.405   8.329
11983WAT      O36190   9.003   1.885   6.898
11983WAT     H136191   8.929   1.922   6.954
11983WAT     H236192   8.989   1.787   6.885
11984WAT      O36193   9.648   5.109   2.899
11984WAT     H136194   9.657   5.123   2.800
11984WAT     H236195   9.573   5.046   2.917
11985WAT      O36196   7.986   5.831   3.379
11985WAT     H136197   8.079   5.804   3.352
11985WAT     H236198   7.983   5.930   3.392
11986WAT      O36199   9.373   9.253   6.707
11986WAT     H136200   9.307   9.294   6.771
11986WAT     H236201   9.330   9.177   6.659
11987WAT      O36202   1.111   6.606   1.967
11987WAT     H136203   1.133   6.684   2.026
11987WAT     H236204   1.048   6.636   1.895
11988WAT      O36205   8.110   1.589   4.844
11988WAT     H136206   8.066   1.647   4.912
11988WAT     H236207   8.175   1.644   4.791
11989WAT      O36208   5.249   2.020   0.940
11989WAT     H136209   5.335   2.041   0.893
11989WAT     H236210   5.229   1.923   0.930
11990WAT      O36211   2.162   1.933   8.327
11990WAT     H136212   2.194   2.028   8.323
11990WAT     H236213   2.072   1.930   8.371
11991WAT      O36214   9.456   7.700   7.068
11991WAT     H136215   9.427   7.744   7.153
11991WAT     H236216   9.555   7.709   7.057
11992WAT      O36217   4.047   2.452   0.638
11992WAT     H136218   4.081   2.544   0.658
11992WAT     H236219   4.001   2.453   0.549
11993WAT      O36220   4.420   2.567   4.672
11993WAT     H136221   4.470   2.553   4.586
11993WAT     H236222   4.482   2.607   4.740
11994WAT      O36223   3.132   3.044   1.666
11994WAT     H136224   3.080   3.024   1.750
11994WAT     H236225   3.179   2.961   1.636
11995WAT      O36226   2.739   8.461   5.207
11995WAT     H136227   2.818   8.400   5.213
11995WAT     H236228   2.663   8.424   5.260
11996WAT      O36229   4.189   0.723   6.236
11996WAT     H136230   4.272   0.717   6.180
11996WAT     H236231   4.120   0.660   6.200
11997WAT      O36232   7.078   3.537   7.142
11997WAT     H136233   7.086   3.575   7.049
11997WAT     H236234   7.100   3.440   7.140
11998WAT      O36235   6.130   8.402   7.590
11998WAT     H136236   6.213   8.347   7.606
11998WAT     H236237   6.154   8.483   7.536
11999WAT      O36238   5.880   8.495   9.129
11999WAT     H136239   5.935   8.565   9.174
11999WAT     H236240   5.936   8.446   9.062
12000WAT      O36241   2.111   0.091   3.764
12000WAT     H136242   2.103   0.159   3.691
12000WAT     H236243   2.118   0.137   3.852
12001WAT      O36244   0.164   0.007   8.302
12001WAT     H136245   0.133   0.077   8.365
12001WAT     H236246   0.108   0.009   8.219
12002WAT      O36247   1.121   4.681   5.052
12002WAT     H136248   1.058   4.632   4.992
12002WAT     H236249   1.199   4.713   4.999
12003WAT      O36250   4.000   5.048   4.255
12003WAT     H136251   3.991   5.120   4.324
12003WAT     H236252   3.972   4.960   4.295
12004WAT      O36253   4.388   5.331   9.821
12004WAT     H136254   4.453   5.296   9.888
12004WAT     H236255   4.294   5.310   9.850
12005WAT      O36256   7.843   7.612   2.799
12005WAT     H136257   7.923   7.560   2.830
12005WAT     H236258   7.844   7.703   2.841
12006WAT      O36259   7.827   5.248   8.163
12006WAT     H136260   7.818   5.334   8.113
12006WAT     H236261   7.896   5.191   8.119
12007WAT      O36262   2.343   1.554   4.905
12007WAT     H136263   2.391   1.631   4.863
12007WAT     H236264   2.326   1.483   4.836
12008WAT      O36265   8.517   4.668   4.482
12008WAT     H136266   8.594   4.694   4.540
12008WAT     H236267   8.467   4.751   4.454
12009WAT      O36268   9.708   7.886   4.852
12009WAT     H136269   9.625   7.918   4.896
12009WAT     H236270   9.739   7.802   4.896
12010WAT      O36271   0.403   3.093   2.570
12010WAT     H136272   0.402   3.064   2.666
12010WAT     H236273   0.496   3.087   2.534
12011WAT      O36274   4.285   3.176   4.163
12011WAT     H136275   4.204   3.178   4.222
12011WAT     H236276   4.256   3.158   4.069
12012WAT      O36277   1.160   0.522   7.243
12012WAT     H136278   1.193   0.455   7.310
12012WAT     H236279   1.235   0.579   7.211
12013WAT      O36280   3.343   8.029   4.110
12013WAT     H136281   3.405   8.100   4.076
12013WAT     H236282   3.362   8.013   4.207
12014WAT      O36283   9.626   4.866   9.096
12014WAT     H136284   9.610   4.936   9.165
12014WAT     H236285   9.697   4.803   9.128
12015WAT      O36286   3.619   2.908   3.987
12015WAT     H136287   3.605   2.856   4.071
12015WAT     H236288   3.717   2.917   3.969
12016WAT      O36289   2.796   2.094   0.596
12016WAT     H136290   2.764   2.189   0.593
12016WAT     H236291   2.774   2.049   0.509
12017WAT      O36292   5.968   9.618   0.178
12017WAT     H136293   5.872   9.630   0.152
12017WAT     H236294   6.015   9.567   0.106
12018WAT      O36295   8.311   2.655   8.349
12018WAT     H136296   8.217   2.659   8.316
12018WAT     H236297   8.313   2.608   8.437
12019WAT      O36298   6.956   9.569   2.370
12019WAT     H136299   6.976   9.528   2.459
12019WAT     H236300   6.877   9.523   2.330
12020WAT      O36301   4.163   4.899   8.016
12020WAT     H136302   4.111   4.925   7.935
12020WAT     H236303   4.111   4.833   8.070
12021WAT      O36304   3.950   6.773   0.183
12021WAT     H136305   4.025   6.734   0.236
12021WAT     H236306   3.885   6.817   0.245
12022WAT      O36307   8.011   7.189   6.928
12022WAT     H136308   8.061   7.162   7.011
12022WAT     H236309   7.952   7.114   6.899
12023WAT      O36310   4.437   1.982   3.669
12023WAT     H136311   4.493   2.023   3.741
12023WAT     H236312   4.412   2.052   3.602
12024WAT      O36313   9.366   0.312   2.781
12024WAT     H136314   9.379   0.351   2.689
12024WAT     H236315   9.272   0.331   2.811
12025WAT      O36316   3.646   6.936   1.706
12025WAT     H136317   3.606   6.935   1.614
12025WAT     H236318   3.629   7.025   1.748
12026WAT      O36319   1.595   3.935   8.746
12026WAT     H136320   1.659   3.862   8.720
12026WAT     H236321   1.615   4.017   8.693
12027WAT      O36322   9.236   4.619   0.879
12027WAT     H136323   9.260   4.590   0.972
12027WAT     H236324   9.233   4.539   0.819
12028WAT      O36325   9.141   0.618   7.135
12028WAT     H136326   9.085   0.557   7.079
12028WAT     H236327   9.085   0.658   7.208
12029WAT      O36328   7.392   2.309   7.396
12029WAT     H136329   7.396   2.285   7.299
12029WAT     H236330   7.371   2.406   7.406
12030WAT      O36331   6.638   7.289   8.633
12030WAT     H136332   6.704   7.365   8.626
12030WAT     H236333   6.588   7.296   8.719
12031WAT      O36334   6.842   5.539   4.426
12031WAT     H136335   6.924   5.572   4.472
12031WAT     H236336   6.765   5.599   4.447
12032WAT      O36337   6.631   8.903   8.686
12032WAT     H136338   6.619   8.859   8.775
12032WAT     H236339   6.674   8.992   8.697
12033WAT      O36340   0.653   6.273   7.984
12033WAT     H136341   0.717   6.274   8.061
12033WAT     H236342   0.705   6.280   7.898
12034WAT      O36343   4.261   9.810   8.773
12034WAT     H136344   4.357   9.802   8.746
12034WAT     H236345   4.241   9.742   8.844
12035WAT      O36346   2.472   7.261   9.569
12035WAT     H136347   2.496   7.337   9.630
12035WAT     H236348   2.402   7.292   9.504
12036WAT      O36349   7.573   8.889   9.624
12036WAT     H136350   7.619   8.835   9.694
12036WAT     H236351   7.613   8.981   9.621
12037WAT      O36352   9.647   9.213   2.826
12037WAT     H136353   9.564   9.179   2.870
12037WAT     H236354   9.657   9.171   2.736
12038WAT      O36355   9.806   1.512   5.212
12038WAT     H136356   9.798   1.529   5.114
12038WAT     H236357   9.717   1.525   5.256
12039WAT      O36358   9.212   6.267   4.391
12039WAT     H136359   9.294   6.270   4.333
12039WAT     H236360   9.173   6.175   4.388
12040WAT      O36361   9.735   8.077   3.436
12040WAT     H136362   9.830   8.058   3.413
12040WAT     H236363   9.731   8.155   3.500
12041WAT      O36364   1.716   2.133   8.040
12041WAT     H136365   1.675   2.178   8.120
12041WAT     H236366   1.806   2.097   8.066
12042WAT      O36367   5.094   4.637   2.518
12042WAT     H136368   5.149   4.688   2.452
12042WAT     H236369   5.002   4.677   2.521
12043WAT      O36370   3.168   3.822   1.629
12043WAT     H136371   3.231   3.899   1.637
12043WAT     H236372   3.218   3.739   1.605
12044WAT      O36373   6.434   3.416   6.810
12044WAT     H136374   6.456   3.324   6.842
12044WAT     H236375   6.479   3.483   6.869
12045WAT      O36376   0.070   6.355   9.320
12045WAT     H136377  -0.002   6.425   9.325
12045WAT     H236378   0.138   6.372   9.392
12046WAT      O36379   8.205   0.393   8.452
12046WAT     H136380   8.109   0.376   8.429
12046WAT     H236381   8.264   0.337   8.394
12047WAT      O36382   6.027   6.780   8.411
12047WAT     H136383   5.985   6.856   8.362
12047WAT     H236384   6.096   6.736   8.354
12048WAT      O36385   2.922   2.822   8.120
12048WAT     H136386   2.910   2.762   8.041
12048WAT     H236387   2.998   2.789   8.176
12049WAT      O36388   3.087   6.009   7.583
12049WAT     H136389   2.992   6.039   7.588
12049WAT     H236390   3.113   5.998   7.487
12050WAT      O36391   6.964   2.381   2.360
12050WAT     H136392   7.049   2.415   2.399
12050WAT     H236393   6.980   2.295   2.311
12051WAT      O36394   3.338   6.985   2.540
12051WAT     H136395   3.316   7.076   2.505
12051WAT     H236396   3.296   6.915   2.482
12052WAT      O36397   9.746   0.940   6.948
12052WAT     H136398   9.744   0.863   6.884
12052WAT     H236399   9.793   0.913   7.032
12053WAT      O36400   7.071   1.997   3.037
12053WAT     H136401   7.159   2.010   3.083
12053WAT     H236402   7.025   2.085   3.027
12054WAT      O36403   3.107   2.569   7.319
12054WAT     H136404   3.097   2.510   7.239
12054WAT     H236405   3.058   2.529   7.397
12055WAT      O36406   6.422   0.393   1.912
12055WAT     H136407   6.471   0.360   1.993
12055WAT     H236408   6.432   0.326   1.838
12056WAT      O36409   6.488   7.273   0.359
12056WAT     H136410   6.551   7.258   0.283
12056WAT     H236411   6.398   7.233   0.337
12057WAT      O36412   0.550   1.669   0.222
12057WAT     H136413   0.535   1.767   0.217
12057WAT     H236414   0.527   1.627   0.134
12058WAT      O36415   7.795   2.913   6.681
12058WAT     H136416   7.847   2.924   6.766
12058WAT     H236417   7.709   2.963   6.689
12059WAT      O36418   9.244   5.411   4.676
12059WAT     H136419   9.268   5.461   4.759
12059WAT     H236420   9.292   5.324   4.674
12060WAT      O36421   6.622   3.923   4.791
12060WAT     H136422   6.575   3.839   4.765
12060WAT     H236423   6.680   3.954   4.716
12061WAT      O36424   1.962   7.232   8.094
12061WAT     H136425   2.016   7.302   8.141
12061WAT     H236426   2.021   7.179   8.034
12062WAT      O36427   2.920   8.667   2.084
12062WAT     H136428   2.895   8.738   2.018
12062WAT     H236429   2.872   8.582   2.062
12063WAT      O36430   9.099   1.840   5.379
12063WAT     H136431   9.089   1.939   5.368
12063WAT     H236432   9.196   1.817   5.382
12064WAT      O36433   9.598   8.391   7.536
12064WAT     H136434   9.650   8.336   7.601
12064WAT     H236435   9.656   8.413   7.457
12065WAT      O36436   8.975   8.756   5.027
12065WAT     H136437   8.901   8.822   5.016
12065WAT     H236438   9.001   8.720   4.938
12066WAT      O36439   9.506   8.096   6.388
12066WAT     H136440   9.522   8.086   6.486
12066WAT     H236441   9.418   8.055   6.364
12067WAT      O36442   3.247   1.654   3.824
12067WAT     H136443   3.149   1.672   3.834
12067WAT     H236444   3.269   1.643   3.727
12068WAT      O36445   3.960   2.522   8.952
12068WAT     H136446   3.937   2.500   9.047
12068WAT     H236447   3.926   2.613   8.931
12069WAT      O36448   8.346   8.567   3.912
12069WAT     H136449   8.284   8.489   3.909
12069WAT     H236450   8.301   8.647   3.871
12070WAT      O36451   1.306   0.074   8.284
12070WAT     H136452   1.277   0.141   8.352
12070WAT     H236453   1.225   0.029   8.246
12071WAT      O36454   1.436   1.799   2.529
12071WAT     H136455   1.508   1.869   2.520
12071WAT     H236456   1.439   1.761   2.621
12072WAT      O36457   6.755   7.471   1.921
12072WAT     H136458   6.751   7.398   1.853
12072WAT     H236459   6.850   7.483   1.951
12073WAT      O36460   2.912   8.273   1.000
12073WAT     H136461   2.991   8.298   0.944
12073WAT     H236462   2.932   8.190   1.052
12074WAT      O36463   0.059   1.023   9.730
12074WAT     H136464   0.109   1.101   9.767
12074WAT     H236465   0.056   1.030   9.630
12075WAT      O36466   3.815   4.392   8.519
12075WAT     H136467   3.872   4.390   8.437
12075WAT     H236468   3.830   4.479   8.567
12076WAT      O36469   4.243   7.715   7.690
12076WAT     H136470   4.325   7.658   7.698
12076WAT     H236471   4.230   7.767   7.774
12077WAT      O36472   9.051   7.595   8.494
12077WAT     H136473   9.029   7.693   8.487
12077WAT     H236474   9.038   7.565   8.588
12078WAT      O36475   9.177   5.738   1.605
12078WAT     H136476   9.255   5.790   1.570
12078WAT     H236477   9.130   5.793   1.675
12079WAT      O36478   2.956   5.159   3.504
12079WAT     H136479   2.874   5.214   3.487
12079WAT     H236480   2.932   5.081   3.561
12080WAT      O36481   0.079   1.944   6.739
12080WAT     H136482   0.070   1.871   6.807
12080WAT     H236483   0.135   2.018   6.777
12081WAT      O36484   9.701   1.047   2.498
12081WAT     H136485   9.762   1.075   2.572
12081WAT     H236486   9.750   0.986   2.436
12082WAT      O36487   1.577   1.371   0.423
12082WAT     H136488   1.515   1.390   0.348
12082WAT     H236489   1.664   1.419   0.408
12083WAT      O36490   5.848   9.307   1.220
12083WAT     H136491   5.912   9.372   1.262
12083WAT     H236492   5.881   9.214   1.236
12084WAT      O36493   0.932   6.023   8.062
12084WAT     H136494   0.977   5.986   8.143
12084WAT     H236495   0.856   6.083   8.090
12085WAT      O36496   9.513   5.247   5.426
12085WAT     H136497   9.557   5.161   5.402
12085WAT     H236498   9.583   5.316   5.446
12086WAT      O36499   9.844   1.331   5.641
12086WAT     H136500   9.752   1.370   5.644
12086WAT     H236501   9.838   1.236   5.610
12087WAT      O36502   6.545   2.457   4.669
12087WAT     H136503   6.631   2.504   4.689
12087WAT     H236504   6.533   2.450   4.570
12088WAT      O36505   7.444   7.108   6.357
12088WAT     H136506   7.497   7.169   6.297
12088WAT     H236507   7.358   7.152   6.381
12089WAT      O36508   3.574   9.049   8.069
12089WAT     H136509   3.668   9.018   8.087
12089WAT     H236510   3.570   9.148   8.077
12090WAT      O36511   1.579   0.263   3.652
12090WAT     H136512   1.558   0.284   3.747
12090WAT     H236513   1.538   0.175   3.628
12091WAT      O36514   5.127   3.598   4.108
12091WAT     H136515   5.107   3.655   4.028
12091WAT     H236516   5.076   3.512   4.101
12092WAT      O36517   2.945   2.917   6.606
12092WAT     H136518   2.886   2.917   6.525
12092WAT     H236519   2.905   2.859   6.676
12093WAT      O36520   9.762   3.047   1.300
12093WAT     H136521   9.742   2.970   1.360
12093WAT     H236522   9.813   3.015   1.220
12094WAT      O36523   2.479   9.117   7.829
12094WAT     H136524   2.492   9.136   7.926
12094WAT     H236525   2.445   9.200   7.783
12095WAT      O36526   1.842   6.516   7.892
12095WAT     H136527   1.871   6.491   7.984
12095WAT     H236528   1.840   6.616   7.883
12096WAT      O36529   8.806   4.185   4.747
12096WAT     H136530   8.767   4.273   4.721
12096WAT     H236531   8.839   4.189   4.842
12097WAT      O36532   7.439   8.700   0.082
12097WAT     H136533   7.370   8.763   0.118
12097WAT     H236534   7.403   8.653   0.001
12098WAT      O36535   2.626   3.082   3.845
12098WAT     H136536   2.606   3.101   3.749
12098WAT     H236537   2.719   3.110   3.866
12099WAT      O36538   6.569   3.315   3.652
12099WAT     H136539   6.635   3.260   3.602
12099WAT     H236540   6.617   3.377   3.715
12100WAT      O36541   0.030   6.434   0.837
12100WAT     H136542  -0.054   6.386   0.862
12100WAT     H236543   0.009   6.503   0.767
12101WAT      O36544   1.415   4.652   6.640
12101WAT     H136545   1.406   4.607   6.729
12101WAT     H236546   1.374   4.595   6.569
12102WAT      O36547   3.680   5.658   2.169
12102WAT     H136548   3.741   5.716   2.223
12102WAT     H236549   3.611   5.714   2.123
12103WAT      O36550   6.814   9.798   1.643
12103WAT     H136551   6.823   9.846   1.730
12103WAT     H236552   6.900   9.803   1.593
12104WAT      O36553   8.132   4.251   8.097
12104WAT     H136554   8.035   4.269   8.081
12104WAT     H236555   8.166   4.312   8.169
12105WAT      O36556   0.459   8.681   9.344
12105WAT     H136557   0.382   8.624   9.313
12105WAT     H236558   0.424   8.764   9.387
12106WAT      O36559   8.671   9.277   8.029
12106WAT     H136560   8.600   9.347   8.021
12106WAT     H236561   8.735   9.303   8.102
12107WAT      O36562   0.648   9.717   6.698
12107WAT     H136563   0.556   9.739   6.666
12107WAT     H236564   0.646   9.634   6.752
12108WAT      O36565   0.142   6.027   6.476
12108WAT     H136566   0.054   6.068   6.454
12108WAT     H236567   0.216   6.081   6.437
12109WAT      O36568   3.841   5.391   9.384
12109WAT     H136569   3.828   5.406   9.482
12109WAT     H236570   3.762   5.425   9.334
12110WAT      O36571   8.173   2.348   9.627
12110WAT     H136572   8.257   2.374   9.579
12110WAT     H236573   8.171   2.248   9.637
12111WAT      O36574   2.571   3.315   1.349
12111WAT     H136575   2.482   3.351   1.378
12111WAT     H236576   2.591   3.231   1.399
12112WAT      O36577   4.005   8.294   1.587
12112WAT     H136578   3.955   8.287   1.500
12112WAT     H236579   3.945   8.332   1.657
12113WAT      O36580   9.680   4.854   4.943
12113WAT     H136581   9.631   4.936   4.973
12113WAT     H236582   9.749   4.830   5.012
12114WAT      O36583   8.535   3.859   8.114
12114WAT     H136584   8.465   3.923   8.081
12114WAT     H236585   8.625   3.902   8.108
12115WAT      O36586   3.678   8.124   6.612
12115WAT     H136587   3.648   8.193   6.679
12115WAT     H236588   3.618   8.128   6.532
12116WAT      O36589   5.221   7.338   1.315
12116WAT     H136590   5.226   7.287   1.401
12116WAT     H236591   5.149   7.407   1.322
12117WAT      O36592   1.442   6.197   5.367
12117WAT     H136593   1.354   6.150   5.368
12117WAT     H236594   1.464   6.224   5.273
12118WAT      O36595   8.544   6.080   3.791
12118WAT     H136596   8.513   6.110   3.701
12118WAT     H236597   8.515   5.985   3.806
12119WAT      O36598   2.237   3.120   4.856
12119WAT     H136599   2.321   3.097   4.906
12119WAT     H236600   2.235   3.070   4.770
12120WAT      O36601   5.067   1.646   5.648
12120WAT     H136602   5.122   1.708   5.592
12120WAT     H236603   5.042   1.692   5.733
12121WAT      O36604   6.439   2.976   0.443
12121WAT     H136605   6.425   2.956   0.346
12121WAT     H236606   6.359   3.024   0.479
12122WAT      O36607   7.359   9.377   6.055
12122WAT     H136608   7.369   9.444   6.129
12122WAT     H236609   7.272   9.329   6.065
12123WAT      O36610   6.320   8.806   9.315
12123WAT     H136611   6.362   8.774   9.399
12123WAT     H236612   6.320   8.906   9.313
12124WAT      O36613   5.221   1.654   0.060
12124WAT     H136614   5.228   1.732   0.121
12124WAT     H236615   5.125   1.637   0.037
12125WAT      O36616   3.974   4.637   3.153
12125WAT     H136617   3.992   4.735   3.144
12125WAT     H236618   4.054   4.586   3.124
12126WAT      O36619   0.014   8.133   7.871
12126WAT     H136620  -0.031   8.110   7.958
12126WAT     H236621   0.064   8.219   7.881
12127WAT      O36622   2.620   1.601   6.871
12127WAT     H136623   2.528   1.636   6.855
12127WAT     H236624   2.678   1.623   6.793
12128WAT      O36625   9.374   2.367   1.365
12128WAT     H136626   9.465   2.385   1.326
12128WAT     H236627   9.384   2.315   1.450
12129WAT      O36628   6.730   4.553   2.466
12129WAT     H136629   6.696   4.645   2.487
12129WAT     H236630   6.830   4.553   2.470
12130WAT      O36631   2.162   0.039   4.749
12130WAT     H136632   2.222  -0.019   4.804
12130WAT     H236633   2.085  -0.015   4.715
12131WAT      O36634   3.332   0.086   2.236
12131WAT     H136635   3.301   0.010   2.293
12131WAT     H236636   3.256   0.148   2.221
12132WAT      O36637   7.659   5.532   8.934
12132WAT     H136638   7.616   5.472   8.866
12132WAT     H236639   7.673   5.622   8.894
12133WAT      O36640   4.353   7.152   8.329
12133WAT     H136641   4.346   7.093   8.249
12133WAT     H236642   4.398   7.102   8.403
12134WAT      O36643   4.694   2.144   9.868
12134WAT     H136644   4.706   2.222   9.930
12134WAT     H236645   4.645   2.173   9.787
12135WAT      O36646   8.185   0.748   1.461
12135WAT     H136647   8.141   0.746   1.551
12135WAT     H236648   8.193   0.843   1.430
12136WAT      O36649   9.137   1.953   4.864
12136WAT     H136650   9.188   1.982   4.945
12136WAT     H236651   9.045   1.926   4.892
12137WAT      O36652   5.765   7.808   1.491
12137WAT     H136653   5.729   7.733   1.546
12137WAT     H236654   5.772   7.780   1.395
12138WAT      O36655   1.139   3.105   3.859
12138WAT     H136656   1.135   3.204   3.870
12138WAT     H236657   1.049   3.065   3.877
12139WAT      O36658   3.348   0.144   9.515
12139WAT     H136659   3.317   0.200   9.593
12139WAT     H236660   3.448   0.138   9.517
12140WAT      O36661   1.375   7.763   9.209
12140WAT     H136662   1.296   7.811   9.247
12140WAT     H236663   1.434   7.828   9.162
12141WAT      O36664   1.250   4.279   2.947
12141WAT     H136665   1.320   4.350   2.947
12141WAT     H236666   1.267   4.214   2.872
12142WAT      O36667   3.861   5.859   9.789
12142WAT     H136668   3.831   5.797   9.862
12142WAT     H236669   3.809   5.944   9.795
12143WAT      O36670   5.816   7.961   9.147
12143WAT     H136671   5.725   7.987   9.180
12143WAT     H236672   5.833   8.006   9.059
12144WAT      O36673   1.096   5.033   6.629
12144WAT     H136674   1.150   4.958   6.591
12144WAT     H236675   1.150   5.079   6.700
12145WAT      O36676   8.755   2.890   1.837
12145WAT     H136677   8.831   2.873   1.900
12145WAT     H236678   8.735   2.988   1.835
12146WAT      O36679   8.169   3.747   2.795
12146WAT     H136680   8.246   3.713   2.740
12146WAT     H236681   8.180   3.718   2.890
12147WAT      O36682   6.161   2.806   5.842
12147WAT     H136683   6.162   2.811   5.942
12147WAT     H236684   6.243   2.848   5.805
12148WAT      O36685   6.818   3.590   2.837
12148WAT     H136686   6.766   3.651   2.897
12148WAT     H236687   6.913   3.586   2.867
12149WAT      O36688   9.065   3.024   5.602
12149WAT     H136689   9.163   3.028   5.619
12149WAT     H236690   9.028   3.117   5.599
12150WAT      O36691   1.961   8.220   1.370
12150WAT     H136692   1.946   8.157   1.294
12150WAT     H236693   2.052   8.262   1.361
12151WAT      O36694   0.553   9.036   6.703
12151WAT     H136695   0.501   8.960   6.742
12151WAT     H236696   0.492   9.093   6.648
12152WAT      O36697   2.869   6.177   5.828
12152WAT     H136698   2.937   6.246   5.853
12152WAT     H236699   2.897   6.130   5.745
12153WAT      O36700   1.946   0.248   5.916
12153WAT     H136701   1.939   0.201   6.005
12153WAT     H236702   2.005   0.328   5.926
12154WAT      O36703   1.148   2.246   6.141
12154WAT     H136704   1.221   2.314   6.138
12154WAT     H236705   1.133   2.209   6.050
12155WAT      O36706   3.074   4.905   3.129
12155WAT     H136707   3.032   4.816   3.149
12155WAT     H236708   3.008   4.978   3.147
12156WAT      O36709   2.863   7.787   4.076
12156WAT     H136710   2.825   7.770   3.985
12156WAT     H236711   2.931   7.859   4.072
12157WAT      O36712   1.573   6.127   3.960
12157WAT     H136713   1.651   6.065   3.972
12157WAT     H236714   1.489   6.074   3.955
12158WAT      O36715   2.826   3.100   5.308
12158WAT     H136716   2.768   3.044   5.367
12158WAT     H236717   2.913   3.053   5.294
12159WAT      O36718   7.958   3.079   0.618
12159WAT     H136719   8.048   3.038   0.631
12159WAT     H236720   7.896   3.046   0.690
12160WAT      O36721   3.208   2.072   4.416
12160WAT     H136722   3.124   2.109   4.454
12160WAT     H236723   3.202   2.069   4.316
12161WAT      O36724   2.927   4.703   4.804
12161WAT     H136725   2.954   4.609   4.782
12161WAT     H236726   3.000   4.748   4.855
12162WAT      O36727   6.431   5.937   5.695
12162WAT     H136728   6.331   5.939   5.690
12162WAT     H236729   6.459   5.948   5.790
12163WAT      O36730   0.675   4.259   3.006
12163WAT     H136731   0.664   4.357   2.993
12163WAT     H236732   0.705   4.241   3.100
12164WAT      O36733   5.119   4.386   3.407
12164WAT     H136734   5.073   4.351   3.489
12164WAT     H236735   5.175   4.314   3.367
12165WAT      O36736   0.774   2.676   1.247
12165WAT     H136737   0.739   2.635   1.163
12165WAT     H236738   0.850   2.738   1.225
12166WAT      O36739   5.655   4.858   7.769
12166WAT     H136740   5.695   4.891   7.683
12166WAT     H236741   5.716   4.880   7.845
12167WAT      O36742   2.661   9.667   9.270
12167WAT     H136743   2.735   9.698   9.210
12167WAT     H236744   2.646   9.735   9.342
12168WAT      O36745   0.708   2.174   3.892
12168WAT     H136746   0.640   2.102   3.880
12168WAT     H236747   0.752   2.165   3.981
12169WAT      O36748   3.807   7.222   3.346
12169WAT     H136749   3.780   7.266   3.261
12169WAT     H236750   3.816   7.123   3.331
12170WAT      O36751   1.402   8.510   7.176
12170WAT     H136752   1.436   8.564   7.253
12170WAT     H236753   1.386   8.570   7.098
12171WAT      O36754   7.256   2.709   2.471
12171WAT     H136755   7.246   2.624   2.420
12171WAT     H236756   7.168   2.758   2.472
12172WAT      O36757   9.088   7.028   7.381
12172WAT     H136758   9.185   7.027   7.357
12172WAT     H236759   9.050   6.936   7.369
12173WAT      O36760   8.497   4.154   0.311
12173WAT     H136761   8.559   4.109   0.375
12173WAT     H236762   8.516   4.252   0.311
12174WAT      O36763   7.627   0.033   7.106
12174WAT     H136764   7.665  -0.054   7.076
12174WAT     H236765   7.554   0.016   7.172
12175WAT      O36766   1.743   4.717   9.265
12175WAT     H136767   1.734   4.756   9.173
12175WAT     H236768   1.763   4.791   9.330
12176WAT      O36769   0.907   0.117   6.498
12176WAT     H136770   0.990   0.082   6.542
12176WAT     H236771   0.874   0.197   6.548
12177WAT      O36772   5.106   7.474   1.018
12177WAT     H136773   5.009   7.482   0.994
12177WAT     H236774   5.126   7.379   1.042
12178WAT      O36775   2.801   0.352   5.197
12178WAT     H136776   2.737   0.341   5.273
12178WAT     H236777   2.848   0.440   5.206
12179WAT      O36778   5.763   9.621   4.548
12179WAT     H136779   5.782   9.567   4.629
12179WAT     H236780   5.779   9.718   4.568
12180WAT      O36781   6.379   0.626   9.526
12180WAT     H136782   6.473   0.640   9.555
12180WAT     H236783   6.356   0.691   9.453
12181WAT      O36784   0.240   8.234   6.848
12181WAT     H136785   0.310   8.224   6.918
12181WAT     H236786   0.223   8.331   6.830
12182WAT      O36787   5.817   4.112   9.156
12182WAT     H136788   5.749   4.085   9.224
12182WAT     H236789   5.869   4.190   9.189
12183WAT      O36790   5.897   5.636   5.130
12183WAT     H136791   5.818   5.697   5.131
12183WAT     H236792   5.919   5.608   5.223
12184WAT      O36793   9.134   1.731   5.856
12184WAT     H136794   9.050   1.786   5.856
12184WAT     H236795   9.123   1.654   5.793
12185WAT      O36796   9.412   1.652   4.333
12185WAT     H136797   9.472   1.602   4.270
12185WAT     H236798   9.459   1.734   4.366
12186WAT      O36799   3.205   0.850   7.719
12186WAT     H136800   3.114   0.891   7.730
12186WAT     H236801   3.246   0.882   7.634
12187WAT      O36802   1.737   9.183   4.555
12187WAT     H136803   1.809   9.211   4.617
12187WAT     H236804   1.689   9.264   4.520
12188WAT      O36805   8.447   5.638   0.993
12188WAT     H136806   8.532   5.633   1.046
12188WAT     H236807   8.459   5.591   0.906
12189WAT      O36808   5.763   0.813   1.618
12189WAT     H136809   5.837   0.754   1.650
12189WAT     H236810   5.801   0.898   1.583
12190WAT      O36811   5.477   5.162   7.055
12190WAT     H136812   5.545   5.176   6.983
12190WAT     H236813   5.471   5.244   7.111
12191WAT      O36814   4.868   7.806   4.176
12191WAT     H136815   4.945   7.863   4.206
12191WAT     H236816   4.819   7.772   4.256
12192WAT      O36817   1.148   9.026   8.690
12192WAT     H136818   1.119   9.122   8.695
12192WAT     H236819   1.135   8.982   8.779
12193WAT      O36820   1.259   1.328   2.542
12193WAT     H136821   1.177   1.349   2.596
12193WAT     H236822   1.255   1.377   2.455
12194WAT      O36823   4.350   2.145   7.008
12194WAT     H136824   4.301   2.226   7.041
12194WAT     H236825   4.369   2.085   7.086
12195WAT      O36826   5.240   6.574   6.282
12195WAT     H136827   5.169   6.572   6.351
12195WAT     H236828   5.307   6.501   6.300
12196WAT      O36829   1.968   1.397   8.267
12196WAT     H136830   1.924   1.372   8.181
12196WAT     H236831   1.914   1.468   8.312
12197WAT      O36832   3.117   4.706   0.334
12197WAT     H136833   3.038   4.655   0.299
12197WAT     H236834   3.094   4.746   0.423
12198WAT      O36835   6.086   9.736   2.804
12198WAT     H136836   6.163   9.673   2.818
12198WAT     H236837   6.083   9.765   2.708
12199WAT      O36838   9.807   3.330   9.652
12199WAT     H136839   9.894   3.281   9.643
12199WAT     H236840   9.818   3.406   9.716
12200WAT      O36841   5.493   5.106   4.787
12200WAT     H136842   5.552   5.118   4.868
12200WAT     H236843   5.458   5.012   4.786
12201WAT      O36844   0.210   0.480   6.586
12201WAT     H136845   0.227   0.389   6.548
12201WAT     H236846   0.214   0.548   6.513
12202WAT      O36847   7.115   2.472   4.541
12202WAT     H136848   7.178   2.548   4.524
12202WAT     H236849   7.127   2.439   4.634
12203WAT      O36850   4.658   5.527   6.000
12203WAT     H136851   4.709   5.569   5.925
12203WAT     H236852   4.720   5.474   6.058
12204WAT      O36853   7.194   7.963   7.863
12204WAT     H136854   7.259   7.907   7.812
12204WAT     H236855   7.119   7.905   7.895
12205WAT      O36856   8.810   9.717   1.901
12205WAT     H136857   8.725   9.737   1.852
12205WAT     H236858   8.830   9.619   1.895
12206WAT      O36859   7.405   9.584   6.729
12206WAT     H136860   7.362   9.675   6.730
12206WAT     H236861   7.442   9.564   6.819
12207WAT      O36862   1.926   8.932   2.951
12207WAT     H136863   1.908   8.876   3.031
12207WAT     H236864   2.024   8.946   2.941
12208WAT      O36865   4.804   7.926   0.260
12208WAT     H136866   4.801   7.829   0.282
12208WAT     H236867   4.853   7.939   0.173
12209WAT      O36868   8.214   7.003   3.312
12209WAT     H136869   8.119   7.022   3.289
12209WAT     H236870   8.235   6.908   3.291
12210WAT      O36871   7.927   3.812   7.346
12210WAT     H136872   7.926   3.911   7.328
12210WAT     H236873   8.012   3.788   7.392
12211WAT      O36874   9.626   5.209   6.752
12211WAT     H136875   9.560   5.139   6.780
12211WAT     H236876   9.602   5.296   6.795
12212WAT      O36877   8.669   1.956   6.866
12212WAT     H136878   8.718   1.999   6.790
12212WAT     H236879   8.687   1.858   6.866
12213WAT      O36880   2.530   7.768   5.258
12213WAT     H136881   2.434   7.788   5.240
12213WAT     H236882   2.579   7.854   5.276
12214WAT      O36883   0.572   7.343   4.211
12214WAT     H136884   0.472   7.341   4.210
12214WAT     H236885   0.605   7.345   4.306
12215WAT      O36886   6.586   9.392   7.950
12215WAT     H136887   6.625   9.379   7.858
12215WAT     H236888   6.534   9.477   7.952
12216WAT      O36889   0.071   2.041   8.862
12216WAT     H136890   0.111   1.950   8.853
12216WAT     H236891   0.133   2.109   8.824
12217WAT      O36892   1.649   6.372   1.439
12217WAT     H136893   1.719   6.427   1.394
12217WAT     H236894   1.641   6.399   1.535
12218WAT      O36895   3.608   2.919   5.041
12218WAT     H136896   3.657   2.845   5.086
12218WAT     H236897   3.582   2.988   5.108
12219WAT      O36898   0.696   1.369   1.606
12219WAT     H136899   0.630   1.412   1.668
12219WAT     H236900   0.786   1.368   1.651
12220WAT      O36901   1.760   4.632   6.269
12220WAT     H136902   1.662   4.614   6.269
12220WAT     H236903   1.787   4.669   6.358
12221WAT      O36904   5.844   1.603   8.092
12221WAT     H136905   5.866   1.609   7.995
12221WAT     H236906   5.819   1.510   8.116
12222WAT      O36907   4.445   1.632   7.755
12222WAT     H136908   4.379   1.570   7.798
12222WAT     H236909   4.445   1.719   7.803
12223WAT      O36910   8.905   9.768   8.887
12223WAT     H136911   8.850   9.703   8.834
12223WAT     H236912   8.900   9.744   8.984
12224WAT      O36913   2.315   4.460   6.390
12224WAT     H136914   2.233   4.407   6.368
12224WAT     H236915   2.334   4.524   6.315
12225WAT      O36916   1.860   3.766   2.897
12225WAT     H136917   1.840   3.727   2.986
12225WAT     H236918   1.805   3.720   2.827
12226WAT      O36919   0.996   1.249   5.993
12226WAT     H136920   1.028   1.344   5.990
12226WAT     H236921   0.903   1.243   5.958
12227WAT      O36922   4.336   7.656   4.426
12227WAT     H136923   4.277   7.584   4.389
12227WAT     H236924   4.372   7.711   4.351
12228WAT      O36925   8.135   5.020   4.444
12228WAT     H136926   8.048   4.973   4.424
12228WAT     H236927   8.136   5.108   4.397
12229WAT      O36928   3.374   1.198   9.071
12229WAT     H136929   3.281   1.203   9.106
12229WAT     H236930   3.401   1.288   9.036
12230WAT      O36931   6.920   7.457   7.821
12230WAT     H136932   6.886   7.366   7.843
12230WAT     H236933   6.848   7.511   7.779
12231WAT      O36934   5.680   0.618   9.310
12231WAT     H136935   5.726   0.679   9.246
12231WAT     H236936   5.737   0.605   9.391
12232WAT      O36937   0.230   4.947   5.340
12232WAT     H136938   0.195   4.977   5.251
12232WAT     H236939   0.317   4.994   5.358
12233WAT      O36940   0.755   6.001   7.055
12233WAT     H136941   0.676   5.991   7.116
12233WAT     H236942   0.824   5.932   7.077
12234WAT      O36943   0.393   9.389   5.369
12234WAT     H136944   0.368   9.342   5.284
12234WAT     H236945   0.471   9.343   5.410
12235WAT      O36946   4.193   8.461   8.836
12235WAT     H136947   4.274   8.417   8.874
12235WAT     H236948   4.221   8.538   8.778
12236WAT      O36949   6.490   6.598   3.429
12236WAT     H136950   6.568   6.631   3.483
12236WAT     H236951   6.523   6.556   3.344
12237WAT      O36952   1.286   8.418   0.470
12237WAT     H136953   1.353   8.492   0.458
12237WAT     H236954   1.319   8.355   0.540
12238WAT      O36955   3.953   6.101   5.686
12238WAT     H136956   3.916   6.010   5.706
12238WAT     H236957   3.878   6.168   5.686
12239WAT      O36958   6.068   7.028   3.398
12239WAT     H136959   6.103   7.099   3.459
12239WAT     H236960   6.143   6.989   3.344
12240WAT      O36961   6.260   7.336   2.773
12240WAT     H136962   6.183   7.325   2.711
12240WAT     H236963   6.324   7.402   2.735
12241WAT      O36964   9.726   5.157   8.589
12241WAT     H136965   9.821   5.156   8.622
12241WAT     H236966   9.671   5.215   8.650
12242WAT      O36967   2.964   1.792   0.973
12242WAT     H136968   2.866   1.775   0.981
12242WAT     H236969   2.979   1.881   0.929
12243WAT      O36970   1.994   3.119   3.068
12243WAT     H136971   1.909   3.117   3.120
12243WAT     H236972   1.989   3.055   2.991
12244WAT      O36973   1.382   3.341   8.857
12244WAT     H136974   1.317   3.266   8.868
12244WAT     H236975   1.455   3.331   8.924
12245WAT      O36976   8.618   2.756   6.123
12245WAT     H136977   8.637   2.852   6.100
12245WAT     H236978   8.645   2.698   6.046
12246WAT      O36979   0.241   2.316   6.108
12246WAT     H136980   0.188   2.344   6.188
12246WAT     H236981   0.289   2.396   6.071
12247WAT      O36982   8.301   1.241   5.301
12247WAT     H136983   8.309   1.334   5.267
12247WAT     H236984   8.205   1.213   5.303
12248WAT      O36985   8.116   7.510   5.059
12248WAT     H136986   8.096   7.493   4.962
12248WAT     H236987   8.194   7.572   5.066
12249WAT      O36988   8.088   5.373   0.675
12249WAT     H136989   8.021   5.418   0.616
12249WAT     H236990   8.076   5.404   0.769
12250WAT      O36991   7.498   5.964   5.538
12250WAT     H136992   7.594   5.984   5.519
12250WAT     H236993   7.468   5.887   5.481
12251WAT      O36994   9.361   0.028   6.006
12251WAT     H136995   9.430   0.042   6.077
12251WAT     H236996   9.404  -0.011   5.924
12252WAT      O36997   2.101   1.005   2.227
12252WAT     H136998   2.060   0.970   2.310
12252WAT     H236999   2.056   1.091   2.201
12253WAT      O37000   6.500   5.437   4.590
12253WAT     H137001   6.440   5.515   4.581
12253WAT     H237002   6.468   5.363   4.531
12254WAT      O37003   5.520   9.211   0.547
12254WAT     H137004   5.489   9.296   0.505
12254WAT     H237005   5.566   9.231   0.633
12255WAT      O37006   0.537   1.896   4.704
12255WAT     H137007   0.619   1.889   4.761
12255WAT     H237008   0.564   1.897   4.608
12256WAT      O37009   8.534   6.603   1.298
12256WAT     H137010   8.492   6.519   1.331
12256WAT     H237011   8.628   6.609   1.331
12257WAT      O37012   7.870   2.581   8.935
12257WAT     H137013   7.776   2.554   8.915
12257WAT     H237014   7.933   2.511   8.901
12258WAT      O37015   5.793   0.040   1.046
12258WAT     H137016   5.803  -0.059   1.029
12258WAT     H237017   5.866   0.071   1.107
12259WAT      O37018   3.576   6.088   3.997
12259WAT     H137019   3.478   6.074   4.012
12259WAT     H237020   3.610   6.158   4.059
12260WAT      O37021   6.645   4.950   5.951
12260WAT     H137022   6.660   5.026   5.887
12260WAT     H237023   6.701   4.872   5.925
12261WAT      O37024   7.403   7.878   4.899
12261WAT     H137025   7.493   7.837   4.912
12261WAT     H237026   7.406   7.974   4.929
12262WAT      O37027   2.821   4.315   2.354
12262WAT     H137028   2.918   4.338   2.347
12262WAT     H237029   2.781   4.362   2.433
12263WAT      O37030   4.631   0.417   7.308
12263WAT     H137031   4.613   0.513   7.329
12263WAT     H237032   4.572   0.358   7.364
12264WAT      O37033   5.437   0.893   3.512
12264WAT     H137034   5.453   0.795   3.524
12264WAT     H237035   5.436   0.916   3.415
12265WAT      O37036   1.788   6.641   3.387
12265WAT     H137037   1.834   6.670   3.471
12265WAT     H237038   1.690   6.636   3.404
12266WAT      O37039   2.681   9.021   4.473
12266WAT     H137040   2.701   9.118   4.461
12266WAT     H237041   2.588   9.002   4.440
12267WAT      O37042   0.401   4.969   3.567
12267WAT     H137043   0.383   4.960   3.665
12267WAT     H237044   0.454   4.890   3.535
12268WAT      O37045   5.014   2.111   1.018
12268WAT     H137046   5.114   2.107   1.018
12268WAT     H237047   4.977   2.019   1.006
12269WAT      O37048   0.795   7.240   6.603
12269WAT     H137049   0.854   7.278   6.675
12269WAT     H237050   0.849   7.226   6.520
12270WAT      O37051   0.821   8.412   9.534
12270WAT     H137052   0.811   8.386   9.438
12270WAT     H237053   0.911   8.381   9.567
12271WAT      O37054   4.505   6.819   0.391
12271WAT     H137055   4.486   6.750   0.461
12271WAT     H237056   4.559   6.777   0.317
12272WAT      O37057   6.791   0.145   4.267
12272WAT     H137058   6.789   0.065   4.208
12272WAT     H237059   6.876   0.148   4.319
12273WAT      O37060   1.338   2.015   8.075
12273WAT     H137061   1.304   2.083   8.141
12273WAT     H237062   1.275   1.937   8.073
12274WAT      O37063   2.807   8.928   6.446
12274WAT     H137064   2.868   8.956   6.521
12274WAT     H237065   2.819   8.991   6.369
12275WAT      O37066   5.415   1.441   7.024
12275WAT     H137067   5.396   1.355   7.071
12275WAT     H237068   5.510   1.467   7.038
12276WAT      O37069   3.478   1.068   9.812
12276WAT     H137070   3.481   0.976   9.849
12276WAT     H237071   3.535   1.074   9.730
12277WAT      O37072   6.659   7.569   3.310
12277WAT     H137073   6.648   7.470   3.317
12277WAT     H237074   6.573   7.614   3.334
12278WAT      O37075   7.511   3.224   6.050
12278WAT     H137076   7.504   3.254   5.955
12278WAT     H237077   7.567   3.289   6.101
12279WAT      O37078   9.162   1.158   3.399
12279WAT     H137079   9.186   1.203   3.313
12279WAT     H237080   9.123   1.068   3.379
12280WAT      O37081   1.513   3.909   6.810
12280WAT     H137082   1.458   3.970   6.754
12280WAT     H237083   1.477   3.816   6.803
12281WAT      O37084   9.486   4.579   2.327
12281WAT     H137085   9.494   4.655   2.263
12281WAT     H237086   9.390   4.557   2.341
12282WAT      O37087   9.060   7.764   6.879
12282WAT     H137088   9.146   7.716   6.892
12282WAT     H237089   9.063   7.852   6.927
12283WAT      O37090   6.501   0.753   2.577
12283WAT     H137091   6.413   0.798   2.591
12283WAT     H237092   6.553   0.803   2.507
12284WAT      O37093   4.924   6.354   0.614
12284WAT     H137094   4.826   6.369   0.625
12284WAT     H237095   4.941   6.293   0.536
12285WAT      O37096   8.649   6.793   7.647
12285WAT     H137097   8.632   6.831   7.556
12285WAT     H237098   8.658   6.868   7.713
12286WAT      O37099   1.791   9.367   4.006
12286WAT     H137100   1.816   9.444   4.064
12286WAT     H237101   1.836   9.377   3.917
12287WAT      O37102   5.775   0.927   8.302
12287WAT     H137103   5.711   0.989   8.348
12287WAT     H237104   5.745   0.910   8.208
12288WAT      O37105   6.243   0.750   5.891
12288WAT     H137106   6.285   0.840   5.879
12288WAT     H237107   6.165   0.741   5.829
12289WAT      O37108   7.871   6.333   4.390
12289WAT     H137109   7.848   6.335   4.292
12289WAT     H237110   7.849   6.422   4.431
12290WAT      O37111   6.849   7.390   8.857
12290WAT     H137112   6.921   7.321   8.854
12290WAT     H237113   6.799   7.383   8.943
12291WAT      O37114   4.631   2.533   1.319
12291WAT     H137115   4.613   2.442   1.354
12291WAT     H237116   4.728   2.554   1.325
12292WAT      O37117   0.020   3.589   0.830
12292WAT     H137118  -0.036   3.579   0.748
12292WAT     H237119   0.117   3.582   0.806
12293WAT      O37120   5.266   7.348   6.241
12293WAT     H137121   5.333   7.360   6.167
12293WAT     H237122   5.282   7.417   6.311
12294WAT      O37123   6.680   3.195   8.575
12294WAT     H137124   6.746   3.261   8.537
12294WAT     H237125   6.683   3.111   8.522
12295WAT      O37126   5.090   7.711   6.678
12295WAT     H137127   5.017   7.644   6.692
12295WAT     H237128   5.136   7.729   6.764
12296WAT      O37129   5.606   7.168   7.937
12296WAT     H137130   5.514   7.131   7.929
12296WAT     H237131   5.671   7.104   7.897
12297WAT      O37132   5.870   5.409   8.711
12297WAT     H137133   5.938   5.373   8.646
12297WAT     H237134   5.916   5.468   8.777
12298WAT      O37135   3.471   1.605   7.610
12298WAT     H137136   3.485   1.683   7.550
12298WAT     H237137   3.509   1.624   7.700
12299WAT      O37138   8.737   1.133   3.658
12299WAT     H137139   8.716   1.036   3.648
12299WAT     H237140   8.714   1.162   3.751
12300WAT      O37141   8.141   7.671   7.703
12300WAT     H137142   8.108   7.680   7.608
12300WAT     H237143   8.160   7.575   7.722
12301WAT      O37144   2.401   2.370   9.090
12301WAT     H137145   2.308   2.396   9.067
12301WAT     H237146   2.429   2.416   9.175
12302WAT      O37147   7.864   6.573   7.289
12302WAT     H137148   7.830   6.600   7.379
12302WAT     H237149   7.919   6.646   7.249
12303WAT      O37150   2.401   4.779   7.328
12303WAT     H137151   2.448   4.791   7.415
12303WAT     H237152   2.357   4.865   7.302
12304WAT      O37153   3.064   8.171   5.120
12304WAT     H137154   3.020   8.199   5.206
12304WAT     H237155   3.023   8.220   5.044
12305WAT      O37156   6.245   9.153   0.612
12305WAT     H137157   6.282   9.076   0.560
12305WAT     H237158   6.312   9.184   0.679
12306WAT      O37159   7.475   3.013   3.427
12306WAT     H137160   7.552   2.953   3.448
12306WAT     H237161   7.452   3.067   3.508
12307WAT      O37162   0.898   1.963   3.161
12307WAT     H137163   0.861   1.917   3.241
12307WAT     H237164   0.997   1.970   3.169
12308WAT      O37165   8.480   4.304   5.769
12308WAT     H137166   8.409   4.272   5.832
12308WAT     H237167   8.569   4.299   5.814
12309WAT      O37168   6.607   7.549   4.544
12309WAT     H137169   6.565   7.481   4.484
12309WAT     H237170   6.543   7.625   4.558
12310WAT      O37171   9.090   0.566   8.190
12310WAT     H137172   9.030   0.547   8.112
12310WAT     H237173   9.175   0.513   8.180
12311WAT      O37174   4.451   2.500   4.276
12311WAT     H137175   4.371   2.446   4.302
12311WAT     H237176   4.517   2.501   4.351
12312WAT      O37177   2.665   3.294   7.586
12312WAT     H137178   2.632   3.248   7.503
12312WAT     H237179   2.748   3.346   7.565
12313WAT      O37180   0.742   6.444   0.673
12313WAT     H137181   0.757   6.517   0.740
12313WAT     H237182   0.673   6.472   0.607
12314WAT      O37183   2.143   6.665   5.815
12314WAT     H137184   2.051   6.677   5.779
12314WAT     H237185   2.173   6.750   5.858
12315WAT      O37186   5.951   1.921   0.880
12315WAT     H137187   6.000   1.989   0.935
12315WAT     H237188   5.862   1.958   0.853
12316WAT      O37189   4.274   7.497   7.355
12316WAT     H137190   4.245   7.481   7.261
12316WAT     H237191   4.207   7.458   7.418
12317WAT      O37192   9.356   2.474   1.769
12317WAT     H137193   9.279   2.517   1.721
12317WAT     H237194   9.408   2.545   1.818
12318WAT      O37195   8.325   2.346   7.911
12318WAT     H137196   8.266   2.426   7.919
12318WAT     H237197   8.287   2.272   7.967
12319WAT      O37198   3.922   5.577   4.217
12319WAT     H137199   3.937   5.615   4.126
12319WAT     H237200   3.831   5.604   4.249
12320WAT      O37201   5.594   9.493   3.950
12320WAT     H137202   5.552   9.453   4.032
12320WAT     H237203   5.551   9.454   3.869
12321WAT      O37204   0.865   9.132   7.613
12321WAT     H137205   0.843   9.034   7.610
12321WAT     H237206   0.964   9.144   7.609
12322WAT      O37207   9.223   8.473   4.724
12322WAT     H137208   9.173   8.399   4.678
12322WAT     H237209   9.314   8.481   4.683
12323WAT      O37210   5.544   6.492   0.492
12323WAT     H137211   5.452   6.453   0.500
12323WAT     H237212   5.554   6.534   0.402
12324WAT      O37213   2.756   8.406   2.810
12324WAT     H137214   2.711   8.428   2.724
12324WAT     H237215   2.740   8.310   2.833
12325WAT      O37216   7.628   7.933   1.368
12325WAT     H137217   7.570   7.995   1.421
12325WAT     H237218   7.637   7.969   1.275
12326WAT      O37219   0.912   6.978   6.318
12326WAT     H137220   0.922   7.065   6.366
12326WAT     H237221   0.959   6.906   6.369
12327WAT      O37222   6.256   9.750   1.541
12327WAT     H137223   6.315   9.731   1.620
12327WAT     H237224   6.199   9.829   1.562
12328WAT      O37225   2.155   9.020   7.516
12328WAT     H137226   2.090   9.057   7.448
12328WAT     H237227   2.130   9.054   7.607
12329WAT      O37228   8.889   0.195   9.611
12329WAT     H137229   8.946   0.113   9.612
12329WAT     H237230   8.918   0.256   9.537
12330WAT      O37231   6.527   2.573   9.196
12330WAT     H137232   6.571   2.528   9.119
12330WAT     H237233   6.561   2.534   9.282
12331WAT      O37234   4.626   1.280   4.241
12331WAT     H137235   4.579   1.367   4.226
12331WAT     H237236   4.619   1.254   4.337
12332WAT      O37237   3.901   5.988   3.541
12332WAT     H137238   3.917   6.086   3.534
12332WAT     H237239   3.808   5.972   3.576
12333WAT      O37240   6.433   0.576   7.542
12333WAT     H137241   6.394   0.513   7.475
12333WAT     H237242   6.501   0.634   7.498
12334WAT      O37243   2.796   1.758   4.644
12334WAT     H137244   2.717   1.819   4.639
12334WAT     H237245   2.773   1.671   4.600
12335WAT      O37246   7.592   4.650   0.980
12335WAT     H137247   7.565   4.571   1.035
12335WAT     H237248   7.555   4.733   1.021
12336WAT      O37249   9.178   3.169   2.629
12336WAT     H137250   9.228   3.255   2.622
12336WAT     H237251   9.219   3.111   2.699
12337WAT      O37252   0.810   6.568   4.555
12337WAT     H137253   0.752   6.496   4.516
12337WAT     H237254   0.798   6.652   4.502
12338WAT      O37255   0.721   5.288   2.812
12338WAT     H137256   0.723   5.386   2.828
12338WAT     H237257   0.690   5.270   2.718
12339WAT      O37258   5.785   8.528   1.061
12339WAT     H137259   5.852   8.573   1.001
12339WAT     H237260   5.709   8.494   1.006
12340WAT      O37261   1.603   9.097   5.908
12340WAT     H137262   1.674   9.091   5.837
12340WAT     H237263   1.572   9.192   5.915
12341WAT      O37264   1.723   9.258   6.995
12341WAT     H137265   1.717   9.290   7.089
12341WAT     H237266   1.677   9.169   6.986
12342WAT      O37267   0.111   6.540   9.763
12342WAT     H137268   0.114   6.441   9.746
12342WAT     H237269   0.129   6.589   9.678
12343WAT      O37270   6.381   9.752   0.025
12343WAT     H137271   6.303   9.754   0.088
12343WAT     H237272   6.403   9.657   0.002
12344WAT      O37273   6.769   3.400   1.153
12344WAT     H137274   6.764   3.316   1.208
12344WAT     H237275   6.798   3.378   1.060
12345WAT      O37276   6.729   2.189   4.535
12345WAT     H137277   6.642   2.212   4.491
12345WAT     H237278   6.757   2.097   4.506
12346WAT      O37279   4.483   4.525   9.653
12346WAT     H137280   4.474   4.621   9.623
12346WAT     H237281   4.466   4.465   9.575
12347WAT      O37282   0.106   5.117   1.539
12347WAT     H137283   0.069   5.068   1.459
12347WAT     H237284   0.197   5.083   1.560
12348WAT      O37285   8.637   4.717   1.319
12348WAT     H137286   8.695   4.636   1.319
12348WAT     H237287   8.548   4.695   1.360
12349WAT      O37288   6.309   3.579   7.050
12349WAT     H137289   6.300   3.604   7.147
12349WAT     H237290   6.390   3.623   7.012
12350WAT      O37291   2.465   3.990   5.231
12350WAT     H137292   2.406   3.929   5.178
12350WAT     H237293   2.444   4.085   5.207
12351WAT      O37294   0.972   7.504   6.435
12351WAT     H137295   1.033   7.498   6.514
12351WAT     H237296   0.975   7.597   6.397
12352WAT      O37297   5.393   7.934   8.111
12352WAT     H137298   5.338   8.014   8.136
12352WAT     H237299   5.479   7.937   8.162
12353WAT      O37300   9.354   2.761   9.676
12353WAT     H137301   9.330   2.815   9.596
12353WAT     H237302   9.453   2.746   9.678
12354WAT      O37303   1.514   3.902   7.368
12354WAT     H137304   1.612   3.916   7.352
12354WAT     H237305   1.463   3.929   7.286
12355WAT      O37306   9.686   5.059   8.320
12355WAT     H137307   9.665   5.109   8.404
12355WAT     H237308   9.717   5.123   8.249
12356WAT      O37309   1.698   5.167   6.238
12356WAT     H137310   1.667   5.075   6.216
12356WAT     H237311   1.766   5.164   6.311
12357WAT      O37312   4.201   5.143   8.145
12357WAT     H137313   4.119   5.150   8.201
12357WAT     H237314   4.203   5.055   8.099
12358WAT      O37315   0.099   5.071   5.735
12358WAT     H137316   0.101   4.981   5.692
12358WAT     H237317   0.180   5.123   5.707
12359WAT      O37318   7.526   2.634   5.836
12359WAT     H137319   7.507   2.727   5.804
12359WAT     H237320   7.624   2.615   5.826
12360WAT      O37321   7.852   0.245   9.470
12360WAT     H137322   7.874   0.182   9.396
12360WAT     H237323   7.923   0.241   9.540
12361WAT      O37324   9.736   5.998   7.973
12361WAT     H137325   9.783   5.941   7.904
12361WAT     H237326   9.764   5.968   8.064
12362WAT      O37327   1.508   9.610   7.422
12362WAT     H137328   1.605   9.634   7.423
12362WAT     H237329   1.453   9.694   7.421
12363WAT      O37330   0.815   4.563   6.887
12363WAT     H137331   0.754   4.526   6.957
12363WAT     H237332   0.769   4.560   6.798
12364WAT      O37333   2.610   3.566   6.362
12364WAT     H137334   2.604   3.529   6.269
12364WAT     H237335   2.591   3.664   6.360
12365WAT      O37336   5.500   0.297   6.949
12365WAT     H137337   5.466   0.204   6.936
12365WAT     H237338   5.473   0.354   6.871
12366WAT      O37339   0.515   0.756   4.256
12366WAT     H137340   0.429   0.736   4.303
12366WAT     H237341   0.534   0.684   4.189
12367WAT      O37342   1.240   1.969   5.514
12367WAT     H137343   1.142   1.959   5.498
12367WAT     H237344   1.260   2.063   5.540
12368WAT      O37345   8.639   9.164   5.271
12368WAT     H137346   8.554   9.166   5.219
12368WAT     H237347   8.666   9.070   5.289
12369WAT      O37348   1.385   7.899   3.594
12369WAT     H137349   1.332   7.938   3.670
12369WAT     H237350   1.338   7.917   3.508
12370WAT      O37351   8.565   5.635   3.204
12370WAT     H137352   8.651   5.588   3.181
12370WAT     H237353   8.520   5.586   3.278
12371WAT      O37354   1.446   6.440   2.682
12371WAT     H137355   1.461   6.342   2.669
12371WAT     H237356   1.519   6.477   2.738
12372WAT      O37357   0.335   0.987   2.357
12372WAT     H137358   0.304   1.014   2.449
12372WAT     H237359   0.388   1.061   2.317
12373WAT      O37360   8.552   7.505   8.843
12373WAT     H137361   8.515   7.414   8.827
12373WAT     H237362   8.580   7.513   8.939
12374WAT      O37363   3.641   3.399   2.115
12374WAT     H137364   3.625   3.357   2.026
12374WAT     H237365   3.628   3.498   2.108
12375WAT      O37366   4.475   6.155   4.068
12375WAT     H137367   4.441   6.229   4.011
12375WAT     H237368   4.428   6.070   4.044
12376WAT      O37369   8.456   3.462   5.809
12376WAT     H137370   8.506   3.491   5.728
12376WAT     H237371   8.401   3.539   5.843
12377WAT      O37372   4.953   2.728   5.001
12377WAT     H137373   5.025   2.696   5.062
12377WAT     H237374   4.910   2.651   4.955
12378WAT      O37375   5.308   2.153   0.647
12378WAT     H137376   5.322   2.195   0.558
12378WAT     H237377   5.265   2.218   0.709
12379WAT      O37378   5.828   5.040   0.882
12379WAT     H137379   5.826   5.098   0.963
12379WAT     H237380   5.760   4.967   0.891
12380WAT      O37381   1.994   1.817   6.525
12380WAT     H137382   1.931   1.895   6.528
12380WAT     H237383   1.998   1.774   6.615
12381WAT      O37384   0.091   3.827   8.746
12381WAT     H137385   0.084   3.880   8.830
12381WAT     H237386   0.176   3.774   8.746
12382WAT      O37387   5.583   9.663   0.483
12382WAT     H137388   5.519   9.728   0.522
12382WAT     H237389   5.667   9.711   0.456
12383WAT      O37390   2.551   5.089   5.768
12383WAT     H137391   2.528   5.130   5.680
12383WAT     H237392   2.542   5.157   5.840
12384WAT      O37393   7.969   2.091   5.087
12384WAT     H137394   7.933   2.044   5.167
12384WAT     H237395   8.059   2.055   5.064
12385WAT      O37396   1.950   6.593   5.052
12385WAT     H137397   1.966   6.626   5.145
12385WAT     H237398   1.989   6.658   4.987
12386WAT      O37399   1.615   5.700   7.937
12386WAT     H137400   1.519   5.720   7.959
12386WAT     H237401   1.667   5.786   7.939
12387WAT      O37402   6.503   7.999   5.319
12387WAT     H137403   6.450   8.010   5.235
12387WAT     H237404   6.600   7.990   5.297
12388WAT      O37405   2.691   2.148   0.947
12388WAT     H137406   2.732   2.078   0.889
12388WAT     H237407   2.750   2.166   1.025
12389WAT      O37408   8.799   2.047   4.387
12389WAT     H137409   8.835   2.139   4.401
12389WAT     H237410   8.745   2.044   4.304
12390WAT      O37411   8.174   5.733   7.041
12390WAT     H137412   8.116   5.762   6.965
12390WAT     H237413   8.171   5.634   7.049
12391WAT      O37414   2.694   1.560   7.837
12391WAT     H137415   2.630   1.534   7.910
12391WAT     H237416   2.646   1.558   7.749
12392WAT      O37417   1.693   3.970   6.066
12392WAT     H137418   1.598   3.940   6.069
12392WAT     H237419   1.745   3.922   6.137
12393WAT      O37420   1.520   6.213   2.857
12393WAT     H137421   1.547   6.141   2.794
12393WAT     H237422   1.437   6.186   2.906
12394WAT      O37423   3.139   2.552   0.636
12394WAT     H137424   3.206   2.500   0.690
12394WAT     H237425   3.073   2.596   0.698
12395WAT      O37426   3.914   5.697   3.910
12395WAT     H137427   3.956   5.687   3.820
12395WAT     H237428   3.837   5.760   3.904
12396WAT      O37429   3.298   7.815   6.301
12396WAT     H137430   3.236   7.741   6.330
12396WAT     H237431   3.353   7.784   6.224
12397WAT      O37432   6.056   5.289   9.077
12397WAT     H137433   5.987   5.350   9.118
12397WAT     H237434   6.021   5.196   9.076
12398WAT      O37435   9.017   0.926   4.426
12398WAT     H137436   9.007   0.832   4.394
12398WAT     H237437   8.927   0.970   4.426
12399WAT      O37438   4.571   1.591   9.813
12399WAT     H137439   4.611   1.501   9.794
12399WAT     H237440   4.595   1.654   9.740
12400WAT      O37441   7.609   5.201   6.087
12400WAT     H137442   7.656   5.137   6.148
12400WAT     H237443   7.610   5.293   6.127
12401WAT      O37444   6.160   7.583   6.997
12401WAT     H137445   6.095   7.659   6.987
12401WAT     H237446   6.135   7.510   6.933
12402WAT      O37447   7.300   4.032   9.037
12402WAT     H137448   7.398   4.038   9.018
12402WAT     H237449   7.254   3.986   8.962
12403WAT      O37450   9.666   4.852   7.499
12403WAT     H137451   9.686   4.820   7.592
12403WAT     H237452   9.732   4.813   7.435
12404WAT      O37453   3.830   3.010   2.164
12404WAT     H137454   3.828   3.110   2.167
12404WAT     H237455   3.849   2.974   2.255
12405WAT      O37456   7.291   4.939   7.408
12405WAT     H137457   7.389   4.958   7.413
12405WAT     H237458   7.261   4.893   7.492
12406WAT      O37459   2.543   0.109   7.870
12406WAT     H137460   2.527   0.078   7.964
12406WAT     H237461   2.546   0.030   7.809
12407WAT      O37462   7.587   6.787   3.763
12407WAT     H137463   7.632   6.773   3.675
12407WAT     H237464   7.630   6.728   3.832
12408WAT      O37465   4.099   6.206   9.726
12408WAT     H137466   4.039   6.133   9.757
12408WAT     H237467   4.193   6.186   9.753
12409WAT      O37468   7.070   0.827   3.733
12409WAT     H137469   7.048   0.887   3.810
12409WAT     H237470   7.135   0.758   3.762
12410WAT      O37471   9.387   4.367   8.014
12410WAT     H137472   9.448   4.415   7.951
12410WAT     H237473   9.335   4.434   8.067
12411WAT      O37474   0.145   4.911   8.568
12411WAT     H137475   0.144   4.916   8.468
12411WAT     H237476   0.140   4.815   8.596
12412WAT      O37477   7.625   8.824   7.387
12412WAT     H137478   7.668   8.905   7.348
12412WAT     H237479   7.670   8.742   7.354
12413WAT      O37480   4.709   4.022   6.077
12413WAT     H137481   4.715   4.119   6.053
12413WAT     H237482   4.666   3.971   6.002
12414WAT      O37483   4.666   0.832   3.751
12414WAT     H137484   4.718   0.897   3.696
12414WAT     H237485   4.696   0.739   3.730
12415WAT      O37486   0.119   9.242   6.400
12415WAT     H137487   0.104   9.146   6.422
12415WAT     H237488   0.127   9.252   6.300
12416WAT      O37489   1.842   3.170   5.167
12416WAT     H137490   1.884   3.140   5.082
12416WAT     H237491   1.913   3.187   5.235
12417WAT      O37492   3.550   5.794   4.636
12417WAT     H137493   3.581   5.715   4.582
12417WAT     H237494   3.615   5.812   4.709
12418WAT      O37495   6.686   3.863   1.946
12418WAT     H137496   6.785   3.850   1.938
12418WAT     H237497   6.639   3.801   1.884
12419WAT      O37498   8.469   9.048   6.783
12419WAT     H137499   8.389   9.010   6.828
12419WAT     H237500   8.502   8.985   6.713
12420WAT      O37501   1.855   5.386   6.996
12420WAT     H137502   1.844   5.480   6.963
12420WAT     H237503   1.871   5.387   7.095
12421WAT      O37504   9.629   3.984   0.702
12421WAT     H137505   9.646   3.943   0.612
12421WAT     H237506   9.541   3.952   0.736
12422WAT      O37507   4.409   1.767   4.963
12422WAT     H137508   4.425   1.721   5.051
12422WAT     H237509   4.378   1.861   4.979
12423WAT      O37510   2.030   7.370   5.533
12423WAT     H137511   2.047   7.356   5.436
12423WAT     H237512   1.942   7.328   5.558
12424WAT      O37513   0.308   9.662   3.477
12424WAT     H137514   0.255   9.678   3.560
12424WAT     H237515   0.304   9.743   3.419
12425WAT      O37516   4.728   0.577   9.148
12425WAT     H137517   4.724   0.522   9.064
12425WAT     H237518   4.778   0.526   9.218
12426WAT      O37519   1.803   0.605   6.485
12426WAT     H137520   1.760   0.554   6.411
12426WAT     H237521   1.859   0.679   6.446
12427WAT      O37522   0.080   7.295   3.172
12427WAT     H137523   0.103   7.366   3.238
12427WAT     H237524   0.134   7.213   3.190
12428WAT      O37525   4.530   0.261   7.831
12428WAT     H137526   4.590   0.335   7.859
12428WAT     H237527   4.467   0.294   7.761
12429WAT      O37528   6.600   8.463   0.764
12429WAT     H137529   6.607   8.419   0.674
12429WAT     H237530   6.644   8.406   0.833
12430WAT      O37531   7.597   3.873   3.843
12430WAT     H137532   7.563   3.788   3.802
12430WAT     H237533   7.697   3.871   3.844
12431WAT      O37534   4.983   4.723   2.156
12431WAT     H137535   4.941   4.812   2.141
12431WAT     H237536   5.024   4.720   2.248
12432WAT      O37537   7.974   8.260   2.523
12432WAT     H137538   8.070   8.281   2.543
12432WAT     H237539   7.939   8.325   2.455
12433WAT      O37540   5.486   6.124   5.120
12433WAT     H137541   5.529   6.098   5.207
12433WAT     H237542   5.393   6.088   5.118
12434WAT      O37543   2.926   4.154   4.362
12434WAT     H137544   2.931   4.251   4.387
12434WAT     H237545   3.012   4.109   4.386
12435WAT      O37546   9.040   5.419   8.505
12435WAT     H137547   8.971   5.415   8.433
12435WAT     H237548   9.047   5.512   8.541
12436WAT      O37549   1.649   3.025   9.111
12436WAT     H137550   1.666   3.114   9.069
12436WAT     H237551   1.664   3.031   9.210
12437WAT      O37552   7.177   5.343   7.568
12437WAT     H137553   7.148   5.353   7.663
12437WAT     H237554   7.267   5.299   7.565
12438WAT      O37555   2.206   9.012   3.670
12438WAT     H137556   2.139   9.058   3.612
12438WAT     H237557   2.293   9.060   3.665
12439WAT      O37558   8.777   1.125   7.150
12439WAT     H137559   8.810   1.219   7.137
12439WAT     H237560   8.690   1.113   7.102
12440WAT      O37561   4.495   9.725   2.755
12440WAT     H137562   4.571   9.790   2.749
12440WAT     H237563   4.519   9.643   2.703
12441WAT      O37564   5.620   8.957   0.793
12441WAT     H137565   5.642   8.920   0.703
12441WAT     H237566   5.702   8.958   0.850
12442WAT      O37567   0.946   5.300   2.383
12442WAT     H137568   0.933   5.204   2.407
12442WAT     H237569   1.022   5.337   2.437
12443WAT      O37570   2.799   1.733   9.216
12443WAT     H137571   2.744   1.716   9.298
12443WAT     H237572   2.741   1.773   9.145
12444WAT      O37573   4.422   1.591   8.610
12444WAT     H137574   4.327   1.573   8.586
12444WAT     H237575   4.480   1.518   8.572
12445WAT      O37576   0.237   2.187   3.306
12445WAT     H137577   0.290   2.102   3.304
12445WAT     H237578   0.167   2.180   3.377
12446WAT      O37579   4.586   8.394   4.837
12446WAT     H137580   4.663   8.378   4.774
12446WAT     H237581   4.590   8.488   4.870
12447WAT      O37582   5.778   3.450   7.909
12447WAT     H137583   5.872   3.482   7.917
12447WAT     H237584   5.726   3.479   7.989
12448WAT      O37585   5.304   8.958   5.718
12448WAT     H137586   5.400   8.975   5.740
12448WAT     H237587   5.288   8.859   5.713
12449WAT      O37588   5.272   8.501   6.119
12449WAT     H137589   5.186   8.537   6.156
12449WAT     H237590   5.349   8.532   6.176
12450WAT      O37591   8.514   9.578   0.448
12450WAT     H137592   8.545   9.667   0.414
12450WAT     H237593   8.569   9.552   0.527
12451WAT      O37594   6.429   3.130   2.183
12451WAT     H137595   6.524   3.160   2.169
12451WAT     H237596   6.375   3.154   2.102
12452WAT      O37597   7.414   9.171   9.535
12452WAT     H137598   7.511   9.179   9.558
12452WAT     H237599   7.375   9.263   9.521
12453WAT      O37600   8.538   9.017   7.395
12453WAT     H137601   8.585   9.012   7.307
12453WAT     H237602   8.594   8.973   7.466
12454WAT      O37603   2.266   5.104   4.946
12454WAT     H137604   2.226   5.195   4.961
12454WAT     H237605   2.210   5.035   4.991
12455WAT      O37606   6.136   9.833   5.879
12455WAT     H137607   6.072   9.765   5.916
12455WAT     H237608   6.086   9.918   5.862
12456WAT      O37609   2.766   3.195   1.835
12456WAT     H137610   2.782   3.284   1.879
12456WAT     H237611   2.690   3.149   1.881
12457WAT      O37612   5.430   0.649   3.876
12457WAT     H137613   5.482   0.663   3.793
12457WAT     H237614   5.389   0.557   3.875
12458WAT      O37615   9.207   2.232   4.713
12458WAT     H137616   9.222   2.262   4.807
12458WAT     H237617   9.286   2.180   4.682
12459WAT      O37618   8.619   7.630   0.629
12459WAT     H137619   8.703   7.675   0.596
12459WAT     H237620   8.605   7.546   0.578
12460WAT      O37621   9.177   8.400   2.944
12460WAT     H137622   9.166   8.364   2.851
12460WAT     H237623   9.270   8.384   2.976
12461WAT      O37624   1.197   4.075   4.385
12461WAT     H137625   1.272   4.093   4.322
12461WAT     H237626   1.118   4.041   4.335
12462WAT      O37627   7.776   7.967   2.265
12462WAT     H137628   7.775   8.002   2.171
12462WAT     H237629   7.791   7.868   2.263
12463WAT      O37630   8.291   3.807   5.736
12463WAT     H137631   8.271   3.757   5.820
12463WAT     H237632   8.293   3.743   5.659
12464WAT      O37633   6.052   3.212   0.370
12464WAT     H137634   6.030   3.283   0.304
12464WAT     H237635   6.099   3.137   0.324
12465WAT      O37636   9.441   1.083   1.176
12465WAT     H137637   9.347   1.106   1.150
12465WAT     H237638   9.482   1.027   1.104
12466WAT      O37639   4.466   4.185   8.801
12466WAT     H137640   4.534   4.125   8.758
12466WAT     H237641   4.470   4.276   8.759
12467WAT      O37642   9.772   4.847   4.580
12467WAT     H137643   9.792   4.754   4.613
12467WAT     H237644   9.813   4.913   4.643
12468WAT      O37645   7.147   0.609   3.312
12468WAT     H137646   7.054   0.574   3.324
12468WAT     H237647   7.155   0.654   3.223
12469WAT      O37648   6.701   7.135   4.151
12469WAT     H137649   6.708   7.209   4.084
12469WAT     H237650   6.632   7.158   4.219
12470WAT      O37651   4.678   3.743   1.343
12470WAT     H137652   4.589   3.786   1.351
12470WAT     H237653   4.740   3.780   1.413
12471WAT      O37654   6.909   3.006   2.174
12471WAT     H137655   6.836   3.027   2.109
12471WAT     H237656   6.896   3.059   2.257
12472WAT      O37657   1.835   5.744   6.384
12472WAT     H137658   1.898   5.668   6.369
12472WAT     H237659   1.776   5.754   6.304
12473WAT      O37660   9.214   1.103   6.948
12473WAT     H137661   9.298   1.049   6.948
12473WAT     H237662   9.163   1.085   6.864
12474WAT      O37663   5.278   4.110   4.898
12474WAT     H137664   5.337   4.136   4.974
12474WAT     H237665   5.186   4.092   4.932
12475WAT      O37666   1.620   1.732   6.457
12475WAT     H137667   1.540   1.776   6.416
12475WAT     H237668   1.683   1.704   6.385
12476WAT      O37669   4.923   4.290   4.355
12476WAT     H137670   4.895   4.385   4.369
12476WAT     H237671   4.965   4.254   4.438
12477WAT      O37672   8.368   1.682   7.006
12477WAT     H137673   8.309   1.647   6.934
12477WAT     H237674   8.455   1.713   6.967
12478WAT      O37675   5.061   0.576   2.559
12478WAT     H137676   5.002   0.641   2.512
12478WAT     H237677   5.095   0.616   2.644
12479WAT      O37678   7.692   6.869   5.055
12479WAT     H137679   7.681   6.968   5.063
12479WAT     H237680   7.785   6.843   5.081
12480WAT      O37681   2.432   1.751   1.972
12480WAT     H137682   2.474   1.776   2.059
12480WAT     H237683   2.431   1.830   1.911
12481WAT      O37684   9.264   1.893   9.432
12481WAT     H137685   9.296   1.957   9.363
12481WAT     H237686   9.180   1.849   9.401
12482WAT      O37687   2.136   7.039   0.533
12482WAT     H137688   2.091   7.059   0.621
12482WAT     H237689   2.228   7.006   0.550
12483WAT      O37690   0.522   9.531   1.650
12483WAT     H137691   0.425   9.530   1.676
12483WAT     H237692   0.578   9.506   1.729
12484WAT      O37693   0.035   1.783   3.892
12484WAT     H137694  -0.014   1.772   3.979
12484WAT     H237695   0.091   1.703   3.874
12485WAT      O37696   3.542   0.870   4.138
12485WAT     H137697   3.627   0.818   4.126
12485WAT     H237698   3.539   0.945   4.072
12486WAT      O37699   8.035   7.522   2.316
12486WAT     H137700   8.011   7.432   2.280
12486WAT     H237701   8.056   7.583   2.239
12487WAT      O37702   2.625   7.450   8.769
12487WAT     H137703   2.560   7.509   8.817
12487WAT     H237704   2.655   7.377   8.831
12488WAT      O37705   2.024   5.864   3.662
12488WAT     H137706   2.004   5.944   3.718
12488WAT     H237707   1.942   5.807   3.656
12489WAT      O37708   3.705   0.505   2.392
12489WAT     H137709   3.663   0.589   2.426
12489WAT     H237710   3.801   0.521   2.373
12490WAT      O37711   3.223   8.201   0.462
12490WAT     H137712   3.242   8.203   0.364
12490WAT     H237713   3.152   8.267   0.484
12491WAT      O37714   4.766   5.460   1.151
12491WAT     H137715   4.707   5.537   1.176
12491WAT     H237716   4.856   5.472   1.194
12492WAT      O37717   7.989   0.333   0.341
12492WAT     H137718   8.016   0.410   0.398
12492WAT     H237719   8.053   0.257   0.356
12493WAT      O37720   4.486   1.341   8.244
12493WAT     H137721   4.414   1.381   8.188
12493WAT     H237722   4.567   1.400   8.242
12494WAT      O37723   4.444   6.920   4.257
12494WAT     H137724   4.368   6.934   4.193
12494WAT     H237725   4.516   6.867   4.212
12495WAT      O37726   1.053   5.404   6.785
12495WAT     H137727   1.082   5.341   6.857
12495WAT     H237728   1.013   5.352   6.710
12496WAT      O37729   8.427   7.876   2.626
12496WAT     H137730   8.478   7.847   2.707
12496WAT     H237731   8.364   7.950   2.650
12497WAT      O37732   1.510   0.995   5.232
12497WAT     H137733   1.577   0.928   5.201
12497WAT     H237734   1.550   1.052   5.304
12498WAT      O37735   5.741   1.621   2.159
12498WAT     H137736   5.647   1.617   2.125
12498WAT     H237737   5.749   1.696   2.226
12499WAT      O37738   8.470   0.634   5.167
12499WAT     H137739   8.381   0.674   5.145
12499WAT     H237740   8.540   0.705   5.169
12500WAT      O37741   2.233   9.712   2.706
12500WAT     H137742   2.185   9.681   2.787
12500WAT     H237743   2.230   9.641   2.635
12501WAT      O37744   1.893   3.345   9.541
12501WAT     H137745   1.955   3.421   9.520
12501WAT     H237746   1.800   3.369   9.513
12502WAT      O37747   5.456   7.857   6.205
12502WAT     H137748   5.482   7.928   6.140
12502WAT     H237749   5.368   7.880   6.247
12503WAT      O37750   2.241   1.410   6.558
12503WAT     H137751   2.258   1.430   6.655
12503WAT     H237752   2.320   1.363   6.520
12504WAT      O37753   4.607   4.347   3.565
12504WAT     H137754   4.597   4.370   3.468
12504WAT     H237755   4.603   4.431   3.620
12505WAT      O37756   9.705   3.845   2.123
12505WAT     H137757   9.770   3.791   2.176
12505WAT     H237758   9.722   3.831   2.025
12506WAT      O37759   3.378   7.457   9.015
12506WAT     H137760   3.313   7.382   9.025
12506WAT     H237761   3.439   7.458   9.094
12507WAT      O37762   2.827   6.557   8.969
12507WAT     H137763   2.866   6.518   9.052
12507WAT     H237764   2.901   6.577   8.904
12508WAT      O37765   6.791   0.323   4.060
12508WAT     H137766   6.738   0.408   4.059
12508WAT     H237767   6.751   0.259   4.126
12509WAT      O37768   6.725   3.076   3.063
12509WAT     H137769   6.759   3.151   3.120
12509WAT     H237770   6.801   3.017   3.037
12510WAT      O37771   6.863   2.628   7.056
12510WAT     H137772   6.821   2.639   7.146
12510WAT     H237773   6.958   2.658   7.059
12511WAT      O37774   6.403   0.495   9.207
12511WAT     H137775   6.379   0.484   9.111
12511WAT     H237776   6.360   0.579   9.242
12512WAT      O37777   6.647   5.673   9.150
12512WAT     H137778   6.709   5.614   9.098
12512WAT     H237779   6.675   5.675   9.246
12513WAT      O37780   8.012   1.005   6.318
12513WAT     H137781   8.019   0.948   6.237
12513WAT     H237782   8.100   1.050   6.335
12514WAT      O37783   7.351   3.081   2.562
12514WAT     H137784   7.341   2.991   2.520
12514WAT     H237785   7.335   3.073   2.661
12515WAT      O37786   5.425   4.695   4.591
12515WAT     H137787   5.421   4.641   4.675
12515WAT     H237788   5.473   4.644   4.520
12516WAT      O37789   5.870   3.095   7.939
12516WAT     H137790   5.933   3.019   7.952
12516WAT     H237791   5.919   3.181   7.947
12517WAT      O37792   2.229   8.506   9.049
12517WAT     H137793   2.206   8.560   9.129
12517WAT     H237794   2.247   8.411   9.076
12518WAT      O37795   7.003   2.811   5.386
12518WAT     H137796   6.957   2.856   5.462
12518WAT     H237797   6.950   2.732   5.356
12519WAT      O37798   1.456   5.582   8.154
12519WAT     H137799   1.552   5.564   8.131
12519WAT     H237800   1.401   5.582   8.071
12520WAT      O37801   7.454   6.319   4.614
12520WAT     H137802   7.455   6.263   4.531
12520WAT     H237803   7.370   6.301   4.665
12521WAT      O37804   6.021   7.549   7.242
12521WAT     H137805   5.943   7.560   7.181
12521WAT     H237806   6.090   7.492   7.198
12522WAT      O37807   5.550   8.785   1.545
12522WAT     H137808   5.530   8.758   1.451
12522WAT     H237809   5.552   8.885   1.551
12523WAT      O37810   1.008   8.121   8.832
12523WAT     H137811   1.035   8.046   8.892
12523WAT     H237812   1.085   8.145   8.773
12524WAT      O37813   2.024   7.039   4.663
12524WAT     H137814   2.096   7.011   4.599
12524WAT     H237815   1.938   6.998   4.635
12525WAT      O37816   1.152   1.819   2.766
12525WAT     H137817   1.106   1.906   2.744
12525WAT     H237818   1.216   1.833   2.841
12526WAT      O37819   2.894   1.446   2.474
12526WAT     H137820   2.918   1.480   2.383
12526WAT     H237821   2.961   1.378   2.504
12527WAT      O37822   1.799   0.728   7.714
12527WAT     H137823   1.706   0.762   7.700
12527WAT     H237824   1.853   0.741   7.631
12528WAT      O37825   8.477   7.370   5.658
12528WAT     H137826   8.416   7.438   5.697
12528WAT     H237827   8.427   7.285   5.643
12529WAT      O37828   6.895   9.383   6.244
12529WAT     H137829   6.811   9.365   6.296
12529WAT     H237830   6.968   9.323   6.276
12530WAT      O37831   5.173   4.082   0.155
12530WAT     H137832   5.258   4.068   0.206
12530WAT     H237833   5.194   4.127   0.068
12531WAT      O37834   5.272   3.292   8.174
12531WAT     H137835   5.250   3.234   8.095
12531WAT     H237836   5.313   3.235   8.246
12532WAT      O37837   4.773   1.890   9.319
12532WAT     H137838   4.847   1.867   9.255
12532WAT     H237839   4.703   1.819   9.316
12533WAT      O37840   2.483   5.281   9.560
12533WAT     H137841   2.583   5.280   9.555
12533WAT     H237842   2.448   5.348   9.494
12534WAT      O37843   2.022   8.368   1.694
12534WAT     H137844   2.088   8.303   1.658
12534WAT     H237845   1.939   8.366   1.638
12535WAT      O37846   6.624   9.013   7.138
12535WAT     H137847   6.636   9.000   7.039
12535WAT     H237848   6.667   8.937   7.187
12536WAT      O37849   1.397   6.485   1.383
12536WAT     H137850   1.384   6.528   1.472
12536WAT     H237851   1.484   6.434   1.383
12537WAT      O37852   1.244   3.109   5.541
12537WAT     H137853   1.149   3.111   5.574
12537WAT     H237854   1.294   3.037   5.589
12538WAT      O37855   1.267   0.021   8.651
12538WAT     H137856   1.249   0.107   8.603
12538WAT     H237857   1.344  -0.026   8.607
12539WAT      O37858   9.256   8.489   4.221
12539WAT     H137859   9.285   8.573   4.265
12539WAT     H237860   9.167   8.502   4.178
12540WAT      O37861   2.426   0.265   2.128
12540WAT     H137862   2.488   0.252   2.051
12540WAT     H237863   2.475   0.248   2.214
12541WAT      O37864   5.468   3.701   7.457
12541WAT     H137865   5.393   3.689   7.392
12541WAT     H237866   5.460   3.633   7.530
12542WAT      O37867   9.020   8.650   9.153
12542WAT     H137868   8.933   8.695   9.134
12542WAT     H237869   9.005   8.553   9.171
12543WAT      O37870   1.783   3.065   5.490
12543WAT     H137871   1.782   3.088   5.393
12543WAT     H237872   1.872   3.087   5.529
12544WAT      O37873   2.551   0.578   5.211
12544WAT     H137874   2.571   0.610   5.119
12544WAT     H237875   2.527   0.656   5.269
12545WAT      O37876   6.489   4.507   6.182
12545WAT     H137877   6.471   4.508   6.084
12545WAT     H237878   6.430   4.440   6.226
12546WAT      O37879   9.622   2.475   5.702
12546WAT     H137880   9.572   2.527   5.633
12546WAT     H237881   9.700   2.430   5.659
12547WAT      O37882   0.135   2.679   1.661
12547WAT     H137883   0.132   2.589   1.705
12547WAT     H237884   0.106   2.670   1.565
12548WAT      O37885   8.845   6.421   7.545
12548WAT     H137886   8.821   6.342   7.489
12548WAT     H237887   8.797   6.417   7.633
12549WAT      O37888   1.635   7.796   7.688
12549WAT     H137889   1.587   7.751   7.612
12549WAT     H237890   1.675   7.882   7.656
12550WAT      O37891   3.204   9.385   8.905
12550WAT     H137892   3.155   9.303   8.876
12550WAT     H237893   3.167   9.416   8.993
12551WAT      O37894   6.391   8.043   3.610
12551WAT     H137895   6.318   7.993   3.566
12551WAT     H237896   6.374   8.048   3.709
12552WAT      O37897   6.779   8.485   1.525
12552WAT     H137898   6.827   8.438   1.599
12552WAT     H237899   6.844   8.506   1.452
12553WAT      O37900   4.236   6.038   5.961
12553WAT     H137901   4.199   6.058   6.052
12553WAT     H237902   4.327   5.997   5.970
12554WAT      O37903   3.917   7.565   5.870
12554WAT     H137904   3.913   7.572   5.970
12554WAT     H237905   3.874   7.645   5.829
12555WAT      O37906   8.654   5.655   1.176
12555WAT     H137907   8.645   5.597   1.257
12555WAT     H237908   8.618   5.746   1.196
12556WAT      O37909   3.715   7.894   9.415
12556WAT     H137910   3.762   7.823   9.468
12556WAT     H237911   3.699   7.974   9.473
12557WAT      O37912   5.247   4.251   2.411
12557WAT     H137913   5.325   4.237   2.351
12557WAT     H237914   5.270   4.220   2.504
12558WAT      O37915   6.857   7.655   4.317
12558WAT     H137916   6.872   7.559   4.340
12558WAT     H237917   6.945   7.703   4.313
12559WAT      O37918   7.020   4.484   0.786
12559WAT     H137919   7.103   4.512   0.835
12559WAT     H237920   6.940   4.503   0.843
12560WAT      O37921   6.779   5.573   1.741
12560WAT     H137922   6.832   5.491   1.763
12560WAT     H237923   6.823   5.653   1.782
12561WAT      O37924   6.151   4.312   5.407
12561WAT     H137925   6.088   4.354   5.342
12561WAT     H237926   6.104   4.296   5.493
12562WAT      O37927   6.897   0.900   2.441
12562WAT     H137928   6.973   0.846   2.406
12562WAT     H237929   6.923   0.942   2.528
12563WAT      O37930   6.662   2.375   3.816
12563WAT     H137931   6.758   2.403   3.818
12563WAT     H237932   6.638   2.344   3.724
12564WAT      O37933   7.064   3.426   0.347
12564WAT     H137934   7.135   3.359   0.369
12564WAT     H237935   6.974   3.385   0.362
12565WAT      O37936   1.510   1.739   7.084
12565WAT     H137937   1.439   1.689   7.134
12565WAT     H237938   1.468   1.787   7.006
12566WAT      O37939   9.337   3.364   2.806
12566WAT     H137940   9.294   3.448   2.840
12566WAT     H237941   9.436   3.379   2.797
12567WAT      O37942   6.540   9.445   2.046
12567WAT     H137943   6.468   9.421   1.981
12567WAT     H237944   6.599   9.515   2.006
12568WAT      O37945   5.854   4.500   8.607
12568WAT     H137946   5.875   4.454   8.694
12568WAT     H237947   5.806   4.585   8.625
12569WAT      O37948   9.217   6.554   4.087
12569WAT     H137949   9.183   6.591   4.000
12569WAT     H237950   9.316   6.567   4.091
12570WAT      O37951   5.389   3.926   2.877
12570WAT     H137952   5.431   3.917   2.786
12570WAT     H237953   5.290   3.910   2.869
12571WAT      O37954   1.739   9.757   3.961
12571WAT     H137955   1.788   9.741   3.875
12571WAT     H237956   1.785   9.830   4.013
12572WAT      O37957   8.367   6.076   1.608
12572WAT     H137958   8.279   6.104   1.648
12572WAT     H237959   8.422   6.157   1.590
12573WAT      O37960   8.967   7.138   6.183
12573WAT     H137961   8.991   7.041   6.184
12573WAT     H237962   9.014   7.184   6.108
12574WAT      O37963   1.170   3.523   8.960
12574WAT     H137964   1.135   3.521   8.866
12574WAT     H237965   1.127   3.449   9.012
12575WAT      O37966   5.729   3.338   8.231
12575WAT     H137967   5.673   3.420   8.219
12575WAT     H237968   5.677   3.257   8.202
12576WAT      O37969   8.031   8.508   6.976
12576WAT     H137970   8.024   8.419   6.931
12576WAT     H237971   7.982   8.576   6.921
12577WAT      O37972   5.849   3.906   1.541
12577WAT     H137973   5.924   3.938   1.599
12577WAT     H237974   5.762   3.930   1.584
12578WAT      O37975   2.794   4.081   6.570
12578WAT     H137976   2.887   4.046   6.570
12578WAT     H237977   2.758   4.079   6.663
12579WAT      O37978   4.736   7.883   9.316
12579WAT     H137979   4.824   7.879   9.269
12579WAT     H237980   4.703   7.791   9.333
12580WAT      O37981   2.840   1.932   6.255
12580WAT     H137982   2.936   1.957   6.242
12580WAT     H237983   2.791   1.942   6.169
12581WAT      O37984   4.886   7.000   1.156
12581WAT     H137985   4.830   6.920   1.134
12581WAT     H237986   4.832   7.083   1.145
12582WAT      O37987   1.191   7.277   6.826
12582WAT     H137988   1.260   7.262   6.897
12582WAT     H237989   1.185   7.195   6.768
12583WAT      O37990   3.228   5.351   4.951
12583WAT     H137991   3.236   5.354   5.051
12583WAT     H237992   3.313   5.315   4.913
12584WAT      O37993   5.592   5.721   3.634
12584WAT     H137994   5.634   5.633   3.656
12584WAT     H237995   5.551   5.717   3.544
12585WAT      O37996   4.831   9.567   4.178
12585WAT     H137997   4.837   9.502   4.254
12585WAT     H237998   4.804   9.656   4.213
12586WAT      O37999   5.279   8.727   6.579
12586WAT     H138000   5.207   8.797   6.579
12586WAT     H238001   5.288   8.688   6.671
12587WAT      O38002   8.240   8.786   3.840
12587WAT     H138003   8.236   8.847   3.761
12587WAT     H238004   8.209   8.835   3.921
12588WAT      O38005   0.508   6.864   1.700
12588WAT     H138006   0.528   6.945   1.645
12588WAT     H238007   0.507   6.783   1.641
12589WAT      O38008   2.088   4.306   8.987
12589WAT     H138009   2.037   4.229   9.027
12589WAT     H238010   2.111   4.285   8.892
12590WAT      O38011   5.771   1.017   4.910
12590WAT     H138012   5.814   0.942   4.960
12590WAT     H238013   5.712   1.069   4.973
12591WAT      O38014   6.545   5.668   0.413
12591WAT     H138015   6.569   5.761   0.439
12591WAT     H238016   6.465   5.637   0.464
12592WAT      O38017   8.745   5.853   4.859
12592WAT     H138018   8.647   5.858   4.841
12592WAT     H238019   8.794   5.914   4.796
12593WAT      O38020   5.642   9.323   4.868
12593WAT     H138021   5.680   9.381   4.796
12593WAT     H238022   5.544   9.343   4.877
12594WAT      O38023   3.774   5.134   8.528
12594WAT     H138024   3.775   5.077   8.610
12594WAT     H238025   3.769   5.230   8.555
12595WAT      O38026   2.161   5.232   3.592
12595WAT     H138027   2.218   5.283   3.656
12595WAT     H238028   2.168   5.273   3.501
12596WAT      O38029   8.605   7.925   8.173
12596WAT     H138030   8.521   7.942   8.120
12596WAT     H238031   8.600   7.974   8.260
12597WAT      O38032   5.625   5.240   8.306
12597WAT     H138033   5.608   5.166   8.371
12597WAT     H238034   5.711   5.285   8.328
12598WAT      O38035   0.704   9.230   1.692
12598WAT     H138036   0.792   9.269   1.664
12598WAT     H238037   0.686   9.255   1.787
12599WAT      O38038   6.432   8.140   0.483
12599WAT     H138039   6.435   8.080   0.564
12599WAT     H238040   6.436   8.085   0.400
12600WAT      O38041   1.580   7.698   3.451
12600WAT     H138042   1.659   7.677   3.509
12600WAT     H238043   1.525   7.769   3.494
12601WAT      O38044   6.197   7.354   0.178
12601WAT     H138045   6.137   7.433   0.192
12601WAT     H238046   6.246   7.364   0.092
12602WAT      O38047   3.001   8.141   2.299
12602WAT     H138048   3.051   8.188   2.227
12602WAT     H238049   3.065   8.104   2.366
12603WAT      O38050   2.674   6.032   1.746
12603WAT     H138051   2.606   5.959   1.757
12603WAT     H238052   2.721   6.046   1.833
12604WAT      O38053   3.422   7.556   7.861
12604WAT     H138054   3.454   7.539   7.954
12604WAT     H238055   3.472   7.499   7.797
12605WAT      O38056   2.153   8.567   2.112
12605WAT     H138057   2.163   8.484   2.169
12605WAT     H238058   2.096   8.546   2.033
12606WAT      O38059   5.211   5.828   5.315
12606WAT     H138060   5.188   5.731   5.323
12606WAT     H238061   5.292   5.847   5.369
12607WAT      O38062   4.943   4.910   6.850
12607WAT     H138063   5.000   4.930   6.771
12607WAT     H238064   4.995   4.926   6.934
12608WAT      O38065   1.705   3.887   0.831
12608WAT     H138066   1.608   3.906   0.846
12608WAT     H238067   1.753   3.973   0.809
12609WAT      O38068   1.113   3.885   3.920
12609WAT     H138069   1.038   3.947   3.899
12609WAT     H238070   1.080   3.810   3.977
12610WAT      O38071   2.248   2.936   9.244
12610WAT     H138072   2.273   2.845   9.212
12610WAT     H238073   2.250   2.939   9.344
12611WAT      O38074   5.734   4.115   3.482
12611WAT     H138075   5.794   4.194   3.468
12611WAT     H238076   5.771   4.036   3.434
12612WAT      O38077   0.817   1.807   3.376
12612WAT     H138078   0.749   1.769   3.438
12612WAT     H238079   0.903   1.823   3.426
12613WAT      O38080   0.657   7.495   8.053
12613WAT     H138081   0.752   7.476   8.077
12613WAT     H238082   0.597   7.457   8.122
12614WAT      O38083   8.061   0.422   9.201
12614WAT     H138084   8.113   0.472   9.132
12614WAT     H238085   8.117   0.409   9.282
12615WAT      O38086   4.937   6.769   5.899
12615WAT     H138087   5.010   6.797   5.837
12615WAT     H238088   4.963   6.788   5.993
12616WAT      O38089   4.285   1.692   9.751
12616WAT     H138090   4.247   1.706   9.660
12616WAT     H238091   4.369   1.638   9.744
12617WAT      O38092   2.902   4.890   1.401
12617WAT     H138093   2.978   4.891   1.465
12617WAT     H238094   2.919   4.823   1.329
12618WAT      O38095   2.023   2.085   2.215
12618WAT     H138096   2.071   2.138   2.146
12618WAT     H238097   2.088   2.032   2.269
12619WAT      O38098   4.875   1.059   3.954
12619WAT     H138099   4.872   0.961   3.936
12619WAT     H238100   4.880   1.076   4.052
12620WAT      O38101   5.774   2.962   9.253
12620WAT     H138102   5.843   2.927   9.188
12620WAT     H238103   5.683   2.941   9.219
12621WAT      O38104   3.645   2.030   3.387
12621WAT     H138105   3.621   2.002   3.480
12621WAT     H238106   3.680   1.950   3.337
12622WAT      O38107   2.686   8.155   2.818
12622WAT     H138108   2.715   8.105   2.900
12622WAT     H238109   2.588   8.173   2.822
12623WAT      O38110   3.607   0.415   4.561
12623WAT     H138111   3.532   0.380   4.505
12623WAT     H238112   3.571   0.483   4.626
12624WAT      O38113   5.153   5.141   4.016
12624WAT     H138114   5.207   5.165   4.097
12624WAT     H238115   5.082   5.075   4.042
12625WAT      O38116   1.182   4.160   7.241
12625WAT     H138117   1.279   4.172   7.222
12625WAT     H238118   1.129   4.225   7.186
12626WAT      O38119   0.836   6.758   7.437
12626WAT     H138120   0.797   6.766   7.345
12626WAT     H238121   0.887   6.841   7.458
12627WAT      O38122   5.536   9.207   6.312
12627WAT     H138123   5.617   9.148   6.307
12627WAT     H238124   5.564   9.303   6.311
12628WAT      O38125   1.378   7.975   8.366
12628WAT     H138126   1.392   7.887   8.411
12628WAT     H238127   1.461   8.001   8.316
12629WAT      O38128   4.179   7.544   1.251
12629WAT     H138129   4.096   7.503   1.288
12629WAT     H238130   4.228   7.591   1.324
12630WAT      O38131   5.467   0.334   7.887
12630WAT     H138132   5.370   0.306   7.891
12630WAT     H238133   5.508   0.300   7.803
12631WAT      O38134   7.594   3.742   3.110
12631WAT     H138135   7.615   3.798   3.190
12631WAT     H238136   7.510   3.691   3.127
12632WAT      O38137   3.247   9.210   0.632
12632WAT     H138138   3.219   9.120   0.598
12632WAT     H238139   3.339   9.230   0.600
12633WAT      O38140   3.398   4.535   5.998
12633WAT     H138141   3.383   4.559   5.902
12633WAT     H238142   3.494   4.553   6.022
12634WAT      O38143   4.798   7.717   8.470
12634WAT     H138144   4.716   7.690   8.419
12634WAT     H238145   4.878   7.678   8.426
12635WAT      O38146   4.174   2.616   8.201
12635WAT     H138147   4.154   2.673   8.121
12635WAT     H238148   4.093   2.563   8.226
12636WAT      O38149   1.110   0.496   4.079
12636WAT     H138150   1.089   0.401   4.099
12636WAT     H238151   1.094   0.552   4.160
12637WAT      O38152   0.069   7.074   0.866
12637WAT     H138153   0.116   7.123   0.938
12637WAT     H238154  -0.030   7.082   0.879
12638WAT      O38155   1.051   1.292   2.960
12638WAT     H138156   1.004   1.379   2.975
12638WAT     H238157   0.984   1.222   2.938
12639WAT      O38158   6.133   6.911   5.207
12639WAT     H138159   6.168   6.842   5.271
12639WAT     H238160   6.166   6.891   5.115
12640WAT      O38161   5.778   8.988   5.609
12640WAT     H138162   5.764   9.012   5.513
12640WAT     H238163   5.827   8.900   5.614
12641WAT      O38164   0.380   7.433   8.956
12641WAT     H138165   0.383   7.402   8.861
12641WAT     H238166   0.471   7.424   8.997
12642WAT      O38167   6.969   3.503   5.939
12642WAT     H138168   7.014   3.453   5.865
12642WAT     H238169   6.945   3.595   5.907
12643WAT      O38170   8.398   1.819   3.770
12643WAT     H138171   8.397   1.902   3.825
12643WAT     H238172   8.376   1.842   3.675
12644WAT      O38173   0.236   2.009   7.465
12644WAT     H138174   0.238   2.074   7.541
12644WAT     H238175   0.324   1.963   7.457
12645WAT      O38176   3.833   1.037   4.335
12645WAT     H138177   3.880   1.047   4.423
12645WAT     H238178   3.735   1.051   4.348
12646WAT      O38179   8.578   6.582   5.686
12646WAT     H138180   8.559   6.495   5.734
12646WAT     H238181   8.583   6.656   5.753
12647WAT      O38182   0.733   9.260   3.809
12647WAT     H138183   0.666   9.187   3.826
12647WAT     H238184   0.735   9.281   3.711
12648WAT      O38185   1.712   9.013   6.727
12648WAT     H138186   1.757   9.100   6.708
12648WAT     H238187   1.742   8.945   6.660
12649WAT      O38188   8.686   2.712   4.541
12649WAT     H138189   8.647   2.621   4.526
12649WAT     H238190   8.774   2.718   4.494
12650WAT      O38191   5.941   5.774   9.680
12650WAT     H138192   5.919   5.827   9.761
12650WAT     H238193   6.020   5.814   9.634
12651WAT      O38194   3.542   0.444   9.699
12651WAT     H138195   3.538   0.544   9.692
12651WAT     H238196   3.582   0.419   9.788
12652WAT      O38197   1.671   9.469   3.558
12652WAT     H138198   1.589   9.481   3.501
12652WAT     H238199   1.697   9.373   3.559
12653WAT      O38200   6.175   0.326   7.489
12653WAT     H138201   6.140   0.399   7.429
12653WAT     H238202   6.113   0.314   7.566
12654WAT      O38203   9.130   4.085   6.121
12654WAT     H138204   9.141   4.036   6.208
12654WAT     H238205   9.034   4.109   6.108
12655WAT      O38206   6.097   5.599   1.790
12655WAT     H138207   6.035   5.570   1.863
12655WAT     H238208   6.044   5.614   1.706
12656WAT      O38209   3.741   8.080   0.757
12656WAT     H138210   3.645   8.098   0.780
12656WAT     H238211   3.745   8.025   0.674
12657WAT      O38212   1.106   1.780   9.643
12657WAT     H138213   1.109   1.720   9.563
12657WAT     H238214   1.086   1.725   9.725
12658WAT      O38215   6.304   4.019   7.436
12658WAT     H138216   6.218   3.969   7.450
12658WAT     H238217   6.370   3.959   7.390
12659WAT      O38218   2.099   4.605   0.905
12659WAT     H138219   2.155   4.658   0.841
12659WAT     H238220   2.135   4.616   0.998
12660WAT      O38221   8.069   8.170   1.506
12660WAT     H138222   8.081   8.092   1.443
12660WAT     H238223   7.972   8.188   1.518
12661WAT      O38224   7.189   3.292   7.172
12661WAT     H138225   7.252   3.215   7.165
12661WAT     H238226   7.234   3.367   7.222
12662WAT      O38227   3.271   1.445   8.199
12662WAT     H138228   3.254   1.522   8.137
12662WAT     H238229   3.340   1.385   8.160
12663WAT      O38230   7.747   9.128   4.441
12663WAT     H138231   7.679   9.158   4.508
12663WAT     H238232   7.700   9.097   4.358
12664WAT      O38233   3.208   9.217   1.498
12664WAT     H138234   3.218   9.315   1.516
12664WAT     H238235   3.298   9.177   1.483
12665WAT      O38236   8.741   5.857   8.936
12665WAT     H138237   8.699   5.886   9.022
12665WAT     H238238   8.826   5.808   8.954
12666WAT      O38239   0.204   7.752   5.349
12666WAT     H138240   0.194   7.841   5.393
12666WAT     H238241   0.285   7.705   5.385
12667WAT      O38242   1.587   3.788   4.540
12667WAT     H138243   1.628   3.818   4.454
12667WAT     H238244   1.624   3.842   4.616
12668WAT      O38245   7.189   2.362   5.289
12668WAT     H138246   7.206   2.445   5.235
12668WAT     H238247   7.136   2.298   5.234
12669WAT      O38248   2.833   2.503   1.652
12669WAT     H138249   2.742   2.506   1.692
12669WAT     H238250   2.882   2.588   1.673
12670WAT      O38251   5.425   2.921   8.396
12670WAT     H138252   5.413   2.894   8.491
12670WAT     H238253   5.339   2.958   8.360
12671WAT      O38254   3.552   4.234   0.818
12671WAT     H138255   3.542   4.139   0.847
12671WAT     H238256   3.484   4.290   0.866
12672WAT      O38257   7.512   4.888   0.448
12672WAT     H138258   7.462   4.919   0.529
12672WAT     H238259   7.537   4.792   0.459
12673WAT      O38260   3.202   9.253   6.386
12673WAT     H138261   3.255   9.173   6.358
12673WAT     H238262   3.177   9.306   6.305
12674WAT      O38263   8.770   5.097   2.675
12674WAT     H138264   8.856   5.118   2.721
12674WAT     H238265   8.783   5.019   2.613
12675WAT      O38266   3.542   1.759   4.356
12675WAT     H138267   3.485   1.700   4.299
12675WAT     H238268   3.484   1.815   4.414
12676WAT      O38269   7.466   3.067   9.615
12676WAT     H138270   7.553   3.023   9.594
12676WAT     H238271   7.466   3.160   9.578
12677WAT      O38272   9.109   1.738   3.409
12677WAT     H138273   9.051   1.802   3.460
12677WAT     H238274   9.191   1.785   3.376
12678WAT      O38275   3.829   6.761   0.628
12678WAT     H138276   3.827   6.846   0.681
12678WAT     H238277   3.794   6.686   0.684
12679WAT      O38278   0.563   1.626   7.416
12679WAT     H138279   0.661   1.614   7.428
12679WAT     H238280   0.519   1.537   7.406
12680WAT      O38281   0.544   8.214   4.417
12680WAT     H138282   0.575   8.222   4.322
12680WAT     H238283   0.465   8.273   4.433
12681WAT      O38284   4.305   0.442   1.413
12681WAT     H138285   4.369   0.481   1.347
12681WAT     H238286   4.333   0.469   1.505
12682WAT      O38287   1.992   3.969   1.067
12682WAT     H138288   1.940   3.941   0.986
12682WAT     H238289   1.928   4.001   1.137
12683WAT      O38290   0.116   2.236   6.695
12683WAT     H138291   0.024   2.239   6.734
12683WAT     H238292   0.122   2.159   6.632
12684WAT      O38293   5.057   9.511   6.468
12684WAT     H138294   5.092   9.600   6.497
12684WAT     H238295   5.119   9.439   6.500
12685WAT      O38296   9.691   9.475   9.027
12685WAT     H138297   9.670   9.492   8.930
12685WAT     H238298   9.695   9.562   9.076
12686WAT      O38299   9.746   2.093   9.634
12686WAT     H138300   9.756   2.183   9.592
12686WAT     H238301   9.712   2.028   9.566
12687WAT      O38302   8.875   3.361   7.163
12687WAT     H138303   8.792   3.351   7.109
12687WAT     H238304   8.888   3.457   7.187
12688WAT      O38305   9.844   6.272   2.231
12688WAT     H138306   9.883   6.315   2.313
12688WAT     H238307   9.913   6.273   2.158
12689WAT      O38308   9.651   3.033   5.057
12689WAT     H138309   9.720   3.095   5.019
12689WAT     H238310   9.683   2.996   5.144
12690WAT      O38311   1.034   1.489   5.840
12690WAT     H138312   1.024   1.581   5.803
12690WAT     H238313   1.045   1.424   5.766
12691WAT      O38314   3.109   7.615   7.481
12691WAT     H138315   3.057   7.616   7.566
12691WAT     H238316   3.202   7.647   7.498
12692WAT      O38317   7.313   5.924   2.569
12692WAT     H138318   7.269   6.008   2.537
12692WAT     H238319   7.343   5.936   2.663
12693WAT      O38320   6.368   8.183   1.286
12693WAT     H138321   6.440   8.178   1.217
12693WAT     H238322   6.383   8.263   1.344
12694WAT      O38323   9.821   8.371   8.402
12694WAT     H138324   9.753   8.298   8.397
12694WAT     H238325   9.894   8.344   8.465
12695WAT      O38326   8.513   0.061   3.235
12695WAT     H138327   8.587   0.114   3.194
12695WAT     H238328   8.493  -0.019   3.179
12696WAT      O38329   3.780   7.608   5.301
12696WAT     H138330   3.788   7.511   5.325
12696WAT     H238331   3.848   7.660   5.353
12697WAT      O38332   5.790   8.664   3.404
12697WAT     H138333   5.774   8.670   3.306
12697WAT     H238334   5.848   8.741   3.433
12698WAT      O38335   6.815   3.135   0.164
12698WAT     H138336   6.792   3.038   0.173
12698WAT     H238337   6.845   3.153   0.071
12699WAT      O38338   4.801   0.760   4.572
12699WAT     H138339   4.839   0.824   4.504
12699WAT     H238340   4.866   0.685   4.587
12700WAT      O38341   6.650   2.870   5.306
12700WAT     H138342   6.704   2.870   5.222
12700WAT     H238343   6.703   2.912   5.380
12701WAT      O38344   9.553   3.479   1.096
12701WAT     H138345   9.486   3.544   1.132
12701WAT     H238346   9.560   3.401   1.159
12702WAT      O38347   6.865   0.546   3.816
12702WAT     H138348   6.858   0.450   3.790
12702WAT     H238349   6.937   0.557   3.884
12703WAT      O38350   0.027   8.613   9.676
12703WAT     H138351   0.124   8.610   9.699
12703WAT     H238352   0.012   8.682   9.605
12704WAT      O38353   5.140   3.406   9.803
12704WAT     H138354   5.065   3.378   9.743
12704WAT     H238355   5.162   3.502   9.786
12705WAT      O38356   8.354   9.582   7.560
12705WAT     H138357   8.426   9.527   7.604
12705WAT     H238358   8.387   9.676   7.548
12706WAT      O38359   4.884   8.275   1.422
12706WAT     H138360   4.849   8.297   1.332
12706WAT     H238361   4.975   8.315   1.433
12707WAT      O38362   4.696   1.588   5.566
12707WAT     H138363   4.692   1.493   5.537
12707WAT     H238364   4.725   1.593   5.662
12708WAT      O38365   4.799   0.457   7.581
12708WAT     H138366   4.837   0.549   7.571
12708WAT     H238367   4.733   0.440   7.508
12709WAT      O38368   9.380   5.585   9.436
12709WAT     H138369   9.401   5.602   9.532
12709WAT     H238370   9.301   5.641   9.408
12710WAT      O38371   6.991   3.956   8.462
12710WAT     H138372   7.011   3.858   8.453
12710WAT     H238373   7.032   4.005   8.385
12711WAT      O38374   3.324   9.277   5.929
12711WAT     H138375   3.341   9.314   5.837
12711WAT     H238376   3.291   9.351   5.988
12712WAT      O38377   1.192   7.069   6.648
12712WAT     H138378   1.166   6.973   6.658
12712WAT     H238379   1.179   7.098   6.553
12713WAT      O38380   8.746   6.812   9.391
12713WAT     H138381   8.682   6.889   9.396
12713WAT     H238382   8.731   6.750   9.468
12714WAT      O38383   6.923   2.267   6.758
12714WAT     H138384   6.908   2.341   6.693
12714WAT     H238385   7.006   2.285   6.811
12715WAT      O38386   2.577   4.700   7.109
12715WAT     H138387   2.531   4.738   7.190
12715WAT     H238388   2.655   4.645   7.138
12716WAT      O38389   0.827   4.838   2.886
12716WAT     H138390   0.859   4.744   2.874
12716WAT     H238391   0.735   4.837   2.926
12717WAT      O38392   9.685   1.401   6.543
12717WAT     H138393   9.606   1.455   6.572
12717WAT     H238394   9.662   1.350   6.460
12718WAT      O38395   6.637   4.326   5.028
12718WAT     H138396   6.704   4.385   5.072
12718WAT     H238397   6.645   4.334   4.929
12719WAT      O38398   9.513   1.278   0.561
12719WAT     H138399   9.500   1.343   0.487
12719WAT     H238400   9.601   1.296   0.606
12720WAT      O38401   2.991   9.031   9.019
12720WAT     H138402   3.003   8.935   8.994
12720WAT     H238403   2.940   9.037   9.105
12721WAT      O38404   2.362   7.744   9.572
12721WAT     H138405   2.306   7.708   9.646
12721WAT     H238406   2.417   7.669   9.532
12722WAT      O38407   9.082   3.402   0.556
12722WAT     H138408   9.081   3.418   0.457
12722WAT     H238409   9.081   3.490   0.603
12723WAT      O38410   5.884   5.866   8.179
12723WAT     H138411   5.823   5.828   8.249
12723WAT     H238412   5.977   5.867   8.214
12724WAT      O38413   3.710   8.793   6.338
12724WAT     H138414   3.618   8.790   6.299
12724WAT     H238415   3.722   8.717   6.401
12725WAT      O38416   9.606   3.423   3.373
12725WAT     H138417   9.625   3.471   3.287
12725WAT     H238418   9.515   3.382   3.369
12726WAT      O38419   4.813   1.930   4.048
12726WAT     H138420   4.879   1.941   3.974
12726WAT     H238421   4.743   1.863   4.021
12727WAT      O38422   5.218   5.522   1.939
12727WAT     H138423   5.314   5.506   1.963
12727WAT     H238424   5.160   5.463   1.994
12728WAT      O38425   6.475   2.667   7.167
12728WAT     H138426   6.533   2.601   7.121
12728WAT     H238427   6.498   2.759   7.134
12729WAT      O38428   3.497   1.589   9.379
12729WAT     H138429   3.590   1.603   9.411
12729WAT     H238430   3.440   1.555   9.454
12730WAT      O38431   8.521   1.255   6.643
12730WAT     H138432   8.468   1.315   6.584
12730WAT     H238433   8.609   1.299   6.665
12731WAT      O38434   9.060   0.657   3.504
12731WAT     H138435   9.118   0.622   3.578
12731WAT     H238436   9.103   0.637   3.416
12732WAT      O38437   2.311   7.683   1.422
12732WAT     H138438   2.364   7.755   1.466
12732WAT     H238439   2.326   7.596   1.469
12733WAT      O38440   4.690   4.738   7.860
12733WAT     H138441   4.725   4.711   7.950
12733WAT     H238442   4.594   4.764   7.868
12734WAT      O38443   6.208   7.101   8.394
12734WAT     H138444   6.282   7.044   8.429
12734WAT     H238445   6.156   7.049   8.326
12735WAT      O38446   0.399   7.443   5.899
12735WAT     H138447   0.446   7.420   5.985
12735WAT     H238448   0.454   7.506   5.846
12736WAT      O38449   6.912   7.140   1.211
12736WAT     H138450   6.814   7.157   1.217
12736WAT     H238451   6.929   7.042   1.209
12737WAT      O38452   3.027   0.592   9.153
12737WAT     H138453   3.094   0.569   9.082
12737WAT     H238454   2.936   0.559   9.124
12738WAT      O38455   2.518   7.004   2.317
12738WAT     H138456   2.533   6.943   2.394
12738WAT     H238457   2.421   7.004   2.292
12739WAT      O38458   2.192   6.835   8.314
12739WAT     H138459   2.104   6.788   8.321
12739WAT     H238460   2.233   6.843   8.405
12740WAT      O38461   5.008   5.221   6.879
12740WAT     H138462   4.931   5.172   6.837
12740WAT     H238463   5.081   5.233   6.812
12741WAT      O38464   5.481   8.468   8.499
12741WAT     H138465   5.577   8.455   8.477
12741WAT     H238466   5.468   8.560   8.537
12742WAT      O38467   9.073   4.207   9.406
12742WAT     H138468   9.121   4.262   9.475
12742WAT     H238469   9.030   4.267   9.339
12743WAT      O38470   2.533   0.369   5.650
12743WAT     H138471   2.514   0.461   5.684
12743WAT     H238472   2.494   0.302   5.713
12744WAT      O38473   6.443   5.657   5.651
12744WAT     H138474   6.430   5.756   5.652
12744WAT     H238475   6.406   5.618   5.735
12745WAT      O38476   7.286   5.448   3.069
12745WAT     H138477   7.382   5.421   3.067
12745WAT     H238478   7.245   5.432   2.979
12746WAT      O38479   4.909   9.369   6.672
12746WAT     H138480   4.952   9.450   6.633
12746WAT     H238481   4.810   9.377   6.664
12747WAT      O38482   3.958   9.837   1.244
12747WAT     H138483   3.918   9.891   1.318
12747WAT     H238484   3.904   9.849   1.161
12748WAT      O38485   0.725   2.979   3.133
12748WAT     H138486   0.774   3.013   3.052
12748WAT     H238487   0.754   3.031   3.213
12749WAT      O38488   6.248   3.297   9.664
12749WAT     H138489   6.191   3.367   9.620
12749WAT     H238490   6.200   3.210   9.664
12750WAT      O38491   0.944   9.435   1.727
12750WAT     H138492   0.971   9.452   1.632
12750WAT     H238493   0.915   9.521   1.769
12751WAT      O38494   3.105   3.533   8.544
12751WAT     H138495   3.183   3.527   8.481
12751WAT     H238496   3.125   3.602   8.614
12752WAT      O38497   7.809   2.687   3.313
12752WAT     H138498   7.739   2.651   3.374
12752WAT     H238499   7.795   2.651   3.221
12753WAT      O38500   0.071   0.539   8.690
12753WAT     H138501   0.130   0.544   8.771
12753WAT     H238502   0.027   0.450   8.687
12754WAT      O38503   2.538   6.543   6.387
12754WAT     H138504   2.635   6.524   6.378
12754WAT     H238505   2.525   6.636   6.421
12755WAT      O38506   7.691   6.111   0.465
12755WAT     H138507   7.659   6.018   0.444
12755WAT     H238508   7.614   6.168   0.491
12756WAT      O38509   1.790   8.732   6.531
12756WAT     H138510   1.806   8.673   6.610
12756WAT     H238511   1.715   8.696   6.476
12757WAT      O38512   4.232   0.647   7.836
12757WAT     H138513   4.323   0.634   7.875
12757WAT     H238514   4.212   0.574   7.771
12758WAT      O38515   3.002   2.004   5.931
12758WAT     H138516   3.014   2.025   6.028
12758WAT     H238517   2.978   2.088   5.882
12759WAT      O38518   8.116   5.937   7.271
12759WAT     H138519   8.069   5.920   7.184
12759WAT     H238520   8.080   5.875   7.340
12760WAT      O38521   0.254   7.448   3.691
12760WAT     H138522   0.325   7.408   3.748
12760WAT     H238523   0.232   7.385   3.616
12761WAT      O38524   2.489   9.372   5.241
12761WAT     H138525   2.414   9.307   5.232
12761WAT     H238526   2.568   9.340   5.189
12762WAT      O38527   2.425   4.388   9.385
12762WAT     H138528   2.346   4.420   9.334
12762WAT     H238529   2.417   4.418   9.480
12763WAT      O38530   4.185   2.275   0.781
12763WAT     H138531   4.280   2.293   0.806
12763WAT     H238532   4.147   2.355   0.734
12764WAT      O38533   3.257   9.464   1.588
12764WAT     H138534   3.343   9.492   1.631
12764WAT     H238535   3.243   9.517   1.504
12765WAT      O38536   5.657   4.989   8.621
12765WAT     H138537   5.701   5.062   8.673
12765WAT     H238538   5.558   4.997   8.629
12766WAT      O38539   1.089   3.180   3.331
12766WAT     H138540   1.159   3.211   3.395
12766WAT     H238541   1.125   3.103   3.278
12767WAT      O38542   0.831   1.960   7.877
12767WAT     H138543   0.789   1.954   7.787
12767WAT     H238544   0.798   1.884   7.934
12768WAT      O38545   5.687   2.415   1.278
12768WAT     H138546   5.600   2.387   1.238
12768WAT     H238547   5.759   2.412   1.208
12769WAT      O38548   0.974   0.263   2.918
12769WAT     H138549   0.957   0.183   2.976
12769WAT     H238550   1.051   0.245   2.857
12770WAT      O38551   1.760   5.112   1.258
12770WAT     H138552   1.828   5.059   1.308
12770WAT     H238553   1.740   5.068   1.170
12771WAT      O38554   2.228   3.358   0.727
12771WAT     H138555   2.235   3.423   0.802
12771WAT     H238556   2.135   3.357   0.692
12772WAT      O38557   0.311   9.289   3.859
12772WAT     H138558   0.337   9.366   3.917
12772WAT     H238559   0.267   9.323   3.775
12773WAT      O38560   7.628   0.187   8.124
12773WAT     H138561   7.536   0.189   8.161
12773WAT     H238562   7.648   0.273   8.078
12774WAT      O38563   6.703   8.268   4.632
12774WAT     H138564   6.689   8.260   4.533
12774WAT     H238565   6.616   8.255   4.679
12775WAT      O38566   3.018   4.449   8.803
12775WAT     H138567   3.003   4.548   8.816
12775WAT     H238568   3.088   4.417   8.866
12776WAT      O38569   8.627   4.662   2.747
12776WAT     H138570   8.660   4.717   2.671
12776WAT     H238571   8.700   4.603   2.781
12777WAT      O38572   2.418   7.948   9.193
12777WAT     H138573   2.358   7.992   9.260
12777WAT     H238574   2.370   7.873   9.149
12778WAT      O38575   3.042   2.974   1.166
12778WAT     H138576   3.061   3.032   1.245
12778WAT     H238577   3.093   2.889   1.175
12779WAT      O38578   7.262   4.421   2.173
12779WAT     H138579   7.359   4.424   2.149
12779WAT     H238580   7.217   4.503   2.138
12780WAT      O38581   5.725   1.129   3.305
12780WAT     H138582   5.675   1.198   3.358
12780WAT     H238583   5.786   1.078   3.366
12781WAT      O38584   1.803   1.705   5.950
12781WAT     H138585   1.895   1.666   5.944
12781WAT     H238586   1.741   1.637   5.989
12782WAT      O38587   4.560   7.467   0.667
12782WAT     H138588   4.625   7.420   0.727
12782WAT     H238589   4.467   7.435   0.687
12783WAT      O38590   8.486   8.621   7.189
12783WAT     H138591   8.561   8.628   7.256
12783WAT     H238592   8.519   8.651   7.099
12784WAT      O38593   8.693   4.195   2.395
12784WAT     H138594   8.699   4.210   2.494
12784WAT     H238595   8.765   4.247   2.349
12785WAT      O38596   7.745   7.317   6.890
12785WAT     H138597   7.828   7.262   6.880
12785WAT     H238598   7.675   7.285   6.826
12786WAT      O38599   7.947   4.463   0.916
12786WAT     H138600   7.910   4.371   0.904
12786WAT     H238601   8.045   4.458   0.931
12787WAT      O38602   0.260   3.469   0.101
12787WAT     H138603   0.170   3.497   0.069
12787WAT     H238604   0.288   3.386   0.052
12788WAT      O38605   7.093   1.637   1.787
12788WAT     H138606   7.172   1.640   1.849
12788WAT     H238607   7.012   1.669   1.837
12789WAT      O38608   5.636   3.102   2.947
12789WAT     H138609   5.705   3.175   2.948
12789WAT     H238610   5.674   3.020   2.989
12790WAT      O38611   6.615   9.566   3.188
12790WAT     H138612   6.641   9.572   3.091
12790WAT     H238613   6.629   9.655   3.232
12791WAT      O38614   4.898   5.282   1.796
12791WAT     H138615   4.910   5.338   1.878
12791WAT     H238616   4.873   5.189   1.822
12792WAT      O38617   5.887   1.294   4.439
12792WAT     H138618   5.831   1.273   4.360
12792WAT     H238619   5.894   1.213   4.498
12793WAT      O38620   1.439   5.681   3.459
12793WAT     H138621   1.468   5.776   3.456
12793WAT     H238622   1.361   5.671   3.520
12794WAT      O38623   8.287   0.884   5.078
12794WAT     H138624   8.383   0.896   5.052
12794WAT     H238625   8.242   0.974   5.084
12795WAT      O38626   6.791   8.405   9.086
12795WAT     H138627   6.799   8.305   9.081
12795WAT     H238628   6.696   8.431   9.067
12796WAT      O38629   4.938   0.166   5.791
12796WAT     H138630   4.914   0.177   5.888
12796WAT     H238631   4.858   0.188   5.735
12797WAT      O38632   5.150   2.498   4.370
12797WAT     H138633   5.138   2.488   4.271
12797WAT     H238634   5.231   2.554   4.388
12798WAT      O38635   6.112   2.906   3.201
12798WAT     H138636   6.038   2.935   3.262
12798WAT     H238637   6.088   2.817   3.161
12799WAT      O38638   2.193   0.075   9.440
12799WAT     H138639   2.136   0.149   9.474
12799WAT     H238640   2.254   0.110   9.368
12800WAT      O38641   5.724   2.810   5.310
12800WAT     H138642   5.761   2.882   5.368
12800WAT     H238643   5.635   2.780   5.344
12801WAT      O38644   3.347   0.421   7.396
12801WAT     H138645   3.260   0.423   7.446
12801WAT     H238646   3.334   0.459   7.305
12802WAT      O38647   5.426   3.976   0.313
12802WAT     H138648   5.501   4.043   0.315
12802WAT     H238649   5.445   3.904   0.380
12803WAT      O38650   5.102   3.779   3.888
12803WAT     H138651   5.014   3.808   3.849
12803WAT     H238652   5.157   3.735   3.817
12804WAT      O38653   7.606   2.819   4.002
12804WAT     H138654   7.615   2.799   4.099
12804WAT     H238655   7.526   2.877   3.987
12805WAT      O38656   8.985   7.341   8.954
12805WAT     H138657   8.999   7.384   8.865
12805WAT     H238658   9.021   7.247   8.952
12806WAT      O38659   8.109   3.683   3.449
12806WAT     H138660   8.134   3.595   3.488
12806WAT     H238661   8.032   3.672   3.387
12807WAT      O38662   6.681   0.101   7.423
12807WAT     H138663   6.691   0.023   7.362
12807WAT     H238664   6.767   0.116   7.473
12808WAT      O38665   1.912   1.234   5.312
12808WAT     H138666   1.941   1.145   5.277
12808WAT     H238667   1.955   1.307   5.259
12809WAT      O38668   1.560   3.345   6.799
12809WAT     H138669   1.612   3.305   6.874
12809WAT     H238670   1.602   3.321   6.712
12810WAT      O38671   4.034   0.337   7.338
12810WAT     H138672   4.020   0.262   7.272
12810WAT     H238673   4.075   0.300   7.421
12811WAT      O38674   2.935   9.307   1.691
12811WAT     H138675   2.937   9.407   1.689
12811WAT     H238676   3.024   9.272   1.721
12812WAT      O38677   8.528   0.212   0.902
12812WAT     H138678   8.557   0.253   0.989
12812WAT     H238679   8.593   0.140   0.877
12813WAT      O38680   8.660   5.221   4.558
12813WAT     H138681   8.659   5.194   4.461
12813WAT     H238682   8.569   5.249   4.585
12814WAT      O38683   3.031   3.315   6.955
12814WAT     H138684   2.956   3.321   6.890
12814WAT     H238685   3.092   3.394   6.944
12815WAT      O38686   1.694   2.401   5.106
12815WAT     H138687   1.746   2.390   5.021
12815WAT     H238688   1.758   2.407   5.183
12816WAT      O38689   5.347   4.403   5.844
12816WAT     H138690   5.351   4.493   5.802
12816WAT     H238691   5.312   4.411   5.937
12817WAT      O38692   3.110   9.753   0.046
12817WAT     H138693   3.165   9.673   0.072
12817WAT     H238694   3.062   9.788   0.126
12818WAT      O38695   8.445   2.976   0.686
12818WAT     H138696   8.477   2.882   0.678
12818WAT     H238697   8.466   3.026   0.603
12819WAT      O38698   7.581   7.670   1.423
12819WAT     H138699   7.543   7.631   1.339
12819WAT     H238700   7.594   7.769   1.411
12820WAT      O38701   2.155   1.993   4.356
12820WAT     H138702   2.167   2.077   4.302
12820WAT     H238703   2.065   1.955   4.339
12821WAT      O38704   9.699   4.135   1.389
12821WAT     H138705   9.681   4.225   1.350
12821WAT     H238706   9.786   4.100   1.352
12822WAT      O38707   4.423   5.754   6.778
12822WAT     H138708   4.384   5.667   6.747
12822WAT     H238709   4.519   5.741   6.801
12823WAT      O38710   2.826   1.124   1.399
12823WAT     H138711   2.882   1.071   1.463
12823WAT     H238712   2.870   1.213   1.384
12824WAT      O38713   4.692   8.037   3.841
12824WAT     H138714   4.691   7.963   3.774
12824WAT     H238715   4.784   8.045   3.880
12825WAT      O38716   5.522   7.101   4.827
12825WAT     H138717   5.501   7.032   4.758
12825WAT     H238718   5.546   7.056   4.913
12826WAT      O38719   7.010   1.146   6.225
12826WAT     H138720   6.943   1.080   6.260
12826WAT     H238721   6.962   1.222   6.181
12827WAT      O38722   9.028   3.530   8.201
12827WAT     H138723   8.997   3.435   8.197
12827WAT     H238724   9.029   3.569   8.109
12828WAT      O38725   5.221   7.226   7.823
12828WAT     H138726   5.254   7.150   7.880
12828WAT     H238727   5.153   7.278   7.874
12829WAT      O38728   4.989   8.187   4.130
12829WAT     H138729   4.965   8.132   4.051
12829WAT     H238730   5.085   8.174   4.153
12830WAT      O38731   7.303   1.726   5.020
12830WAT     H138732   7.306   1.826   5.011
12830WAT     H238733   7.315   1.701   5.116
12831WAT      O38734   2.197   1.453   3.093
12831WAT     H138735   2.267   1.383   3.108
12831WAT     H238736   2.123   1.440   3.160
12832WAT      O38737   6.358   6.738   2.856
12832WAT     H138738   6.390   6.702   2.943
12832WAT     H238739   6.333   6.834   2.866
12833WAT      O38740   2.293   7.802   7.741
12833WAT     H138741   2.297   7.902   7.736
12833WAT     H238742   2.224   7.774   7.807
12834WAT      O38743   6.196   4.304   6.678
12834WAT     H138744   6.111   4.324   6.628
12834WAT     H238745   6.269   4.363   6.645
12835WAT      O38746   9.741   5.017   9.679
12835WAT     H138747   9.803   4.985   9.751
12835WAT     H238748   9.773   4.983   9.590
12836WAT      O38749   5.944   3.799   8.502
12836WAT     H138750   5.846   3.792   8.523
12836WAT     H238751   5.964   3.892   8.470
12837WAT      O38752   8.807   2.493   2.227
12837WAT     H138753   8.890   2.488   2.172
12837WAT     H238754   8.816   2.432   2.306
12838WAT      O38755   8.674   3.017   8.405
12838WAT     H138756   8.617   2.976   8.475
12838WAT     H238757   8.725   3.094   8.444
12839WAT      O38758   5.478   7.355   9.436
12839WAT     H138759   5.464   7.372   9.533
12839WAT     H238760   5.409   7.291   9.403
12840WAT      O38761   4.984   8.371   1.698
12840WAT     H138762   5.022   8.294   1.750
12840WAT     H238763   5.034   8.381   1.612
12841WAT      O38764   3.332   2.964   0.893
12841WAT     H138765   3.236   2.986   0.875
12841WAT     H238766   3.347   2.866   0.877
12842WAT      O38767   7.204   8.420   5.062
12842WAT     H138768   7.237   8.411   4.968
12842WAT     H238769   7.255   8.357   5.121
12843WAT      O38770   0.810   8.772   6.985
12843WAT     H138771   0.834   8.698   6.923
12843WAT     H238772   0.722   8.811   6.958
12844WAT      O38773   8.620   7.463   1.999
12844WAT     H138774   8.689   7.423   2.059
12844WAT     H238775   8.597   7.397   1.927
12845WAT      O38776   7.418   3.170   3.625
12845WAT     H138777   7.328   3.192   3.588
12845WAT     H238778   7.423   3.200   3.721
12846WAT      O38779   1.735   0.086   0.363
12846WAT     H138780   1.660   0.097   0.428
12846WAT     H238781   1.808   0.032   0.405
12847WAT      O38782   9.797   9.621   0.611
12847WAT     H138783   9.825   9.528   0.587
12847WAT     H238784   9.737   9.657   0.539
12848WAT      O38785   3.569   5.607   4.007
12848WAT     H138786   3.518   5.670   4.067
12848WAT     H238787   3.624   5.660   3.943
12849WAT      O38788   2.868   0.640   9.676
12849WAT     H138789   2.859   0.681   9.767
12849WAT     H238790   2.778   0.619   9.640
12850WAT      O38791   7.791   5.111   4.407
12850WAT     H138792   7.816   5.178   4.338
12850WAT     H238793   7.702   5.135   4.447
12851WAT      O38794   6.228   1.002   8.796
12851WAT     H138795   6.237   1.064   8.874
12851WAT     H238796   6.235   1.054   8.711
12852WAT      O38797   7.094   6.208   8.766
12852WAT     H138798   7.065   6.193   8.861
12852WAT     H238799   7.148   6.291   8.761
12853WAT      O38800   2.726   4.921   5.317
12853WAT     H138801   2.765   4.870   5.241
12853WAT     H238802   2.796   4.937   5.387
12854WAT      O38803   9.174   9.336   6.894
12854WAT     H138804   9.187   9.353   6.991
12854WAT     H238805   9.135   9.418   6.851
12855WAT      O38806   8.522   7.415   2.570
12855WAT     H138807   8.546   7.409   2.666
12855WAT     H238808   8.435   7.368   2.553
12856WAT      O38809   0.108   9.675   5.387
12856WAT     H138810   0.017   9.666   5.427
12856WAT     H238811   0.161   9.742   5.438
12857WAT      O38812   9.393   2.867   4.330
12857WAT     H138813   9.454   2.861   4.408
12857WAT     H238814   9.375   2.775   4.294
12858WAT      O38815   7.101   3.452   0.965
12858WAT     H138816   7.146   3.538   0.941
12858WAT     H238817   7.027   3.434   0.899
12859WAT      O38818   3.277   6.195   0.670
12859WAT     H138819   3.231   6.274   0.711
12859WAT     H238820   3.223   6.163   0.592
12860WAT      O38821   8.009   7.376   5.549
12860WAT     H138822   8.097   7.380   5.596
12860WAT     H238823   7.937   7.403   5.612
12861WAT      O38824   8.537   9.127   4.787
12861WAT     H138825   8.513   9.109   4.692
12861WAT     H238826   8.454   9.132   4.842
12862WAT      O38827   0.192   0.249   5.415
12862WAT     H138828   0.256   0.250   5.492
12862WAT     H238829   0.231   0.197   5.339
12863WAT      O38830   1.478   7.870   7.410
12863WAT     H138831   1.572   7.902   7.396
12863WAT     H238832   1.422   7.945   7.445
12864WAT      O38833   9.704   1.841   1.001
12864WAT     H138834   9.743   1.839   1.094
12864WAT     H238835   9.676   1.934   0.979
12865WAT      O38836   7.391   6.796   9.094
12865WAT     H138837   7.330   6.779   9.171
12865WAT     H238838   7.411   6.894   9.088
12866WAT      O38839   1.146   3.278   8.112
12866WAT     H138840   1.080   3.327   8.169
12866WAT     H238841   1.237   3.286   8.153
12867WAT      O38842   1.731   4.980   2.542
12867WAT     H138843   1.735   4.897   2.486
12867WAT     H238844   1.796   5.047   2.507
12868WAT      O38845   2.279   1.247   3.804
12868WAT     H138846   2.210   1.307   3.763
12868WAT     H238847   2.297   1.275   3.898
12869WAT      O38848   4.416   5.987   8.978
12869WAT     H138849   4.325   5.946   8.968
12869WAT     H238850   4.468   5.974   8.894
12870WAT      O38851   2.010   7.982   4.112
12870WAT     H138852   2.073   7.905   4.118
12870WAT     H238853   1.916   7.949   4.125
12871WAT      O38854   5.855   9.475   4.740
12871WAT     H138855   5.921   9.536   4.785
12871WAT     H238856   5.905   9.406   4.688
12872WAT      O38857   7.165   1.063   0.110
12872WAT     H138858   7.112   1.040   0.191
12872WAT     H238859   7.126   1.143   0.065
12873WAT      O38860   6.978   2.063   6.055
12873WAT     H138861   6.967   2.122   5.975
12873WAT     H238862   7.071   2.026   6.057
12874WAT      O38863   2.347   9.499   0.227
12874WAT     H138864   2.269   9.541   0.274
12874WAT     H238865   2.418   9.478   0.293
12875WAT      O38866   6.239   1.516   8.166
12875WAT     H138867   6.300   1.455   8.215
12875WAT     H238868   6.233   1.488   8.070
12876WAT      O38869   0.961   3.933   3.184
12876WAT     H138870   1.008   3.891   3.261
12876WAT     H238871   0.981   4.030   3.181
12877WAT      O38872   2.004   1.691   6.766
12877WAT     H138873   2.053   1.740   6.838
12877WAT     H238874   2.015   1.592   6.778
12878WAT      O38875   9.363   1.902   2.643
12878WAT     H138876   9.273   1.887   2.601
12878WAT     H238877   9.388   1.822   2.696
12879WAT      O38878   2.598   1.514   1.898
12879WAT     H138879   2.532   1.469   1.959
12879WAT     H238880   2.570   1.609   1.884
12880WAT      O38881   6.996   2.752   4.125
12880WAT     H138882   6.984   2.796   4.036
12880WAT     H238883   7.090   2.765   4.156
12881WAT      O38884   2.026   3.312   8.652
12881WAT     H138885   2.033   3.215   8.674
12881WAT     H238886   1.987   3.362   8.730
12882WAT      O38887   4.303   3.863   7.058
12882WAT     H138888   4.344   3.932   7.118
12882WAT     H238889   4.308   3.774   7.103
12883WAT      O38890   0.276   4.352   3.793
12883WAT     H138891   0.263   4.446   3.824
12883WAT     H238892   0.284   4.352   3.693
12884WAT      O38893   1.316   7.359   6.107
12884WAT     H138894   1.237   7.339   6.049
12884WAT     H238895   1.398   7.362   6.051
12885WAT      O38896   2.127   8.725   7.689
12885WAT     H138897   2.210   8.743   7.741
12885WAT     H238898   2.150   8.704   7.595
12886WAT      O38899   6.412   4.975   2.680
12886WAT     H138900   6.415   5.044   2.608
12886WAT     H238901   6.504   4.961   2.716
12887WAT      O38902   2.674   4.562   4.797
12887WAT     H138903   2.702   4.549   4.892
12887WAT     H238904   2.724   4.640   4.758
12888WAT      O38905   8.997   1.728   0.648
12888WAT     H138906   8.960   1.818   0.626
12888WAT     H238907   9.081   1.713   0.594
12889WAT      O38908   7.764   4.116   8.752
12889WAT     H138909   7.857   4.121   8.715
12889WAT     H238910   7.710   4.193   8.719
12890WAT      O38911   2.285   2.657   0.067
12890WAT     H138912   2.278   2.733   0.131
12890WAT     H238913   2.228   2.675  -0.013
12891WAT      O38914   7.693   5.860   8.490
12891WAT     H138915   7.625   5.886   8.422
12891WAT     H238916   7.663   5.892   8.580
12892WAT      O38917   0.269   4.735   6.442
12892WAT     H138918   0.198   4.670   6.414
12892WAT     H238919   0.269   4.812   6.379
12893WAT      O38920   6.839   1.925   5.021
12893WAT     H138921   6.829   1.929   4.921
12893WAT     H238922   6.749   1.917   5.064
12894WAT      O38923   6.128   1.944   6.766
12894WAT     H138924   6.071   2.026   6.767
12894WAT     H238925   6.076   1.866   6.798
12895WAT      O38926   0.159   3.902   5.599
12895WAT     H138927   0.142   3.933   5.693
12895WAT     H238928   0.257   3.909   5.579
12896WAT      O38929   0.247   7.995   7.808
12896WAT     H138930   0.302   8.024   7.729
12896WAT     H238931   0.182   8.067   7.832
12897WAT      O38932   4.115   1.977   8.719
12897WAT     H138933   4.103   2.040   8.795
12897WAT     H238934   4.099   1.883   8.750
12898WAT      O38935   6.462   0.957   8.549
12898WAT     H138936   6.441   0.868   8.589
12898WAT     H238937   6.380   1.015   8.552
12899WAT      O38938   1.259   1.422   9.756
12899WAT     H138939   1.335   1.471   9.714
12899WAT     H238940   1.186   1.487   9.779
12900WAT      O38941   7.988   1.134   8.893
12900WAT     H138942   7.965   1.189   8.812
12900WAT     H238943   8.005   1.040   8.866
12901WAT      O38944   0.629   8.461   8.832
12901WAT     H138945   0.692   8.406   8.888
12901WAT     H238946   0.548   8.483   8.886
12902WAT      O38947   6.973   9.131   3.148
12902WAT     H138948   6.946   9.159   3.241
12902WAT     H238949   7.067   9.160   3.131
12903WAT      O38950   5.859   6.893   3.444
12903WAT     H138951   5.852   6.818   3.378
12903WAT     H238952   5.950   6.933   3.439
12904WAT      O38953   6.194   4.580   5.036
12904WAT     H138954   6.278   4.540   4.999
12904WAT     H238955   6.216   4.635   5.116
12905WAT      O38956   2.679   6.356   6.970
12905WAT     H138957   2.663   6.372   6.872
12905WAT     H238958   2.656   6.261   6.991
12906WAT      O38959   6.237   5.684   7.895
12906WAT     H138960   6.161   5.663   7.957
12906WAT     H238961   6.314   5.719   7.949
12907WAT      O38962   4.635   9.080   2.643
12907WAT     H138963   4.729   9.076   2.675
12907WAT     H238964   4.633   9.076   2.543
12908WAT      O38965   7.676   1.738   0.784
12908WAT     H138966   7.719   1.686   0.858
12908WAT     H238967   7.727   1.822   0.768
12909WAT      O38968   5.969   6.794   2.681
12909WAT     H138969   6.062   6.815   2.711
12909WAT     H238970   5.973   6.730   2.604
12910WAT      O38971   7.350   2.221   4.313
12910WAT     H138972   7.284   2.146   4.307
12910WAT     H238973   7.352   2.256   4.406
12911WAT      O38974   3.697   7.412   4.508
12911WAT     H138975   3.604   7.388   4.537
12911WAT     H238976   3.714   7.509   4.528
12912WAT      O38977   3.736   9.804   7.490
12912WAT     H138978   3.703   9.749   7.566
12912WAT     H238979   3.755   9.897   7.522
12913WAT      O38980   7.394   5.588   4.340
12913WAT     H138981   7.312   5.636   4.311
12913WAT     H238982   7.389   5.567   4.438
12914WAT      O38983   3.378   1.890   4.518
12914WAT     H138984   3.329   1.961   4.468
12914WAT     H238985   3.355   1.895   4.615
12915WAT      O38986   5.584   3.824   5.077
12915WAT     H138987   5.624   3.737   5.052
12915WAT     H238988   5.573   3.829   5.177
12916WAT      O38989   4.815   7.634   4.880
12916WAT     H138990   4.856   7.639   4.789
12916WAT     H238991   4.874   7.580   4.940
12917WAT      O38992   5.539   1.644   5.586
12917WAT     H138993   5.519   1.572   5.521
12917WAT     H238994   5.454   1.676   5.628
12918WAT      O38995   5.419   2.884   9.428
12918WAT     H138996   5.430   2.974   9.470
12918WAT     H238997   5.334   2.842   9.460
12919WAT      O38998   0.686   9.675   9.635
12919WAT     H138999   0.760   9.608   9.641
12919WAT     H239000   0.722   9.761   9.598
12920WAT      O39001   6.166   5.622   3.626
12920WAT     H139002   6.118   5.705   3.596
12920WAT     H239003   6.176   5.624   3.726
12921WAT      O39004   7.705   1.842   8.405
12921WAT     H139005   7.682   1.842   8.308
12921WAT     H239006   7.627   1.875   8.458
12922WAT      O39007   5.692   7.722   6.602
12922WAT     H139008   5.625   7.679   6.541
12922WAT     H239009   5.665   7.816   6.621
12923WAT      O39010   9.399   6.340   7.693
12923WAT     H139011   9.484   6.290   7.679
12923WAT     H239012   9.322   6.277   7.688
12924WAT      O39013   9.254   5.958   1.298
12924WAT     H139014   9.343   5.986   1.262
12924WAT     H239015   9.239   5.861   1.280
12925WAT      O39016   9.207   6.560   5.319
12925WAT     H139017   9.238   6.646   5.278
12925WAT     H239018   9.279   6.522   5.376
12926WAT      O39019   4.741   0.263   0.318
12926WAT     H139020   4.804   0.301   0.249
12926WAT     H239021   4.775   0.284   0.409
12927WAT      O39022   6.741   8.760   6.557
12927WAT     H139023   6.783   8.792   6.641
12927WAT     H239024   6.658   8.814   6.538
12928WAT      O39025   6.877   1.663   8.187
12928WAT     H139026   6.920   1.708   8.108
12928WAT     H239027   6.790   1.708   8.207
12929WAT      O39028   0.836   2.401   8.260
12929WAT     H139029   0.933   2.377   8.268
12929WAT     H239030   0.783   2.347   8.325
12930WAT      O39031   7.825   4.820   6.190
12930WAT     H139032   7.790   4.730   6.164
12930WAT     H239033   7.923   4.825   6.169
12931WAT      O39034   7.158   5.380   8.977
12931WAT     H139035   7.180   5.350   8.884
12931WAT     H239036   7.220   5.336   9.042
12932WAT      O39037   8.832   3.359   6.495
12932WAT     H139038   8.736   3.331   6.483
12932WAT     H239039   8.865   3.399   6.409
12933WAT      O39040   4.149   7.711   8.038
12933WAT     H139041   4.166   7.751   8.128
12933WAT     H239042   4.067   7.655   8.041
12934WAT      O39043   0.779   6.155   0.166
12934WAT     H139044   0.841   6.204   0.227
12934WAT     H239045   0.747   6.216   0.094
12935WAT      O39046   1.325   3.354   6.674
12935WAT     H139047   1.409   3.366   6.726
12935WAT     H239048   1.250   3.331   6.736
12936WAT      O39049   3.741   8.049   7.432
12936WAT     H139050   3.816   8.065   7.368
12936WAT     H239051   3.734   7.951   7.451
12937WAT      O39052   2.330   0.004   3.935
12937WAT     H139053   2.278   0.034   3.856
12937WAT     H239054   2.268  -0.033   4.005
12938WAT      O39055   2.753   8.650   3.454
12938WAT     H139056   2.756   8.652   3.354
12938WAT     H239057   2.783   8.738   3.490
12939WAT      O39058   7.962   2.499   2.343
12939WAT     H139059   7.976   2.549   2.429
12939WAT     H239060   8.043   2.509   2.286
12940WAT      O39061   1.339   4.401   3.766
12940WAT     H139062   1.282   4.322   3.787
12940WAT     H239063   1.403   4.377   3.693
12941WAT      O39064   2.821   7.667   1.130
12941WAT     H139065   2.756   7.700   1.063
12941WAT     H239066   2.806   7.714   1.217
12942WAT      O39067   6.255   8.004   8.195
12942WAT     H139068   6.193   8.074   8.160
12942WAT     H239069   6.302   8.039   8.277
12943WAT      O39070   9.051   8.062   2.848
12943WAT     H139071   9.127   8.003   2.822
12943WAT     H239072   9.028   8.046   2.944
12944WAT      O39073   2.509   4.076   4.628
12944WAT     H139074   2.524   4.175   4.629
12944WAT     H239075   2.589   4.031   4.588
12945WAT      O39076   0.171   1.790   3.477
12945WAT     H139077   0.264   1.762   3.454
12945WAT     H239078   0.143   1.746   3.562
12946WAT      O39079   1.349   3.868   4.060
12946WAT     H139080   1.284   3.920   4.005
12946WAT     H239081   1.366   3.918   4.145
12947WAT      O39082   3.491   5.296   0.554
12947WAT     H139083   3.419   5.227   0.563
12947WAT     H239084   3.477   5.368   0.622
12948WAT      O39085   4.819   3.911   4.640
12948WAT     H139086   4.777   3.897   4.730
12948WAT     H239087   4.917   3.928   4.652
12949WAT      O39088   5.370   7.051   2.693
12949WAT     H139089   5.396   7.067   2.598
12949WAT     H239090   5.321   6.964   2.700
12950WAT      O39091   7.964   7.212   0.068
12950WAT     H139092   7.870   7.201   0.100
12950WAT     H239093   7.991   7.131   0.016
12951WAT      O39094   8.504   9.548   6.654
12951WAT     H139095   8.441   9.475   6.679
12951WAT     H239096   8.502   9.620   6.723
12952WAT      O39097   4.229   4.634   2.453
12952WAT     H139098   4.221   4.733   2.445
12952WAT     H239099   4.281   4.611   2.535
12953WAT      O39100   5.323   7.155   5.637
12953WAT     H139101   5.339   7.253   5.619
12953WAT     H239102   5.352   7.134   5.730
12954WAT      O39103   9.439   7.739   8.486
12954WAT     H139104   9.423   7.799   8.408
12954WAT     H239105   9.537   7.726   8.499
12955WAT      O39106   1.918   6.870   0.939
12955WAT     H139107   1.988   6.860   1.010
12955WAT     H239108   1.830   6.839   0.975
12956WAT      O39109   7.916   7.493   4.441
12956WAT     H139110   7.975   7.426   4.485
12956WAT     H239111   7.847   7.446   4.386
12957WAT      O39112   4.250   5.939   6.689
12957WAT     H139113   4.320   5.877   6.723
12957WAT     H239114   4.165   5.925   6.741
12958WAT      O39115   3.844   7.664   4.578
12958WAT     H139116   3.830   7.739   4.642
12958WAT     H239117   3.939   7.632   4.584
12959WAT      O39118   9.468   1.313   8.612
12959WAT     H139119   9.452   1.215   8.604
12959WAT     H239120   9.439   1.344   8.703
12960WAT      O39121   2.377   8.566   4.763
12960WAT     H139122   2.421   8.496   4.820
12960WAT     H239123   2.278   8.555   4.769
12961WAT      O39124   9.042   3.197   0.230
12961WAT     H139125   9.047   3.295   0.215
12961WAT     H239126   9.134   3.159   0.237
12962WAT      O39127   0.443   5.334   2.651
12962WAT     H139128   0.417   5.426   2.624
12962WAT     H239129   0.540   5.320   2.635
12963WAT      O39130   4.278   3.933   1.553
12963WAT     H139131   4.343   4.008   1.561
12963WAT     H239132   4.185   3.969   1.547
12964WAT      O39133   8.042   1.263   8.092
12964WAT     H139134   8.118   1.273   8.156
12964WAT     H239135   7.961   1.232   8.141
12965WAT      O39136   0.043   8.258   1.363
12965WAT     H139137   0.008   8.307   1.443
12965WAT     H239138   0.080   8.170   1.392
12966WAT      O39139   0.072   2.498   9.382
12966WAT     H139140   0.001   2.568   9.390
12966WAT     H239141   0.107   2.497   9.288
12967WAT      O39142   9.849   3.299   0.611
12967WAT     H139143   9.770   3.239   0.622
12967WAT     H239144   9.818   3.393   0.601
12968WAT      O39145   8.136   8.923   0.413
12968WAT     H139146   8.160   9.020   0.418
12968WAT     H239147   8.205   8.875   0.358
12969WAT      O39148   6.704   0.895   7.155
12969WAT     H139149   6.661   0.848   7.078
12969WAT     H239150   6.634   0.937   7.212
12970WAT      O39151   1.249   3.657   3.792
12970WAT     H139152   1.257   3.752   3.823
12970WAT     H239153   1.296   3.597   3.857
12971WAT      O39154   4.768   9.780   5.546
12971WAT     H139155   4.738   9.685   5.541
12971WAT     H239156   4.828   9.792   5.625
12972WAT      O39157   3.119   5.875   8.938
12972WAT     H139158   3.086   5.828   8.857
12972WAT     H239159   3.184   5.947   8.912
12973WAT      O39160   4.314   8.088   6.076
12973WAT     H139161   4.334   8.183   6.052
12973WAT     H239162   4.328   8.075   6.175
12974WAT      O39163   7.263   9.373   2.913
12974WAT     H139164   7.290   9.433   2.988
12974WAT     H239165   7.325   9.386   2.836
12975WAT      O39166   1.192   0.608   5.233
12975WAT     H139167   1.161   0.701   5.212
12975WAT     H239168   1.194   0.553   5.150
12976WAT      O39169   4.302   5.637   7.690
12976WAT     H139170   4.214   5.625   7.644
12976WAT     H239171   4.363   5.562   7.665
12977WAT      O39172   5.970   4.915   7.191
12977WAT     H139173   5.886   4.874   7.225
12977WAT     H239174   6.027   4.943   7.268
12978WAT      O39175   5.244   1.342   8.483
12978WAT     H139176   5.327   1.344   8.428
12978WAT     H239177   5.257   1.280   8.560
12979WAT      O39178   9.561   3.855   0.983
12979WAT     H139179   9.648   3.806   0.984
12979WAT     H239180   9.578   3.953   0.992
12980WAT      O39181   9.395   1.359   2.312
12980WAT     H139182   9.422   1.447   2.350
12980WAT     H239183   9.464   1.328   2.246
12981WAT      O39184   1.632   8.624   0.650
12981WAT     H139185   1.671   8.716   0.643
12981WAT     H239186   1.625   8.598   0.747
12982WAT      O39187   2.538   9.370   8.786
12982WAT     H139188   2.634   9.365   8.758
12982WAT     H239189   2.505   9.278   8.807
12983WAT      O39190   3.401   8.655   2.685
12983WAT     H139191   3.374   8.751   2.675
12983WAT     H239192   3.390   8.608   2.597
12984WAT      O39193   6.048   0.291   8.932
12984WAT     H139194   6.029   0.222   8.862
12984WAT     H239195   6.019   0.381   8.898
12985WAT      O39196   7.507   5.963   5.172
12985WAT     H139197   7.483   5.908   5.251
12985WAT     H239198   7.607   5.968   5.163
12986WAT      O39199   1.369   5.767   1.370
12986WAT     H139200   1.387   5.824   1.450
12986WAT     H239201   1.441   5.699   1.361
12987WAT      O39202   3.293   6.266   7.770
12987WAT     H139203   3.222   6.279   7.702
12987WAT     H239204   3.322   6.170   7.771
12988WAT      O39205   4.259   2.929   9.679
12988WAT     H139206   4.273   2.935   9.778
12988WAT     H239207   4.170   2.887   9.661
12989WAT      O39208   8.131   2.771   2.051
12989WAT     H139209   8.055   2.733   1.997
12989WAT     H239210   8.097   2.848   2.106
12990WAT      O39211   9.499   9.143   4.745
12990WAT     H139212   9.428   9.096   4.800
12990WAT     H239213   9.455   9.200   4.676
12991WAT      O39214   9.231   5.364   3.157
12991WAT     H139215   9.201   5.356   3.062
12991WAT     H239216   9.200   5.452   3.194
12992WAT      O39217   2.959   4.375   7.465
12992WAT     H139218   2.984   4.413   7.555
12992WAT     H239219   2.870   4.331   7.471
12993WAT      O39220   8.127   5.067   2.018
12993WAT     H139221   8.128   5.163   2.048
12993WAT     H239222   8.121   5.065   1.918
12994WAT      O39223   6.287   6.784   3.479
12994WAT     H139224   6.347   6.705   3.461
12994WAT     H239225   6.332   6.867   3.448
12995WAT      O39226   6.749   6.289   4.167
12995WAT     H139227   6.668   6.320   4.118
12995WAT     H239228   6.723   6.256   4.258
12996WAT      O39229   3.356   9.676   5.729
12996WAT     H139230   3.426   9.623   5.775
12996WAT     H239231   3.319   9.624   5.652
12997WAT      O39232   0.432   6.974   7.835
12997WAT     H139233   0.484   7.058   7.818
12997WAT     H239234   0.495   6.902   7.865
12998WAT      O39235   5.878   0.096   0.605
12998WAT     H139236   5.936   0.145   0.540
12998WAT     H239237   5.880   0.143   0.693
12999WAT      O39238   8.645   6.196   5.605
12999WAT     H139239   8.708   6.124   5.576
12999WAT     H239240   8.673   6.283   5.564
13000WAT      O39241   2.843   2.317   4.257
13000WAT     H139242   2.776   2.352   4.192
13000WAT     H239243   2.814   2.341   4.350
13001WAT      O39244   6.144   7.306   4.408
13001WAT     H139245   6.087   7.387   4.396
13001WAT     H239246   6.204   7.295   4.328
13002WAT      O39247   4.319   9.195   3.299
13002WAT     H139248   4.234   9.186   3.350
13002WAT     H239249   4.331   9.117   3.239
13003WAT      O39250   6.079   0.366   9.375
13003WAT     H139251   6.045   0.346   9.283
13003WAT     H239252   6.179   0.363   9.374
13004WAT      O39253   6.781   1.175   9.567
13004WAT     H139254   6.718   1.139   9.498
13004WAT     H239255   6.734   1.179   9.655
13005WAT      O39256   6.764   7.068   5.516
13005WAT     H139257   6.812   7.154   5.533
13005WAT     H239258   6.817   6.992   5.553
13006WAT      O39259   0.102   7.105   3.804
13006WAT     H139260   0.026   7.128   3.865
13006WAT     H239261   0.070   7.105   3.709
13007WAT      O39262   4.320   2.885   4.285
13007WAT     H139263   4.260   2.963   4.302
13007WAT     H239264   4.415   2.916   4.279
13008WAT      O39265   3.102   8.849   9.745
13008WAT     H139266   3.139   8.941   9.762
13008WAT     H239267   3.174   8.791   9.706
13009WAT      O39268   3.975   3.050   2.453
13009WAT     H139269   3.925   3.136   2.465
13009WAT     H239270   3.945   2.985   2.523
13010WAT      O39271   5.548   4.233   6.269
13010WAT     H139272   5.497   4.319   6.273
13010WAT     H239273   5.642   4.252   6.240
13011WAT      O39274   7.395   2.848   2.294
13011WAT     H139275   7.361   2.801   2.213
13011WAT     H239276   7.362   2.801   2.376
13012WAT      O39277   5.684   8.211   0.885
13012WAT     H139278   5.759   8.209   0.951
13012WAT     H239279   5.659   8.306   0.865
13013WAT      O39280   8.058   8.567   9.890
13013WAT     H139281   8.081   8.570   9.792
13013WAT     H239282   8.089   8.479   9.928
13014WAT      O39283   9.578   2.384   6.495
13014WAT     H139284   9.634   2.436   6.431
13014WAT     H239285   9.573   2.432   6.582
13015WAT      O39286   4.091   2.591   0.289
13015WAT     H139287   4.179   2.554   0.319
13015WAT     H239288   4.017   2.533   0.324
13016WAT      O39289   5.246   1.053   9.318
13016WAT     H139290   5.259   0.955   9.303
13016WAT     H239291   5.326   1.091   9.364
13017WAT      O39292   6.959   4.690   8.155
13017WAT     H139293   6.949   4.695   8.055
13017WAT     H239294   6.978   4.596   8.182
13018WAT      O39295   2.806   5.741   3.879
13018WAT     H139296   2.856   5.731   3.792
13018WAT     H239297   2.708   5.730   3.862
13019WAT      O39298   1.976   4.996   1.393
13019WAT     H139299   1.990   5.074   1.454
13019WAT     H239300   2.065   4.958   1.368
13020WAT      O39301   5.534   7.278   2.667
13020WAT     H139302   5.459   7.219   2.695
13020WAT     H239303   5.613   7.263   2.727
13021WAT      O39304   2.179   1.873   8.656
13021WAT     H139305   2.204   1.813   8.579
13021WAT     H239306   2.096   1.924   8.633
13022WAT      O39307   3.882   9.081   2.158
13022WAT     H139308   3.851   9.150   2.093
13022WAT     H239309   3.960   9.031   2.120
13023WAT      O39310   6.452   6.657   1.911
13023WAT     H139311   6.388   6.604   1.854
13023WAT     H239312   6.433   6.754   1.898
13024WAT      O39313   5.799   6.550   3.829
13024WAT     H139314   5.723   6.520   3.771
13024WAT     H239315   5.801   6.496   3.913
13025WAT      O39316   8.981   1.617   6.916
13025WAT     H139317   8.996   1.618   7.015
13025WAT     H239318   9.053   1.562   6.872
13026WAT      O39319   2.964   9.341   9.577
13026WAT     H139320   2.939   9.383   9.664
13026WAT     H239321   2.889   9.353   9.512
13027WAT      O39322   4.161   2.605   9.857
13027WAT     H139323   4.146   2.690   9.907
13027WAT     H239324   4.076   2.578   9.811
13028WAT      O39325   4.201   7.985   4.275
13028WAT     H139326   4.245   8.062   4.321
13028WAT     H239327   4.102   7.999   4.275
13029WAT      O39328   3.247   1.657   9.269
13029WAT     H139329   3.216   1.749   9.294
13029WAT     H239330   3.339   1.642   9.305
13030WAT      O39331   9.043   9.555   0.894
13030WAT     H139332   9.106   9.491   0.937
13030WAT     H239333   8.952   9.546   0.935
13031WAT      O39334   0.362   4.237   0.718
13031WAT     H139335   0.300   4.234   0.797
13031WAT     H239336   0.323   4.295   0.647
13032WAT      O39337   8.323   4.229   2.204
13032WAT     H139338   8.325   4.145   2.150
13032WAT     H239339   8.312   4.308   2.143
13033WAT      O39340   8.829   6.057   1.847
13033WAT     H139341   8.886   6.135   1.874
13033WAT     H239342   8.736   6.089   1.828
13034WAT      O39343   6.383   8.271   7.676
13034WAT     H139344   6.343   8.201   7.735
13034WAT     H239345   6.470   8.302   7.714
13035WAT      O39346   8.736   6.138   4.326
13035WAT     H139347   8.791   6.221   4.324
13035WAT     H239348   8.724   6.104   4.233
13036WAT      O39349   1.559   6.411   5.523
13036WAT     H139350   1.497   6.344   5.481
13036WAT     H239351   1.652   6.375   5.522
13037WAT      O39352   2.652   0.603   3.564
13037WAT     H139353   2.744   0.563   3.572
13037WAT     H239354   2.584   0.530   3.560
13038WAT      O39355   1.852   6.968   5.056
13038WAT     H139356   1.778   7.030   5.031
13038WAT     H239357   1.815   6.894   5.112
13039WAT      O39358   1.373   4.789   2.327
13039WAT     H139359   1.371   4.873   2.383
13039WAT     H239360   1.404   4.713   2.383
13040WAT      O39361   5.980   8.038   3.528
13040WAT     H139362   6.045   8.105   3.564
13040WAT     H239363   5.983   7.956   3.585
13041WAT      O39364   1.800   1.469   4.084
13041WAT     H139365   1.734   1.472   4.009
13041WAT     H239366   1.799   1.378   4.126
13042WAT      O39367   6.533   4.018   0.547
13042WAT     H139368   6.520   3.921   0.526
13042WAT     H239369   6.509   4.073   0.467
13043WAT      O39370   9.839   0.018   3.437
13043WAT     H139371   9.867   0.020   3.533
13043WAT     H239372   9.749  -0.026   3.429
13044WAT      O39373   3.624   5.035   6.094
13044WAT     H139374   3.615   5.001   6.000
13044WAT     H239375   3.718   5.066   6.110
13045WAT      O39376   7.217   7.501   3.672
13045WAT     H139377   7.248   7.560   3.746
13045WAT     H239378   7.291   7.486   3.607
13046WAT      O39379   3.900   7.633   9.128
13046WAT     H139380   3.962   7.641   9.050
13046WAT     H239381   3.845   7.717   9.134
13047WAT      O39382   1.135   4.865   0.463
13047WAT     H139383   1.180   4.860   0.552
13047WAT     H239384   1.150   4.780   0.412
13048WAT      O39385   8.169   8.217   3.500
13048WAT     H139386   8.265   8.200   3.475
13048WAT     H239387   8.162   8.305   3.547
13049WAT      O39388   9.295   0.383   8.176
13049WAT     H139389   9.329   0.382   8.082
13049WAT     H239390   9.362   0.340   8.237
13050WAT      O39391   9.561   1.142   2.194
13050WAT     H139392   9.553   1.060   2.251
13050WAT     H239393   9.534   1.121   2.101
13051WAT      O39394   5.040   7.340   7.601
13051WAT     H139395   5.079   7.288   7.676
13051WAT     H239396   5.075   7.304   7.514
13052WAT      O39397   9.776   8.321   7.173
13052WAT     H139398   9.800   8.320   7.076
13052WAT     H239399   9.684   8.359   7.185
13053WAT      O39400   9.181   9.055   4.313
13053WAT     H139401   9.203   9.048   4.215
13053WAT     H239402   9.265   9.052   4.367
13054WAT      O39403   9.011   3.985   3.551
13054WAT     H139404   8.988   3.969   3.455
13054WAT     H239405   8.952   4.056   3.588
13055WAT      O39406   7.107   7.227   9.237
13055WAT     H139407   7.066   7.317   9.253
13055WAT     H239408   7.096   7.170   9.319
13056WAT      O39409   8.907   7.847   0.982
13056WAT     H139410   8.887   7.932   1.030
13056WAT     H239411   8.959   7.867   0.899
13057WAT      O39412   4.973   1.727   9.632
13057WAT     H139413   4.904   1.783   9.585
13057WAT     H239414   5.058   1.728   9.580
13058WAT      O39415   6.399   6.934   7.205
13058WAT     H139416   6.466   6.951   7.134
13058WAT     H239417   6.316   6.987   7.186
13059WAT      O39418   9.303   7.020   1.645
13059WAT     H139419   9.381   6.982   1.694
13059WAT     H239420   9.308   7.120   1.647
13060WAT      O39421   2.686   7.004   2.090
13060WAT     H139422   2.701   6.937   2.018
13060WAT     H239423   2.616   6.970   2.154
13061WAT      O39424   8.508   7.628   5.125
13061WAT     H139425   8.486   7.546   5.177
13061WAT     H239426   8.431   7.692   5.128
13062WAT      O39427   9.101   1.649   3.137
13062WAT     H139428   9.093   1.657   3.236
13062WAT     H239429   9.181   1.700   3.106
13063WAT      O39430   7.687   0.911   4.167
13063WAT     H139431   7.748   0.857   4.109
13063WAT     H239432   7.623   0.962   4.109
13064WAT      O39433   7.748   1.649   6.970
13064WAT     H139434   7.813   1.575   6.990
13064WAT     H239435   7.771   1.729   7.026
13065WAT      O39436   2.672   1.529   1.032
13065WAT     H139437   2.709   1.621   1.029
13065WAT     H239438   2.683   1.492   1.125
13066WAT      O39439   9.772   1.626   4.942
13066WAT     H139440   9.759   1.584   4.852
13066WAT     H239441   9.811   1.718   4.930
13067WAT      O39442   3.111   0.151   8.461
13067WAT     H139443   3.122   0.136   8.363
13067WAT     H239444   3.168   0.227   8.490
13068WAT      O39445   2.698   8.849   3.123
13068WAT     H139446   2.698   8.755   3.156
13068WAT     H239447   2.769   8.901   3.171
13069WAT      O39448   1.050   4.377   7.052
13069WAT     H139449   1.053   4.358   6.953
13069WAT     H239450   1.063   4.475   7.068
13070WAT      O39451   5.817   3.022   5.705
13070WAT     H139452   5.902   3.054   5.748
13070WAT     H239453   5.791   2.934   5.744
13071WAT      O39454   5.821   3.560   1.081
13071WAT     H139455   5.785   3.503   1.155
13071WAT     H239456   5.750   3.574   1.012
13072WAT      O39457   0.167   4.621   4.852
13072WAT     H139458   0.088   4.598   4.796
13072WAT     H239459   0.158   4.714   4.886
13073WAT      O39460   9.763   5.771   6.205
13073WAT     H139461   9.666   5.751   6.195
13073WAT     H239462   9.788   5.768   6.302
13074WAT      O39463   9.841   1.438   2.529
13074WAT     H139464   9.903   1.515   2.511
13074WAT     H239465   9.884   1.377   2.596
13075WAT      O39466   9.282   5.936   0.620
13075WAT     H139467   9.338   5.999   0.567
13075WAT     H239468   9.193   5.924   0.576
13076WAT      O39469   2.158   4.491   7.903
13076WAT     H139470   2.226   4.432   7.946
13076WAT     H239471   2.067   4.464   7.933
13077WAT      O39472   8.587   9.802   4.243
13077WAT     H139473   8.619   9.834   4.154
13077WAT     H239474   8.637   9.849   4.316
13078WAT      O39475   1.512   6.552   4.204
13078WAT     H139476   1.505   6.485   4.130
13078WAT     H239477   1.437   6.538   4.268
13079WAT      O39478   1.084   2.277   7.875
13079WAT     H139479   1.011   2.311   7.815
13079WAT     H239480   1.119   2.353   7.930
13080WAT      O39481   4.789   7.867   2.636
13080WAT     H139482   4.888   7.862   2.634
13080WAT     H239483   4.751   7.808   2.564
13081WAT      O39484   2.804   3.500   4.190
13081WAT     H139485   2.871   3.567   4.223
13081WAT     H239486   2.840   3.453   4.110
13082WAT      O39487   8.330   7.987   3.096
13082WAT     H139488   8.389   7.914   3.064
13082WAT     H239489   8.348   8.070   3.043
13083WAT      O39490   7.670   6.476   0.396
13083WAT     H139491   7.602   6.430   0.453
13083WAT     H239492   7.758   6.474   0.443
13084WAT      O39493   5.411   8.325   9.268
13084WAT     H139494   5.349   8.403   9.279
13084WAT     H239495   5.449   8.300   9.356
13085WAT      O39496   5.049   1.153   5.672
13085WAT     H139497   5.080   1.064   5.705
13085WAT     H239498   5.124   1.218   5.675
13086WAT      O39499   9.807   5.579   5.800
13086WAT     H139500   9.815   5.573   5.899
13086WAT     H239501   9.808   5.487   5.760
13087WAT      O39502   1.111   7.905   8.962
13087WAT     H139503   1.054   7.823   8.953
13087WAT     H239504   1.179   7.890   9.034
13088WAT      O39505   4.809   8.389   0.049
13088WAT     H139506   4.835   8.352   0.138
13088WAT     H239507   4.826   8.320  -0.022
13089WAT      O39508   1.988   7.570   7.125
13089WAT     H139509   2.029   7.549   7.036
13089WAT     H239510   2.027   7.511   7.195
13090WAT      O39511   1.134   8.516   3.058
13090WAT     H139512   1.067   8.455   3.100
13090WAT     H239513   1.177   8.469   2.981
13091WAT      O39514   0.799   6.069   8.771
13091WAT     H139515   0.815   6.074   8.870
13091WAT     H239516   0.707   6.103   8.751
13092WAT      O39517   2.042   3.148   5.337
13092WAT     H139518   2.031   3.159   5.436
13092WAT     H239519   2.133   3.111   5.317
13093WAT      O39520   0.933   2.981   8.630
13093WAT     H139521   0.959   3.076   8.646
13093WAT     H239522   0.843   2.978   8.586
13094WAT      O39523   3.018   1.027   9.301
13094WAT     H139524   3.061   0.938   9.283
13094WAT     H239525   2.922   1.013   9.325
13095WAT      O39526   7.354   4.208   8.095
13095WAT     H139527   7.291   4.204   8.017
13095WAT     H239528   7.404   4.122   8.101
13096WAT      O39529   0.875   4.630   4.896
13096WAT     H139530   0.842   4.712   4.850
13096WAT     H239531   0.872   4.553   4.832
13097WAT      O39532   7.041   9.191   8.265
13097WAT     H139533   6.999   9.104   8.238
13097WAT     H239534   6.998   9.223   8.350
13098WAT      O39535   7.737   7.604   8.402
13098WAT     H139536   7.741   7.540   8.325
13098WAT     H239537   7.755   7.697   8.369
13099WAT      O39538   3.565   6.924   1.458
13099WAT     H139539   3.633   6.856   1.430
13099WAT     H239540   3.476   6.900   1.419
13100WAT      O39541   2.655   9.024   7.656
13100WAT     H139542   2.573   9.050   7.706
13100WAT     H239543   2.715   9.104   7.647
13101WAT      O39544   5.860   1.557   3.190
13101WAT     H139545   5.944   1.591   3.231
13101WAT     H239546   5.878   1.470   3.145
13102WAT      O39547   0.134   2.959   0.717
13102WAT     H139548   0.164   2.997   0.629
13102WAT     H239549   0.213   2.921   0.765
13103WAT      O39550   2.141   4.218   8.704
13103WAT     H139551   2.155   4.131   8.657
13103WAT     H239552   2.062   4.264   8.664
13104WAT      O39553   6.911   8.151   1.039
13104WAT     H139554   6.908   8.051   1.042
13104WAT     H239555   7.005   8.181   1.021
13105WAT      O39556   7.663   0.568   2.290
13105WAT     H139557   7.679   0.484   2.341
13105WAT     H239558   7.569   0.598   2.305
13106WAT      O39559   9.794   5.857   8.185
13106WAT     H139560   9.870   5.809   8.143
13106WAT     H239561   9.782   5.826   8.279
13107WAT      O39562   2.206   2.691   8.061
13107WAT     H139563   2.279   2.758   8.073
13107WAT     H239564   2.218   2.615   8.124
13108WAT      O39565   6.681   6.261   8.665
13108WAT     H139566   6.599   6.204   8.672
13108WAT     H239567   6.731   6.236   8.582
13109WAT      O39568   1.199   3.565   1.427
13109WAT     H139569   1.159   3.560   1.519
13109WAT     H239570   1.289   3.607   1.431
13110WAT      O39571   1.710   1.418   6.655
13110WAT     H139572   1.665   1.353   6.716
13110WAT     H239573   1.775   1.369   6.596
13111WAT      O39574   0.142   4.218   2.714
13111WAT     H139575   0.239   4.193   2.702
13111WAT     H239576   0.099   4.156   2.779
13112WAT      O39577   2.171   0.686   1.550
13112WAT     H139578   2.263   0.706   1.586
13112WAT     H239579   2.148   0.591   1.571
13113WAT      O39580   7.276   4.613   9.668
13113WAT     H139581   7.279   4.708   9.698
13113WAT     H239582   7.277   4.610   9.568
13114WAT      O39583   7.378   3.571   0.642
13114WAT     H139584   7.314   3.614   0.578
13114WAT     H239585   7.470   3.572   0.602
13115WAT      O39586   0.031   3.855   0.882
13115WAT     H139587   0.048   3.895   0.792
13115WAT     H239588  -0.002   3.761   0.871
13116WAT      O39589   5.470   5.791   7.051
13116WAT     H139590   5.399   5.722   7.041
13116WAT     H239591   5.432   5.881   7.032
13117WAT      O39592   9.643   2.516   4.083
13117WAT     H139593   9.650   2.571   3.999
13117WAT     H239594   9.707   2.551   4.151
13118WAT      O39595   4.317   1.278   9.718
13118WAT     H139596   4.228   1.321   9.715
13118WAT     H239597   4.312   1.195   9.774
13119WAT      O39598   4.701   7.310   4.781
13119WAT     H139599   4.798   7.328   4.764
13119WAT     H239600   4.673   7.356   4.865
13120WAT      O39601   2.849   2.244   3.167
13120WAT     H139602   2.939   2.285   3.156
13120WAT     H239603   2.846   2.192   3.252
13121WAT      O39604   7.268   1.950   1.249
13121WAT     H139605   7.209   1.965   1.329
13121WAT     H239606   7.351   2.004   1.259
13122WAT      O39607   3.190   2.538   3.634
13122WAT     H139608   3.230   2.450   3.661
13122WAT     H239609   3.257   2.591   3.581
13123WAT      O39610   1.209   4.808   1.637
13123WAT     H139611   1.304   4.837   1.639
13123WAT     H239612   1.155   4.865   1.698
13124WAT      O39613   2.428   0.426   3.543
13124WAT     H139614   2.446   0.329   3.563
13124WAT     H239615   2.395   0.434   3.449
13125WAT      O39616   9.362   1.336   5.586
13125WAT     H139617   9.293   1.280   5.633
13125WAT     H239618   9.318   1.417   5.546
13126WAT      O39619   7.374   8.767   3.621
13126WAT     H139620   7.362   8.863   3.598
13126WAT     H239621   7.400   8.758   3.718
13127WAT      O39622   5.844   9.191   2.806
13127WAT     H139623   5.856   9.163   2.901
13127WAT     H239624   5.934   9.213   2.767
13128WAT      O39625   3.525   9.063   1.029
13128WAT     H139626   3.577   9.024   0.953
13128WAT     H239627   3.429   9.070   1.002
13129WAT      O39628   1.773   8.638   1.466
13129WAT     H139629   1.673   8.644   1.461
13129WAT     H239630   1.800   8.553   1.510
13130WAT      O39631   9.301   8.639   6.664
13130WAT     H139632   9.342   8.562   6.616
13130WAT     H239633   9.373   8.702   6.694
13131WAT      O39634   9.374   5.280   4.276
13131WAT     H139635   9.422   5.224   4.344
13131WAT     H239636   9.365   5.373   4.311
13132WAT      O39637   2.266   5.608   6.135
13132WAT     H139638   2.204   5.630   6.210
13132WAT     H239639   2.361   5.623   6.164
13133WAT      O39640   1.091   2.088   1.723
13133WAT     H139641   1.144   2.007   1.749
13133WAT     H239642   1.065   2.082   1.627
13134WAT      O39643   4.214   7.625   0.743
13134WAT     H139644   4.171   7.572   0.816
13134WAT     H239645   4.236   7.717   0.777
13135WAT      O39646   7.347   6.865   3.098
13135WAT     H139647   7.447   6.868   3.100
13135WAT     H239648   7.315   6.775   3.125
13136WAT      O39649   9.208   0.401   5.981
13136WAT     H139650   9.266   0.337   5.931
13136WAT     H239651   9.248   0.493   5.975
13137WAT      O39652   5.400   0.725   1.346
13137WAT     H139653   5.362   0.727   1.438
13137WAT     H239654   5.494   0.692   1.350
13138WAT      O39655   8.275   5.419   8.290
13138WAT     H139656   8.214   5.460   8.222
13138WAT     H239657   8.358   5.386   8.245
13139WAT      O39658   9.670   4.080   6.194
13139WAT     H139659   9.608   4.158   6.194
13139WAT     H239660   9.626   4.001   6.238
13140WAT      O39661   4.183   2.483   4.758
13140WAT     H139662   4.273   2.516   4.731
13140WAT     H239663   4.155   2.408   4.699
13141WAT      O39664   5.161   3.897   6.983
13141WAT     H139665   5.098   3.967   7.016
13141WAT     H239666   5.247   3.903   7.034
13142WAT      O39667   6.407   3.585   8.730
13142WAT     H139668   6.457   3.530   8.663
13142WAT     H239669   6.309   3.567   8.722
13143WAT      O39670   7.154   8.030   4.883
13143WAT     H139671   7.082   8.091   4.850
13143WAT     H239672   7.135   7.936   4.853
13144WAT      O39673   9.843   4.469   5.242
13144WAT     H139674   9.864   4.394   5.305
13144WAT     H239675   9.908   4.468   5.166
13145WAT      O39676   3.207   1.355   2.577
13145WAT     H139677   3.280   1.379   2.513
13145WAT     H239678   3.243   1.355   2.670
13146WAT      O39679   8.716   5.227   2.459
13146WAT     H139680   8.714   5.171   2.376
13146WAT     H239681   8.744   5.170   2.537
13147WAT      O39682   1.092   2.509   3.940
13147WAT     H139683   1.183   2.541   3.915
13147WAT     H239684   1.093   2.409   3.948
13148WAT      O39685   6.465   6.513   5.512
13148WAT     H139686   6.372   6.514   5.548
13148WAT     H239687   6.513   6.595   5.541
13149WAT      O39688   4.945   2.221   3.514
13149WAT     H139689   5.032   2.243   3.471
13149WAT     H239690   4.962   2.175   3.602
13150WAT      O39691   1.365   3.728   7.940
13150WAT     H139692   1.325   3.721   8.031
13150WAT     H239693   1.307   3.783   7.881
13151WAT      O39694   4.940   1.203   5.041
13151WAT     H139695   4.899   1.294   5.027
13151WAT     H239696   5.040   1.211   5.037
13152WAT      O39697   0.859   8.517   2.722
13152WAT     H139698   0.923   8.444   2.747
13152WAT     H239699   0.858   8.587   2.793
13153WAT      O39700   6.775   5.361   7.183
13153WAT     H139701   6.773   5.424   7.261
13153WAT     H239702   6.859   5.306   7.188
13154WAT      O39703   0.452   3.738   0.172
13154WAT     H139704   0.475   3.721   0.076
13154WAT     H239705   0.390   3.666   0.204
13155WAT      O39706   2.293   5.836   3.231
13155WAT     H139707   2.391   5.827   3.211
13155WAT     H239708   2.264   5.760   3.290
13156WAT      O39709   6.681   6.092   7.975
13156WAT     H139710   6.608   6.158   7.994
13156WAT     H239711   6.770   6.137   7.980
13157WAT      O39712   4.993   2.363   1.522
13157WAT     H139713   4.986   2.359   1.422
13157WAT     H239714   4.993   2.270   1.559
13158WAT      O39715   9.842   8.494   1.914
13158WAT     H139716   9.897   8.519   1.834
13158WAT     H239717   9.782   8.571   1.938
13159WAT      O39718   9.207   7.378   4.030
13159WAT     H139719   9.109   7.358   4.039
13159WAT     H239720   9.233   7.445   4.100
13160WAT      O39721   4.074   1.282   1.064
13160WAT     H139722   3.999   1.221   1.037
13160WAT     H239723   4.045   1.377   1.054
13161WAT      O39724   7.149   7.857   4.562
13161WAT     H139725   7.118   7.827   4.652
13161WAT     H239726   7.249   7.854   4.559
13162WAT      O39727   4.603   7.846   2.320
13162WAT     H139728   4.581   7.820   2.226
13162WAT     H239729   4.658   7.775   2.363
13163WAT      O39730   6.645   5.137   5.750
13163WAT     H139731   6.688   5.223   5.777
13163WAT     H239732   6.695   5.097   5.673
13164WAT      O39733   2.916   3.711   3.351
13164WAT     H139734   2.911   3.729   3.449
13164WAT     H239735   2.871   3.624   3.330
13165WAT      O39736   5.496   0.966   9.462
13165WAT     H139737   5.582   0.982   9.414
13165WAT     H239738   5.481   0.867   9.471
13166WAT      O39739   9.778   2.448   8.909
13166WAT     H139740   9.874   2.477   8.900
13166WAT     H239741   9.761   2.422   9.004
13167WAT      O39742   5.958   1.851   3.876
13167WAT     H139743   5.922   1.790   3.946
13167WAT     H239744   5.887   1.917   3.850
13168WAT      O39745   6.399   2.965   5.434
13168WAT     H139746   6.390   3.060   5.404
13168WAT     H239747   6.479   2.924   5.392
13169WAT      O39748   9.344   4.496   3.471
13169WAT     H139749   9.434   4.456   3.453
13169WAT     H239750   9.273   4.429   3.448
13170WAT      O39751   6.613   1.547   1.669
13170WAT     H139752   6.590   1.575   1.762
13170WAT     H239753   6.705   1.508   1.667
13171WAT      O39754   6.506   1.852   7.219
13171WAT     H139755   6.464   1.913   7.286
13171WAT     H239756   6.503   1.896   7.129
13172WAT      O39757   7.147   4.198   5.968
13172WAT     H139758   7.199   4.269   6.015
13172WAT     H239759   7.196   4.169   5.886
13173WAT      O39760   2.267   4.846   4.719
13173WAT     H139761   2.241   4.809   4.630
13173WAT     H239762   2.308   4.937   4.706
13174WAT      O39763   3.048   8.775   8.013
13174WAT     H139764   3.133   8.804   7.970
13174WAT     H239765   2.991   8.854   8.033
13175WAT      O39766   4.563   3.797   4.007
13175WAT     H139767   4.505   3.830   3.932
13175WAT     H239768   4.505   3.771   4.084
13176WAT      O39769   0.217   5.763   3.287
13176WAT     H139770   0.229   5.715   3.375
13176WAT     H239771   0.270   5.848   3.288
13177WAT      O39772   5.282   7.772   8.367
13177WAT     H139773   5.328   7.716   8.299
13177WAT     H239774   5.315   7.748   8.459
13178WAT      O39775   2.991   5.710   5.044
13178WAT     H139776   2.920   5.691   4.977
13178WAT     H239777   3.017   5.806   5.039
13179WAT      O39778   9.446   2.508   2.076
13179WAT     H139779   9.384   2.577   2.115
13179WAT     H239780   9.486   2.455   2.150
13180WAT      O39781   5.382   1.803   4.913
13180WAT     H139782   5.421   1.884   4.868
13180WAT     H239783   5.342   1.830   5.000
13181WAT      O39784   5.206   6.413   2.378
13181WAT     H139785   5.145   6.387   2.453
13181WAT     H239786   5.163   6.391   2.291
13182WAT      O39787   8.196   5.491   7.544
13182WAT     H139788   8.246   5.547   7.477
13182WAT     H239789   8.135   5.550   7.597
13183WAT      O39790   3.145   4.830   5.077
13183WAT     H139791   3.173   4.922   5.047
13183WAT     H239792   3.225   4.770   5.079
13184WAT      O39793   7.460   4.688   3.776
13184WAT     H139794   7.528   4.631   3.823
13184WAT     H239795   7.464   4.670   3.678
13185WAT      O39796   7.478   7.530   7.154
13185WAT     H139797   7.575   7.530   7.129
13185WAT     H239798   7.427   7.471   7.092
13186WAT      O39799   3.882   6.323   5.932
13186WAT     H139800   3.832   6.335   6.018
13186WAT     H239801   3.822   6.280   5.865
13187WAT      O39802   3.858   9.722   7.908
13187WAT     H139803   3.825   9.806   7.951
13187WAT     H239804   3.950   9.738   7.870
13188WAT      O39805   9.271   8.594   0.128
13188WAT     H139806   9.209   8.517   0.112
13188WAT     H239807   9.275   8.612   0.226
13189WAT      O39808   6.688   2.510   0.707
13189WAT     H139809   6.670   2.459   0.792
13189WAT     H239810   6.606   2.508   0.649
13190WAT      O39811   7.287   2.682   6.019
13190WAT     H139812   7.233   2.759   5.986
13190WAT     H239813   7.346   2.648   5.946
13191WAT      O39814   9.349   6.497   1.891
13191WAT     H139815   9.442   6.500   1.854
13191WAT     H239816   9.353   6.465   1.986
13192WAT      O39817   5.603   7.122   5.292
13192WAT     H139818   5.668   7.129   5.368
13192WAT     H239819   5.511   7.108   5.329
13193WAT      O39820   2.948   9.069   6.004
13193WAT     H139821   2.924   8.978   5.971
13193WAT     H239822   3.005   9.115   5.936
13194WAT      O39823   2.216   9.524   5.756
13194WAT     H139824   2.207   9.616   5.717
13194WAT     H239825   2.298   9.480   5.718
13195WAT      O39826   8.596   5.119   4.324
13195WAT     H139827   8.538   5.043   4.356
13195WAT     H239828   8.652   5.088   4.248
13196WAT      O39829   4.698   4.407   9.766
13196WAT     H139830   4.625   4.455   9.718
13196WAT     H239831   4.710   4.446   9.857
13197WAT      O39832   6.017   2.114   8.942
13197WAT     H139833   6.017   2.077   9.035
13197WAT     H239834   6.096   2.079   8.892
13198WAT      O39835   3.667   9.406   9.534
13198WAT     H139836   3.705   9.446   9.450
13198WAT     H239837   3.579   9.364   9.514
13199WAT      O39838   8.221   1.551   9.075
13199WAT     H139839   8.145   1.589   9.023
13199WAT     H239840   8.222   1.452   9.067
13200WAT      O39841   9.434   2.804   7.918
13200WAT     H139842   9.380   2.821   8.000
13200WAT     H239843   9.388   2.843   7.838
13201WAT      O39844   2.858   6.433   2.138
13201WAT     H139845   2.894   6.341   2.153
13201WAT     H239846   2.909   6.498   2.194
13202WAT      O39847   7.678   1.266   8.525
13202WAT     H139848   7.642   1.346   8.477
13202WAT     H239849   7.610   1.231   8.589
13203WAT      O39850   1.397   5.202   8.135
13203WAT     H139851   1.352   5.272   8.080
13203WAT     H239852   1.366   5.112   8.106
13204WAT      O39853   7.090   9.293   9.660
13204WAT     H139854   7.149   9.336   9.591
13204WAT     H239855   7.019   9.358   9.688
13205WAT      O39856   0.449   3.663   3.946
13205WAT     H139857   0.361   3.617   3.934
13205WAT     H239858   0.507   3.608   4.007
13206WAT      O39859   0.694   5.839   9.756
13206WAT     H139860   0.635   5.758   9.759
13206WAT     H239861   0.746   5.844   9.841
13207WAT      O39862   8.747   9.066   3.852
13207WAT     H139863   8.727   9.162   3.832
13207WAT     H239864   8.661   9.015   3.857
13208WAT      O39865   2.087   8.152   5.773
13208WAT     H139866   2.039   8.181   5.855
13208WAT     H239867   2.062   8.058   5.750
13209WAT      O39868   7.601   1.381   3.308
13209WAT     H139869   7.519   1.327   3.292
13209WAT     H239870   7.615   1.392   3.407
13210WAT      O39871   3.324   2.809   9.288
13210WAT     H139872   3.261   2.861   9.346
13210WAT     H239873   3.329   2.852   9.198
13211WAT      O39874   4.056   3.608   5.140
13211WAT     H139875   4.049   3.517   5.180
13211WAT     H239876   4.015   3.675   5.202
13212WAT      O39877   4.456   5.958   0.346
13212WAT     H139878   4.510   6.028   0.394
13212WAT     H239879   4.506   5.929   0.264
13213WAT      O39880   0.135   9.247   4.839
13213WAT     H139881   0.129   9.148   4.824
13213WAT     H239882   0.231   9.273   4.847
13214WAT      O39883   8.452   7.935   1.124
13214WAT     H139884   8.437   8.032   1.104
13214WAT     H239885   8.443   7.881   1.040
13215WAT      O39886   1.747   4.857   8.995
13215WAT     H139887   1.689   4.936   9.015
13215WAT     H239888   1.786   4.867   8.904
13216WAT      O39889   3.882   6.984   6.605
13216WAT     H139890   3.869   6.900   6.552
13216WAT     H239891   3.792   7.021   6.632
13217WAT      O39892   3.018   3.869   0.643
13217WAT     H139893   2.961   3.863   0.561
13217WAT     H239894   3.089   3.799   0.640
13218WAT      O39895   6.886   1.430   8.275
13218WAT     H139896   6.795   1.400   8.305
13218WAT     H239897   6.882   1.527   8.249
13219WAT      O39898   2.036   9.384   2.613
13219WAT     H139899   2.101   9.432   2.554
13219WAT     H239900   1.972   9.332   2.557
13220WAT      O39901   0.669   0.279   9.221
13220WAT     H139902   0.702   0.193   9.183
13220WAT     H239903   0.569   0.283   9.212
13221WAT      O39904   2.260   9.234   9.209
13221WAT     H139905   2.213   9.312   9.249
13221WAT     H239906   2.283   9.254   9.114
13222WAT      O39907   5.209   9.266   1.119
13222WAT     H139908   5.293   9.226   1.156
13222WAT     H239909   5.131   9.239   1.176
13223WAT      O39910   1.452   9.386   4.628
13223WAT     H139911   1.478   9.342   4.542
13223WAT     H239912   1.445   9.318   4.701
13224WAT      O39913   8.268   3.864   1.401
13224WAT     H139914   8.294   3.777   1.444
13224WAT     H239915   8.201   3.847   1.329
13225WAT      O39916   6.238   2.373   3.832
13225WAT     H139917   6.277   2.281   3.830
13225WAT     H239918   6.308   2.438   3.861
13226WAT      O39919   6.968   7.204   0.316
13226WAT     H139920   7.055   7.251   0.333
13226WAT     H239921   6.893   7.257   0.357
13227WAT      O39922   4.299   4.481   7.360
13227WAT     H139923   4.307   4.544   7.282
13227WAT     H239924   4.278   4.533   7.443
13228WAT      O39925   5.636   2.294   9.367
13228WAT     H139926   5.626   2.345   9.452
13228WAT     H239927   5.672   2.354   9.296
13229WAT      O39928   3.266   1.392   4.866
13229WAT     H139929   3.244   1.487   4.842
13229WAT     H239930   3.183   1.336   4.862
13230WAT      O39931   8.227   6.879   0.127
13230WAT     H139932   8.141   6.848   0.169
13230WAT     H239933   8.292   6.904   0.199
13231WAT      O39934   5.208   0.854   7.955
13231WAT     H139935   5.273   0.875   8.028
13231WAT     H239936   5.115   0.853   7.991
13232WAT      O39937   1.389   6.026   0.161
13232WAT     H139938   1.370   6.096   0.092
13232WAT     H239939   1.349   5.939   0.132
13233WAT      O39940   4.339   6.358   3.943
13233WAT     H139941   4.378   6.358   3.851
13233WAT     H239942   4.249   6.316   3.941
13234WAT      O39943   3.549   9.312   8.111
13234WAT     H139944   3.635   9.334   8.156
13234WAT     H239945   3.541   9.365   8.026
13235WAT      O39946   1.461   1.858   6.273
13235WAT     H139947   1.480   1.798   6.196
13235WAT     H239948   1.363   1.858   6.292
13236WAT      O39949   4.373   2.755   7.655
13236WAT     H139950   4.308   2.829   7.642
13236WAT     H239951   4.375   2.696   7.574
13237WAT      O39952   2.994   7.173   8.786
13237WAT     H139953   2.897   7.171   8.763
13237WAT     H239954   3.023   7.081   8.813
13238WAT      O39955   6.945   3.288   9.254
13238WAT     H139956   6.855   3.246   9.245
13238WAT     H239957   7.003   3.231   9.313
13239WAT      O39958   6.768   8.948   4.070
13239WAT     H139959   6.809   9.026   4.118
13239WAT     H239960   6.829   8.869   4.077
13240WAT      O39961   3.305   0.586   3.428
13240WAT     H139962   3.319   0.500   3.380
13240WAT     H239963   3.297   0.569   3.526
13241WAT      O39964   9.793   0.539   0.203
13241WAT     H139965   9.875   0.542   0.260
13241WAT     H239966   9.712   0.557   0.260
13242WAT      O39967   5.333   2.877   7.624
13242WAT     H139968   5.414   2.903   7.676
13242WAT     H239969   5.361   2.820   7.546
13243WAT      O39970   4.930   5.912   0.215
13243WAT     H139971   4.846   5.859   0.224
13243WAT     H239972   5.009   5.852   0.226
13244WAT      O39973   6.143   8.579   4.424
13244WAT     H139974   6.061   8.544   4.378
13244WAT     H239975   6.140   8.553   4.521
13245WAT      O39976   0.701   4.453   9.457
13245WAT     H139977   0.636   4.383   9.487
13245WAT     H239978   0.651   4.537   9.436
13246WAT      O39979   2.949   3.047   7.728
13246WAT     H139980   2.989   3.064   7.638
13246WAT     H239981   2.996   2.970   7.771
13247WAT      O39982   1.198   5.570   2.135
13247WAT     H139983   1.152   5.483   2.117
13247WAT     H239984   1.187   5.594   2.231
13248WAT      O39985   8.394   5.971   4.137
13248WAT     H139986   8.381   5.893   4.198
13248WAT     H239987   8.491   5.993   4.131
13249WAT      O39988   9.422   3.358   9.250
13249WAT     H139989   9.406   3.421   9.174
13249WAT     H239990   9.467   3.408   9.325
13250WAT      O39991   8.858   3.362   1.394
13250WAT     H139992   8.831   3.299   1.321
13250WAT     H239993   8.820   3.452   1.376
13251WAT      O39994   2.628   8.390   4.596
13251WAT     H139995   2.671   8.443   4.523
13251WAT     H239996   2.531   8.376   4.574
13252WAT      O39997   1.718   6.109   5.353
13252WAT     H139998   1.752   6.189   5.402
13252WAT     H239999   1.619   6.101   5.366
13253WAT      O40000   6.924   5.643   6.971
13253WAT     H140001   6.955   5.725   6.924
13253WAT     H240002   6.913   5.662   7.068
13254WAT      O40003   7.372   7.179   1.597
13254WAT     H140004   7.300   7.164   1.529
13254WAT     H240005   7.336   7.161   1.688
13255WAT      O40006   8.145   9.688   2.019
13255WAT     H140007   8.095   9.601   2.016
13255WAT     H240008   8.080   9.764   2.024
13256WAT      O40009   0.263   6.986   6.192
13256WAT     H140010   0.212   7.067   6.222
13256WAT     H240011   0.296   7.000   6.099
13257WAT      O40012   0.683   3.549   8.148
13257WAT     H140013   0.738   3.578   8.069
13257WAT     H240014   0.660   3.628   8.204
13258WAT      O40015   3.578   8.879   8.540
13258WAT     H140016   3.549   8.888   8.445
13258WAT     H240017   3.552   8.961   8.591
13259WAT      O40018   1.594   9.741   5.882
13259WAT     H140019   1.615   9.787   5.795
13259WAT     H240020   1.678   9.710   5.925
13260WAT      O40021   4.470   5.920   6.021
13260WAT     H140022   4.551   5.961   5.980
13260WAT     H240023   4.495   5.875   6.107
13261WAT      O40024   3.554   6.427   4.477
13261WAT     H140025   3.596   6.467   4.559
13261WAT     H240026   3.457   6.450   4.475
13262WAT      O40027   5.380   4.790   1.728
13262WAT     H140028   5.368   4.861   1.798
13262WAT     H240029   5.478   4.777   1.712
13263WAT      O40030   4.406   9.140   4.569
13263WAT     H140031   4.357   9.171   4.651
13263WAT     H240032   4.383   9.044   4.552
13264WAT      O40033   6.503   7.214   5.183
13264WAT     H140034   6.517   7.309   5.210
13264WAT     H240035   6.525   7.203   5.086
13265WAT      O40036   2.812   2.279   7.384
13265WAT     H140037   2.751   2.351   7.352
13265WAT     H240038   2.891   2.320   7.430
13266WAT      O40039   4.365   4.443   2.680
13266WAT     H140040   4.453   4.399   2.658
13266WAT     H240041   4.290   4.386   2.645
13267WAT      O40042   8.285   4.584   5.537
13267WAT     H140043   8.275   4.657   5.469
13267WAT     H240044   8.303   4.625   5.626
13268WAT      O40045   4.809   4.506   1.503
13268WAT     H140046   4.873   4.430   1.507
13268WAT     H240047   4.848   4.585   1.551
13269WAT      O40048   1.175   5.027   4.661
13269WAT     H140049   1.094   5.065   4.616
13269WAT     H240050   1.154   4.936   4.696
13270WAT      O40051   9.637   3.490   3.111
13270WAT     H140052   9.598   3.407   3.071
13270WAT     H240053   9.734   3.497   3.086
13271WAT      O40054   8.328   2.913   6.771
13271WAT     H140055   8.424   2.886   6.777
13271WAT     H240056   8.318   3.006   6.806
13272WAT      O40057   0.333   5.442   1.210
13272WAT     H140058   0.295   5.481   1.127
13272WAT     H240059   0.300   5.348   1.221
13273WAT      O40060   3.529   7.377   7.697
13273WAT     H140061   3.523   7.288   7.651
13273WAT     H240062   3.624   7.396   7.721
13274WAT      O40063   5.934   3.429   5.148
13274WAT     H140064   5.883   3.367   5.207
13274WAT     H240065   6.026   3.442   5.185
13275WAT      O40066   7.635   3.038   6.243
13275WAT     H140067   7.720   3.078   6.279
13275WAT     H240068   7.656   2.951   6.198
13276WAT      O40069   4.954   9.214   0.280
13276WAT     H140070   4.933   9.135   0.339
13276WAT     H240071   4.936   9.298   0.331
13277WAT      O40072   7.049   8.354   0.590
13277WAT     H140073   7.142   8.339   0.556
13277WAT     H240074   6.990   8.279   0.560
13278WAT      O40075   3.636   9.719   1.195
13278WAT     H140076   3.545   9.693   1.164
13278WAT     H240077   3.630   9.767   1.283
13279WAT      O40078   2.352   1.857   4.228
13279WAT     H140079   2.321   1.810   4.145
13279WAT     H240080   2.273   1.893   4.278
13280WAT      O40081   3.055   7.595   2.539
13280WAT     H140082   3.017   7.683   2.512
13280WAT     H240083   3.024   7.524   2.475
13281WAT      O40084   3.284   6.365   9.170
13281WAT     H140085   3.374   6.368   9.125
13281WAT     H240086   3.289   6.414   9.257
13282WAT      O40087   7.387   8.238   6.160
13282WAT     H140088   7.444   8.306   6.205
13282WAT     H240089   7.438   8.153   6.150
13283WAT      O40090   1.366   7.945   2.829
13283WAT     H140091   1.419   8.030   2.824
13283WAT     H240092   1.358   7.906   2.737
13284WAT      O40093   4.934   9.752   1.533
13284WAT     H140094   4.989   9.729   1.613
13284WAT     H240095   4.986   9.813   1.473
13285WAT      O40096   6.934   2.870   7.273
13285WAT     H140097   7.006   2.801   7.273
13285WAT     H240098   6.972   2.958   7.302
13286WAT      O40099   3.766   1.091   3.297
13286WAT     H140100   3.801   1.019   3.357
13286WAT     H240101   3.841   1.149   3.267
13287WAT      O40102   7.070   1.647   4.582
13287WAT     H140103   7.060   1.566   4.525
13287WAT     H240104   6.995   1.711   4.563
13288WAT      O40105   2.260   4.464   3.593
13288WAT     H140106   2.197   4.388   3.579
13288WAT     H240107   2.217   4.534   3.650
13289WAT      O40108   7.071   0.242   4.052
13289WAT     H140109   6.972   0.232   4.066
13289WAT     H240110   7.090   0.246   3.954
13290WAT      O40111   3.219   3.645   3.333
13290WAT     H140112   3.228   3.637   3.234
13290WAT     H240113   3.122   3.654   3.357
13291WAT      O40114   8.643   7.106   2.991
13291WAT     H140115   8.607   7.031   2.936
13291WAT     H240116   8.650   7.077   3.087
13292WAT      O40117   3.724   6.492   4.264
13292WAT     H140118   3.652   6.518   4.328
13292WAT     H240119   3.796   6.444   4.314
13293WAT      O40120   0.136   7.096   5.244
13293WAT     H140121   0.100   7.139   5.327
13293WAT     H240122   0.188   7.163   5.192
13294WAT      O40123   8.433   6.289   0.619
13294WAT     H140124   8.456   6.383   0.593
13294WAT     H240125   8.368   6.289   0.694
13295WAT      O40126   4.807   0.359   4.069
13295WAT     H140127   4.742   0.314   4.130
13295WAT     H240128   4.767   0.445   4.036
13296WAT      O40129   1.887   1.895   9.138
13296WAT     H140130   1.973   1.915   9.184
13296WAT     H240131   1.819   1.866   9.206
13297WAT      O40132   7.544   1.749   4.583
13297WAT     H140133   7.563   1.742   4.485
13297WAT     H240134   7.463   1.694   4.604
13298WAT      O40135   2.520   2.930   6.704
13298WAT     H140136   2.427   2.907   6.730
13298WAT     H240137   2.519   2.999   6.631
13299WAT      O40138   7.168   0.223   3.788
13299WAT     H140139   7.249   0.165   3.794
13299WAT     H240140   7.096   0.176   3.738
13300WAT      O40141   1.167   8.340   4.313
13300WAT     H140142   1.236   8.364   4.382
13300WAT     H240143   1.153   8.241   4.313
13301WAT      O40144   8.667   6.647   2.025
13301WAT     H140145   8.695   6.713   1.956
13301WAT     H240146   8.707   6.558   2.004
13302WAT      O40147   4.313   3.665   5.081
13302WAT     H140148   4.366   3.594   5.035
13302WAT     H240149   4.221   3.631   5.101
13303WAT      O40150   4.190   4.495   3.013
13303WAT     H140151   4.131   4.450   2.946
13303WAT     H240152   4.216   4.585   2.980
13304WAT      O40153   1.973   5.187   5.982
13304WAT     H140154   2.024   5.232   5.909
13304WAT     H240155   1.944   5.255   6.049
13305WAT      O40156   5.550   6.769   0.079
13305WAT     H140157   5.580   6.844   0.139
13305WAT     H240158   5.580   6.787  -0.014
13306WAT      O40159   7.073   5.831   6.222
13306WAT     H140160   7.051   5.748   6.273
13306WAT     H240161   7.009   5.841   6.146
13307WAT      O40162   3.407   3.713   3.665
13307WAT     H140163   3.455   3.760   3.739
13307WAT     H240164   3.402   3.773   3.585
13308WAT      O40165   2.365   7.078   1.165
13308WAT     H140166   2.441   7.138   1.191
13308WAT     H240167   2.296   7.077   1.238
13309WAT      O40168   2.447   3.823   3.706
13309WAT     H140169   2.415   3.918   3.711
13309WAT     H240170   2.377   3.763   3.745
13310WAT      O40171   9.639   1.150   9.221
13310WAT     H140172   9.650   1.247   9.240
13310WAT     H240173   9.622   1.136   9.124
13311WAT      O40174   7.944   1.957   2.133
13311WAT     H140175   7.873   1.886   2.142
13311WAT     H240176   7.904   2.047   2.151
13312WAT      O40177   8.080   1.301   3.131
13312WAT     H140178   7.983   1.290   3.154
13312WAT     H240179   8.129   1.217   3.155
13313WAT      O40180   2.954   1.549   2.197
13313WAT     H140181   2.905   1.593   2.123
13313WAT     H240182   3.042   1.514   2.163
13314WAT      O40183   5.855   0.796   1.125
13314WAT     H140184   5.932   0.842   1.170
13314WAT     H240185   5.884   0.706   1.094
13315WAT      O40186   1.745   8.658   6.019
13315WAT     H140187   1.813   8.664   5.945
13315WAT     H240188   1.711   8.750   6.039
13316WAT      O40189   7.099   2.711   9.313
13316WAT     H140190   7.038   2.788   9.294
13316WAT     H240191   7.168   2.738   9.379
13317WAT      O40192   4.169   3.428   0.788
13317WAT     H140193   4.222   3.431   0.873
13317WAT     H240194   4.082   3.382   0.804
13318WAT      O40195   6.705   4.832   1.821
13318WAT     H140196   6.744   4.889   1.894
13318WAT     H240197   6.685   4.741   1.857
13319WAT      O40198   1.931   8.736   8.708
13319WAT     H140199   1.879   8.662   8.751
13319WAT     H240200   1.870   8.811   8.686
13320WAT      O40201   2.962   1.885   8.507
13320WAT     H140202   3.025   1.807   8.500
13320WAT     H240203   3.009   1.969   8.480
13321WAT      O40204   0.880   4.528   4.316
13321WAT     H140205   0.954   4.477   4.361
13321WAT     H240206   0.832   4.469   4.252
13322WAT      O40207   2.988   1.098   4.090
13322WAT     H140208   3.069   1.082   4.147
13322WAT     H240209   2.977   1.196   4.074
13323WAT      O40210   8.269   9.038   3.709
13323WAT     H140211   8.335   9.034   3.633
13323WAT     H240212   8.254   9.133   3.735
13324WAT      O40213   4.011   1.567   7.975
13324WAT     H140214   4.086   1.553   7.910
13324WAT     H240215   3.960   1.649   7.950
13325WAT      O40216   1.545   0.708   5.771
13325WAT     H140217   1.523   0.612   5.787
13325WAT     H240218   1.553   0.724   5.672
13326WAT      O40219   7.631   4.953   3.273
13326WAT     H140220   7.554   5.015   3.286
13326WAT     H240221   7.670   4.928   3.361
13327WAT      O40222   6.298   9.064   1.493
13327WAT     H140223   6.256   9.059   1.583
13327WAT     H240224   6.381   9.007   1.492
13328WAT      O40225   9.791   3.051   0.796
13328WAT     H140226   9.815   3.146   0.812
13328WAT     H240227   9.872   2.999   0.770
13329WAT      O40228   6.206   2.528   5.780
13329WAT     H140229   6.184   2.625   5.794
13329WAT     H240230   6.123   2.474   5.790
13330WAT      O40231   3.949   8.286   5.868
13330WAT     H140232   3.920   8.226   5.943
13330WAT     H240233   4.030   8.247   5.824
13331WAT      O40234   2.873   1.389   3.243
13331WAT     H140235   2.817   1.443   3.181
13331WAT     H240236   2.968   1.392   3.214
13332WAT      O40237   9.428   7.749   9.624
13332WAT     H140238   9.479   7.826   9.586
13332WAT     H240239   9.367   7.712   9.555
13333WAT      O40240   3.908   1.257   5.610
13333WAT     H140241   3.979   1.226   5.547
13333WAT     H240242   3.897   1.190   5.684
13334WAT      O40243   2.776   1.392   8.520
13334WAT     H140244   2.828   1.424   8.599
13334WAT     H240245   2.682   1.373   8.547
13335WAT      O40246   7.333   6.375   2.546
13335WAT     H140247   7.346   6.446   2.616
13335WAT     H240248   7.373   6.406   2.460
13336WAT      O40249   1.674   0.728   7.056
13336WAT     H140250   1.652   0.684   7.144
13336WAT     H240251   1.764   0.771   7.062
13337WAT      O40252   3.222   2.949   7.401
13337WAT     H140253   3.219   2.872   7.466
13337WAT     H240254   3.166   3.024   7.436
13338WAT      O40255   7.516   3.102   2.226
13338WAT     H140256   7.532   3.172   2.296
13338WAT     H240257   7.453   3.033   2.263
13339WAT      O40258   5.690   1.474   7.291
13339WAT     H140259   5.616   1.529   7.329
13339WAT     H240260   5.764   1.468   7.358
13340WAT      O40261   6.558   1.003   3.784
13340WAT     H140262   6.497   0.932   3.822
13340WAT     H240263   6.629   1.025   3.851
13341WAT      O40264   7.740   5.846   9.308
13341WAT     H140265   7.665   5.862   9.243
13341WAT     H240266   7.788   5.932   9.325
13342WAT      O40267   6.099   9.507   9.853
13342WAT     H140268   6.145   9.561   9.782
13342WAT     H240269   6.122   9.410   9.840
13343WAT      O40270   2.897   6.675   8.194
13343WAT     H140271   2.950   6.630   8.266
13343WAT     H240272   2.959   6.708   8.123
13344WAT      O40273   2.123   7.312   2.635
13344WAT     H140274   2.116   7.323   2.734
13344WAT     H240275   2.173   7.228   2.615
13345WAT      O40276   4.030   3.682   1.868
13345WAT     H140277   3.955   3.710   1.928
13345WAT     H240278   4.023   3.584   1.850
13346WAT      O40279   5.133   3.035   6.474
13346WAT     H140280   5.180   3.003   6.556
13346WAT     H240281   5.050   3.085   6.501
13347WAT      O40282   5.324   0.068   9.198
13347WAT     H140283   5.324   0.025   9.288
13347WAT     H240284   5.382   0.016   9.136
13348WAT      O40285   4.054   2.453   1.843
13348WAT     H140286   4.009   2.494   1.764
13348WAT     H240287   4.142   2.498   1.859
13349WAT      O40288   0.805   0.523   9.631
13349WAT     H140289   0.735   0.534   9.560
13349WAT     H240290   0.853   0.609   9.645
13350WAT      O40291   6.759   1.757   4.534
13350WAT     H140292   6.813   1.813   4.472
13350WAT     H240293   6.742   1.808   4.619
13351WAT      O40294   3.394   6.212   9.441
13351WAT     H140295   3.359   6.304   9.459
13351WAT     H240296   3.369   6.151   9.517
13352WAT      O40297   0.294   8.706   6.244
13352WAT     H140298   0.335   8.698   6.153
13352WAT     H240299   0.299   8.802   6.273
13353WAT      O40300   4.193   8.129   1.982
13353WAT     H140301   4.212   8.226   1.971
13353WAT     H240302   4.203   8.104   2.079
13354WAT      O40303   0.201   0.530   3.115
13354WAT     H140304   0.113   0.488   3.136
13354WAT     H240305   0.236   0.492   3.029
13355WAT      O40306   5.695   5.621   4.541
13355WAT     H140307   5.758   5.691   4.575
13355WAT     H240308   5.741   5.532   4.539
13356WAT      O40309   5.292   3.062   6.049
13356WAT     H140310   5.334   3.069   6.140
13356WAT     H240311   5.364   3.042   5.982
13357WAT      O40312   8.793   6.996   5.950
13357WAT     H140313   8.856   6.922   5.927
13357WAT     H240314   8.845   7.076   5.980
13358WAT      O40315   9.542   3.573   0.844
13358WAT     H140316   9.547   3.567   0.944
13358WAT     H240317   9.633   3.587   0.806
13359WAT      O40318   3.999   6.484   9.733
13359WAT     H140319   4.022   6.403   9.788
13359WAT     H240320   4.078   6.509   9.678
13360WAT      O40321   7.485   6.791   7.551
13360WAT     H140322   7.419   6.865   7.557
13360WAT     H240323   7.560   6.818   7.489
13361WAT      O40324   6.873   3.494   9.091
13361WAT     H140325   6.901   3.442   9.171
13361WAT     H240326   6.898   3.444   9.008
13362WAT      O40327   5.747   7.148   2.527
13362WAT     H140328   5.739   7.114   2.434
13362WAT     H240329   5.759   7.247   2.526
13363WAT      O40330   4.989   5.506   8.796
13363WAT     H140331   5.082   5.482   8.823
13363WAT     H240332   4.924   5.474   8.865
13364WAT      O40333   8.360   5.505   9.773
13364WAT     H140334   8.443   5.561   9.776
13364WAT     H240335   8.384   5.411   9.799
13365WAT      O40336   7.329   0.557   6.988
13365WAT     H140337   7.330   0.459   7.004
13365WAT     H240338   7.420   0.587   6.959
13366WAT      O40339   4.935   2.266   1.262
13366WAT     H140340   4.836   2.273   1.253
13366WAT     H240341   4.973   2.224   1.180
13367WAT      O40342   9.101   0.402   2.799
13367WAT     H140343   9.040   0.470   2.840
13367WAT     H240344   9.051   0.349   2.731
13368WAT      O40345   6.319   7.671   3.095
13368WAT     H140346   6.357   7.654   3.005
13368WAT     H240347   6.263   7.754   3.093
13369WAT      O40348   3.037   0.220   3.911
13369WAT     H140349   3.083   0.154   3.852
13369WAT     H240350   3.020   0.178   4.000
13370WAT      O40351   4.883   3.630   2.585
13370WAT     H140352   4.905   3.723   2.558
13370WAT     H240353   4.875   3.572   2.503
13371WAT      O40354   5.859   1.315   3.035
13371WAT     H140355   5.785   1.255   3.003
13371WAT     H240356   5.944   1.262   3.041
13372WAT      O40357   3.190   1.756   8.988
13372WAT     H140358   3.236   1.741   9.076
13372WAT     H240359   3.257   1.784   8.920
13373WAT      O40360   1.586   4.227   3.855
13373WAT     H140361   1.657   4.168   3.895
13373WAT     H240362   1.509   4.170   3.825
13374WAT      O40363   5.353   6.096   0.764
13374WAT     H140364   5.305   6.182   0.747
13374WAT     H240365   5.356   6.079   0.862
13375WAT      O40366   2.568   5.507   0.142
13375WAT     H140367   2.513   5.585   0.171
13375WAT     H240368   2.543   5.427   0.197
13376WAT      O40369   8.875   0.650   5.134
13376WAT     H140370   8.850   0.744   5.111
13376WAT     H240371   8.972   0.647   5.159
13377WAT      O40372   2.539   5.540   9.119
13377WAT     H140373   2.458   5.572   9.168
13377WAT     H240374   2.514   5.509   9.028
13378WAT      O40375   7.482   2.186   9.334
13378WAT     H140376   7.549   2.120   9.299
13378WAT     H240377   7.444   2.153   9.420
13379WAT      O40378   9.131   5.693   9.338
13379WAT     H140379   9.085   5.638   9.407
13379WAT     H240380   9.114   5.790   9.356
13380WAT      O40381   9.601   7.138   1.090
13380WAT     H140382   9.531   7.142   1.161
13380WAT     H240383   9.682   7.092   1.124
13381WAT      O40384   6.416   8.167   3.104
13381WAT     H140385   6.391   8.086   3.157
13381WAT     H240386   6.333   8.211   3.069
13382WAT      O40387   4.076   5.564   2.462
13382WAT     H140388   4.120   5.488   2.413
13382WAT     H240389   3.978   5.543   2.473
13383WAT      O40390   5.093   8.037   3.394
13383WAT     H140391   5.162   8.017   3.463
13383WAT     H240392   5.081   8.136   3.387
13384WAT      O40393   7.279   5.397   8.717
13384WAT     H140394   7.285   5.467   8.646
13384WAT     H240395   7.248   5.311   8.677
13385WAT      O40396   4.303   2.539   1.871
13385WAT     H140397   4.378   2.476   1.853
13385WAT     H240398   4.286   2.544   1.970
13386WAT      O40399   3.842   7.955   8.186
13386WAT     H140400   3.859   8.039   8.134
13386WAT     H240401   3.926   7.901   8.190
13387WAT      O40402   9.687   0.384   2.623
13387WAT     H140403   9.591   0.379   2.595
13387WAT     H240404   9.737   0.307   2.584
13388WAT      O40405   0.988   4.742   7.840
13388WAT     H140406   1.059   4.724   7.773
13388WAT     H240407   1.001   4.685   7.921
13389WAT      O40408   5.717   3.298   9.434
13389WAT     H140409   5.703   3.287   9.336
13389WAT     H240410   5.637   3.264   9.483
13390WAT      O40411   9.203   0.833   4.607
13390WAT     H140412   9.272   0.898   4.641
13390WAT     H240413   9.171   0.863   4.517
13391WAT      O40414   3.487   5.891   9.314
13391WAT     H140415   3.538   5.968   9.277
13391WAT     H240416   3.427   5.854   9.243
13392WAT      O40417   6.547   1.360   6.639
13392WAT     H140418   6.557   1.310   6.553
13392WAT     H240419   6.488   1.439   6.626
13393WAT      O40420   4.863   9.575   4.608
13393WAT     H140421   4.872   9.533   4.517
13393WAT     H240422   4.953   9.579   4.652
13394WAT      O40423   1.116   8.881   3.759
13394WAT     H140424   1.163   8.883   3.847
13394WAT     H240425   1.059   8.962   3.749
13395WAT      O40426   4.887   0.346   3.491
13395WAT     H140427   4.833   0.328   3.573
13395WAT     H240428   4.954   0.273   3.479
13396WAT      O40429   3.599   8.374   2.546
13396WAT     H140430   3.615   8.472   2.542
13396WAT     H240431   3.686   8.325   2.550
13397WAT      O40432   5.290   6.823   9.876
13397WAT     H140433   5.362   6.786   9.934
13397WAT     H240434   5.271   6.918   9.902
13398WAT      O40435   3.438   8.908   3.208
13398WAT     H140436   3.496   8.895   3.128
13398WAT     H240437   3.451   9.001   3.243
13399WAT      O40438   2.703   4.111   5.725
13399WAT     H140439   2.647   4.044   5.774
13399WAT     H240440   2.752   4.168   5.791
13400WAT      O40441   6.528   5.253   8.861
13400WAT     H140442   6.572   5.323   8.805
13400WAT     H240443   6.440   5.228   8.820
13401WAT      O40444   2.976   3.430   6.493
13401WAT     H140445   2.964   3.527   6.514
13401WAT     H240446   3.054   3.418   6.431
13402WAT      O40447   1.756   4.212   6.002
13402WAT     H140448   1.788   4.245   6.091
13402WAT     H240449   1.709   4.124   6.014
13403WAT      O40450   7.999   0.921   3.644
13403WAT     H140451   7.996   0.941   3.547
13403WAT     H240452   7.907   0.901   3.677
13404WAT      O40453   9.160   2.211   6.670
13404WAT     H140454   9.258   2.207   6.690
13404WAT     H240455   9.126   2.303   6.688
13405WAT      O40456   4.075   8.830   8.035
13405WAT     H140457   4.091   8.791   7.945
13405WAT     H240458   4.151   8.891   8.059
13406WAT      O40459   5.702   8.593   4.919
13406WAT     H140460   5.659   8.550   4.999
13406WAT     H240461   5.632   8.615   4.851
13407WAT      O40462   1.090   9.031   3.031
13407WAT     H140463   1.037   9.042   2.948
13407WAT     H240464   1.175   8.982   3.011
13408WAT      O40465   0.465   2.057   0.935
13408WAT     H140466   0.481   1.970   0.983
13408WAT     H240467   0.431   2.038   0.843
13409WAT      O40468   2.481   1.691   4.710
13409WAT     H140469   2.399   1.742   4.684
13409WAT     H240470   2.508   1.631   4.634
13410WAT      O40471   2.399   2.139   6.861
13410WAT     H140472   2.337   2.081   6.808
13410WAT     H240473   2.364   2.232   6.863
13411WAT      O40474   6.589   4.604   9.626
13411WAT     H140475   6.666   4.539   9.626
13411WAT     H240476   6.600   4.668   9.702
13412WAT      O40477   9.126   2.567   4.368
13412WAT     H140478   9.138   2.534   4.461
13412WAT     H240479   9.150   2.494   4.303
13413WAT      O40480   2.064   3.763   3.562
13413WAT     H140481   2.117   3.731   3.641
13413WAT     H240482   1.993   3.695   3.541
13414WAT      O40483   6.932   6.855   1.252
13414WAT     H140484   6.836   6.848   1.227
13414WAT     H240485   6.948   6.809   1.339
13415WAT      O40486   4.912   3.086   9.072
13415WAT     H140487   4.930   3.099   9.169
13415WAT     H240488   4.982   3.132   9.018
13416WAT      O40489   2.204   0.045   3.418
13416WAT     H140490   2.237   0.051   3.323
13416WAT     H240491   2.212   0.135   3.461
13417WAT      O40492   9.358   2.697   4.899
13417WAT     H140493   9.390   2.650   4.981
13417WAT     H240494   9.412   2.668   4.820
13418WAT      O40495   2.511   0.545   6.630
13418WAT     H140496   2.580   0.610   6.661
13418WAT     H240497   2.518   0.535   6.531
13419WAT      O40498   0.565   5.091   6.641
13419WAT     H140499   0.658   5.067   6.671
13419WAT     H240500   0.504   5.014   6.660
13420WAT      O40501   3.485   9.545   6.172
13420WAT     H140502   3.486   9.627   6.114
13420WAT     H240503   3.578   9.508   6.177
13421WAT      O40504   5.272   0.709   7.159
13421WAT     H140505   5.357   0.668   7.193
13421WAT     H240506   5.215   0.736   7.236
13422WAT      O40507   9.179   9.151   4.710
13422WAT     H140508   9.233   9.217   4.658
13422WAT     H240509   9.083   9.180   4.711
13423WAT      O40510   2.108   3.288   2.418
13423WAT     H140511   2.026   3.231   2.426
13423WAT     H240512   2.129   3.329   2.506
13424WAT      O40513   5.026   7.439   3.189
13424WAT     H140514   5.001   7.481   3.276
13424WAT     H240515   5.084   7.502   3.137
13425WAT      O40516   1.420   7.945   5.941
13425WAT     H140517   1.460   8.030   5.976
13425WAT     H240518   1.411   7.879   6.016
13426WAT      O40519   7.502   7.412   2.933
13426WAT     H140520   7.591   7.376   2.902
13426WAT     H240521   7.517   7.494   2.988
13427WAT      O40522   0.811   6.069   9.083
13427WAT     H140523   0.861   6.154   9.069
13427WAT     H240524   0.874   5.999   9.118
13428WAT      O40525   1.152   9.217   5.431
13428WAT     H140526   1.060   9.254   5.424
13428WAT     H240527   1.147   9.121   5.460
13429WAT      O40528   7.555   8.658   9.407
13429WAT     H140529   7.520   8.752   9.408
13429WAT     H240530   7.626   8.648   9.476
13430WAT      O40531   3.574   9.523   1.963
13430WAT     H140532   3.544   9.615   1.989
13430WAT     H240533   3.662   9.503   2.005
13431WAT      O40534   3.004   7.091   8.102
13431WAT     H140535   3.018   7.114   8.199
13431WAT     H240536   3.016   7.173   8.046
13432WAT      O40537   2.949   4.335   4.070
13432WAT     H140538   2.965   4.411   4.007
13432WAT     H240539   3.000   4.255   4.040
13433WAT      O40540   8.149   8.897   7.582
13433WAT     H140541   8.101   8.984   7.581
13433WAT     H240542   8.150   8.859   7.489
13434WAT      O40543   4.130   7.926   8.230
13434WAT     H140544   4.189   8.002   8.202
13434WAT     H240545   4.143   7.908   8.327
13435WAT      O40546   1.719   0.426   0.606
13435WAT     H140547   1.754   0.501   0.663
13435WAT     H240548   1.747   0.338   0.645
13436WAT      O40549   3.505   9.684   0.827
13436WAT     H140550   3.448   9.727   0.898
13436WAT     H240551   3.492   9.585   0.829
13437WAT      O40552   2.449   1.382   9.851
13437WAT     H140553   2.383   1.390   9.776
13437WAT     H240554   2.470   1.285   9.867
13438WAT      O40555   7.755   1.121   5.599
13438WAT     H140556   7.771   1.187   5.673
13438WAT     H240557   7.842   1.099   5.555
13439WAT      O40558   6.842   1.303   5.345
13439WAT     H140559   6.869   1.336   5.255
13439WAT     H240560   6.924   1.285   5.400
13440WAT      O40561   5.872   2.840   2.821
13440WAT     H140562   5.849   2.871   2.913
13440WAT     H240563   5.910   2.916   2.768
13441WAT      O40564   5.650   4.150   7.800
13441WAT     H140565   5.645   4.245   7.768
13441WAT     H240566   5.589   4.093   7.744
13442WAT      O40567   3.241   1.289   0.561
13442WAT     H140568   3.334   1.321   0.540
13442WAT     H240569   3.239   1.251   0.653
13443WAT      O40570   6.959   5.856   1.494
13443WAT     H140571   6.997   5.833   1.405
13443WAT     H240572   7.027   5.836   1.565
13444WAT      O40573   8.363   5.025   5.567
13444WAT     H140574   8.396   5.062   5.480
13444WAT     H240575   8.319   5.097   5.620
13445WAT      O40576   6.819   2.031   8.130
13445WAT     H140577   6.849   2.055   8.222
13445WAT     H240578   6.778   1.939   8.132
13446WAT      O40579   9.426   2.572   0.208
13446WAT     H140580   9.360   2.636   0.169
13446WAT     H240581   9.516   2.588   0.167
13447WAT      O40582   1.256   5.964   5.845
13447WAT     H140583   1.294   6.000   5.761
13447WAT     H240584   1.173   5.912   5.825
13448WAT      O40585   9.061   8.191   4.105
13448WAT     H140586   9.011   8.254   4.045
13448WAT     H240587   9.052   8.098   4.070
13449WAT      O40588   5.497   2.322   8.525
13449WAT     H140589   5.449   2.386   8.465
13449WAT     H240590   5.585   2.298   8.484
13450WAT      O40591   3.668   0.669   0.419
13450WAT     H140592   3.609   0.698   0.494
13450WAT     H240593   3.757   0.641   0.456
13451WAT      O40594   7.712   3.858   3.321
13451WAT     H140595   7.797   3.806   3.314
13451WAT     H240596   7.729   3.944   3.369
13452WAT      O40597   9.034   8.073   8.350
13452WAT     H140598   9.101   8.147   8.357
13452WAT     H240599   8.959   8.103   8.289
13453WAT      O40600   2.503   3.412   1.810
13453WAT     H140601   2.600   3.408   1.835
13453WAT     H240602   2.483   3.502   1.771
13454WAT      O40603   8.328   1.432   3.129
13454WAT     H140604   8.232   1.403   3.130
13454WAT     H240605   8.357   1.450   3.223
13455WAT      O40606   9.414   9.830   5.041
13455WAT     H140607   9.500   9.784   5.061
13455WAT     H240608   9.338   9.774   5.074
13456WAT      O40609   2.246   7.773   3.304
13456WAT     H140610   2.220   7.797   3.211
13456WAT     H240611   2.203   7.687   3.330
13457WAT      O40612   0.740   9.660   0.266
13457WAT     H140613   0.728   9.756   0.291
13457WAT     H240614   0.793   9.654   0.181
13458WAT      O40615   9.610   5.755   5.850
13458WAT     H140616   9.651   5.793   5.933
13458WAT     H240617   9.682   5.714   5.794
13459WAT      O40618   1.890   7.756   1.828
13459WAT     H140619   1.920   7.851   1.820
13459WAT     H240620   1.844   7.743   1.916
13460WAT      O40621   9.808   1.027   0.929
13460WAT     H140622   9.742   0.961   0.964
13460WAT     H240623   9.868   1.057   1.004
13461WAT      O40624   4.836   5.057   0.093
13461WAT     H140625   4.745   5.026   0.120
13461WAT     H240626   4.838   5.075  -0.006
13462WAT      O40627   1.229   9.739   9.585
13462WAT     H140628   1.322   9.711   9.611
13462WAT     H240629   1.234   9.817   9.522
13463WAT      O40630   5.689   6.002   2.729
13463WAT     H140631   5.780   6.046   2.734
13463WAT     H240632   5.685   5.926   2.793
13464WAT      O40633   2.857   5.044   3.188
13464WAT     H140634   2.791   5.050   3.113
13464WAT     H240635   2.811   5.010   3.270
13465WAT      O40636   6.491   0.482   8.383
13465WAT     H140637   6.453   0.504   8.472
13465WAT     H240638   6.425   0.506   8.311
13466WAT      O40639   3.673   2.913   7.835
13466WAT     H140640   3.770   2.907   7.810
13466WAT     H240641   3.638   3.003   7.811
13467WAT      O40642   0.370   0.559   0.467
13467WAT     H140643   0.321   0.523   0.387
13467WAT     H240644   0.469   0.552   0.451
13468WAT      O40645   4.654   2.888   7.747
13468WAT     H140646   4.630   2.801   7.704
13468WAT     H240647   4.628   2.886   7.844
13469WAT      O40648   0.271   3.581   6.356
13469WAT     H140649   0.238   3.660   6.305
13469WAT     H240650   0.366   3.563   6.333
13470WAT      O40651   7.544   8.378   8.971
13470WAT     H140652   7.644   8.376   8.974
13470WAT     H240653   7.512   8.328   8.891
13471WAT      O40654   4.828   7.146   7.230
13471WAT     H140655   4.811   7.053   7.263
13471WAT     H240656   4.742   7.196   7.224
13472WAT      O40657   6.191   0.786   8.474
13472WAT     H140658   6.251   0.735   8.536
13472WAT     H240659   6.246   0.821   8.398
13473WAT      O40660   3.129   1.743   6.073
13473WAT     H140661   3.165   1.769   6.162
13473WAT     H240662   3.159   1.809   6.004
13474WAT      O40663   0.956   1.382   6.356
13474WAT     H140664   0.870   1.331   6.348
13474WAT     H240665   0.948   1.468   6.306
13475WAT      O40666   4.178   0.029   0.793
13475WAT     H140667   4.168   0.051   0.890
13475WAT     H240668   4.100  -0.025   0.762
13476WAT      O40669   7.761   3.177   3.352
13476WAT     H140670   7.744   3.203   3.447
13476WAT     H240671   7.786   3.080   3.347
13477WAT      O40672   9.661   9.794   3.797
13477WAT     H140673   9.752   9.792   3.755
13477WAT     H240674   9.667   9.832   3.889
13478WAT      O40675   0.228   6.878   6.642
13478WAT     H140676   0.130   6.866   6.658
13478WAT     H240677   0.266   6.795   6.600
13479WAT      O40678   4.241   6.312   7.748
13479WAT     H140679   4.182   6.244   7.791
13479WAT     H240680   4.192   6.357   7.673
13480WAT      O40681   9.659   5.421   8.419
13480WAT     H140682   9.646   5.361   8.498
13480WAT     H240683   9.574   5.426   8.366
13481WAT      O40684   8.809   9.561   7.671
13481WAT     H140685   8.871   9.496   7.715
13481WAT     H240686   8.734   9.582   7.733
13482WAT      O40687   6.096   0.731   7.562
13482WAT     H140688   6.002   0.722   7.595
13482WAT     H240689   6.159   0.699   7.633
13483WAT      O40690   0.400   4.338   2.804
13483WAT     H140691   0.430   4.413   2.745
13483WAT     H240692   0.443   4.253   2.773
13484WAT      O40693   0.682   4.213   5.161
13484WAT     H140694   0.638   4.302   5.157
13484WAT     H240695   0.669   4.165   5.075
13485WAT      O40696   7.120   5.524   7.388
13485WAT     H140697   7.213   5.555   7.366
13485WAT     H240698   7.124   5.457   7.462
13486WAT      O40699   7.465   5.865   3.112
13486WAT     H140700   7.428   5.797   3.175
13486WAT     H240701   7.391   5.922   3.078
13487WAT      O40702   8.907   3.830   2.512
13487WAT     H140703   8.822   3.845   2.461
13487WAT     H240704   8.974   3.898   2.484
13488WAT      O40705   2.949   1.864   8.914
13488WAT     H140706   2.927   1.947   8.862
13488WAT     H240707   3.047   1.846   8.909
13489WAT      O40708   1.222   8.074   0.943
13489WAT     H140709   1.168   7.990   0.946
13489WAT     H240710   1.274   8.084   1.028
13490WAT      O40711   1.581   1.197   6.784
13490WAT     H140712   1.619   1.105   6.793
13490WAT     H240713   1.503   1.195   6.722
13491WAT      O40714   4.356   3.396   8.896
13491WAT     H140715   4.407   3.310   8.898
13491WAT     H240716   4.322   3.418   8.987
13492WAT      O40717   8.341   4.011   1.623
13492WAT     H140718   8.354   3.984   1.527
13492WAT     H240719   8.394   3.949   1.682
13493WAT      O40720   3.372   5.013   1.108
13493WAT     H140721   3.450   5.076   1.106
13493WAT     H240722   3.302   5.045   1.044
13494WAT      O40723   6.952   5.066   5.847
13494WAT     H140724   6.882   4.996   5.839
13494WAT     H240725   6.998   5.078   5.759
13495WAT      O40726   3.864   5.532   6.324
13495WAT     H140727   3.821   5.540   6.413
13495WAT     H240728   3.796   5.504   6.256
13496WAT      O40729   1.153   9.741   0.934
13496WAT     H140730   1.145   9.777   0.841
13496WAT     H240731   1.234   9.684   0.941
13497WAT      O40732   5.507   4.821   9.349
13497WAT     H140733   5.514   4.834   9.448
13497WAT     H240734   5.562   4.742   9.322
13498WAT      O40735   1.755   8.669   3.116
13498WAT     H140736   1.726   8.589   3.167
13498WAT     H240737   1.800   8.734   3.178
13499WAT      O40738   1.591   2.662   5.920
13499WAT     H140739   1.645   2.680   6.002
13499WAT     H240740   1.553   2.570   5.924
13500WAT      O40741   4.945   5.623   4.159
13500WAT     H140742   5.008   5.623   4.237
13500WAT     H240743   4.984   5.677   4.084
13501WAT      O40744   6.677   7.210   6.368
13501WAT     H140745   6.733   7.130   6.344
13501WAT     H240746   6.625   7.190   6.451
13502WAT      O40747   2.438   0.462   8.480
13502WAT     H140748   2.512   0.463   8.414
13502WAT     H240749   2.371   0.533   8.458
13503WAT      O40750   4.561   3.656   5.669
13503WAT     H140751   4.655   3.668   5.637
13503WAT     H240752   4.501   3.646   5.589
13504WAT      O40753   1.907   1.392   7.628
13504WAT     H140754   1.853   1.309   7.645
13504WAT     H240755   1.954   1.384   7.540
13505WAT      O40756   5.152   3.900   1.633
13505WAT     H140757   5.158   3.998   1.654
13505WAT     H240758   5.151   3.887   1.534
13506WAT      O40759   6.297   2.548   4.446
13506WAT     H140760   6.303   2.481   4.519
13506WAT     H240761   6.386   2.591   4.432
13507WAT      O40762   1.404   1.716   0.493
13507WAT     H140763   1.448   1.642   0.545
13507WAT     H240764   1.401   1.692   0.397
13508WAT      O40765   4.305   0.848   2.319
13508WAT     H140766   4.317   0.944   2.295
13508WAT     H240767   4.319   0.792   2.238
13509WAT      O40768   9.756   3.999   8.978
13509WAT     H140769   9.766   4.085   9.028
13509WAT     H240770   9.712   4.015   8.890
13510WAT      O40771   6.998   7.112   0.605
13510WAT     H140772   6.905   7.078   0.618
13510WAT     H240773   7.011   7.138   0.509
13511WAT      O40774   0.466   5.906   1.071
13511WAT     H140775   0.376   5.902   1.114
13511WAT     H240776   0.491   5.815   1.037
13512WAT      O40777   1.243   2.319   5.698
13512WAT     H140778   1.309   2.255   5.737
13512WAT     H240779   1.200   2.372   5.771
13513WAT      O40780   0.242   9.373   2.495
13513WAT     H140781   0.308   9.448   2.500
13513WAT     H240782   0.174   9.384   2.568
13514WAT      O40783   1.198   6.884   2.730
13514WAT     H140784   1.198   6.950   2.656
13514WAT     H240785   1.217   6.793   2.694
13515WAT      O40786   7.253   8.865   7.277
13515WAT     H140787   7.277   8.929   7.204
13515WAT     H240788   7.253   8.913   7.365
13516WAT      O40789   8.647   3.142   3.288
13516WAT     H140790   8.628   3.174   3.381
13516WAT     H240791   8.734   3.092   3.287
13517WAT      O40792   0.444   9.255   4.556
13517WAT     H140793   0.535   9.284   4.527
13517WAT     H240794   0.390   9.336   4.581
13518WAT      O40795   1.575   4.420  -0.001
13518WAT     H140796   1.616   4.332  -0.025
13518WAT     H240797   1.571   4.429   0.098
13519WAT      O40798   5.253   6.774   6.568
13519WAT     H140799   5.269   6.765   6.666
13519WAT     H240800   5.163   6.736   6.544
13520WAT      O40801   8.413   8.177   9.746
13520WAT     H140802   8.419   8.115   9.824
13520WAT     H240803   8.492   8.238   9.745
13521WAT      O40804   7.019   9.470   8.433
13521WAT     H140805   6.961   9.390   8.441
13521WAT     H240806   6.988   9.541   8.497
13522WAT      O40807   7.247   1.145   9.635
13522WAT     H140808   7.339   1.115   9.660
13522WAT     H240809   7.205   1.191   9.713
13523WAT      O40810   8.941   5.547   9.555
13523WAT     H140811   8.980   5.581   9.640
13523WAT     H240812   8.988   5.462   9.529
13524WAT      O40813   5.475   1.784   7.758
13524WAT     H140814   5.441   1.702   7.804
13524WAT     H240815   5.434   1.791   7.667
13525WAT      O40816   3.352   2.481   1.190
13525WAT     H140817   3.448   2.456   1.203
13525WAT     H240818   3.309   2.417   1.126
13526WAT      O40819   1.950   1.528   9.733
13526WAT     H140820   1.992   1.456   9.789
13526WAT     H240821   1.850   1.523   9.742
13527WAT      O40822   1.730   4.822   4.899
13527WAT     H140823   1.690   4.893   4.958
13527WAT     H240824   1.726   4.734   4.946
13528WAT      O40825   0.093   7.642   2.061
13528WAT     H140826   0.040   7.666   2.142
13528WAT     H240827   0.140   7.723   2.026
13529WAT      O40828   8.159   7.312   8.764
13529WAT     H140829   8.125   7.296   8.672
13529WAT     H240830   8.138   7.406   8.791
13530WAT      O40831   6.893   8.444   9.565
13530WAT     H140832   6.909   8.532   9.521
13530WAT     H240833   6.845   8.383   9.502
13531WAT      O40834   1.530   9.433   2.008
13531WAT     H140835   1.582   9.516   2.028
13531WAT     H240836   1.521   9.379   2.092
13532WAT      O40837   0.350   8.882   5.193
13532WAT     H140838   0.434   8.936   5.193
13532WAT     H240839   0.295   8.906   5.273
13533WAT      O40840   2.909   3.063   6.308
13533WAT     H140841   2.867   3.143   6.349
13533WAT     H240842   2.853   2.982   6.327
13534WAT      O40843   7.018   2.193   9.638
13534WAT     H140844   6.945   2.238   9.689
13534WAT     H240845   7.107   2.232   9.664
13535WAT      O40846   1.719   8.272   9.642
13535WAT     H140847   1.623   8.278   9.669
13535WAT     H240848   1.773   8.337   9.695
13536WAT      O40849   6.941   6.458   8.936
13536WAT     H140850   6.983   6.535   8.984
13536WAT     H240851   7.001   6.378   8.941
13537WAT      O40852   0.049   9.021   9.689
13537WAT     H140853   0.015   9.015   9.783
13537WAT     H240854   0.042   9.116   9.657
13538WAT      O40855   1.007   0.535   4.388
13538WAT     H140856   0.932   0.473   4.410
13538WAT     H240857   1.083   0.520   4.451
13539WAT      O40858   6.659   8.452   3.669
13539WAT     H140859   6.634   8.366   3.624
13539WAT     H240860   6.582   8.515   3.666
13540WAT      O40861   6.377   1.885   7.993
13540WAT     H140862   6.407   1.976   8.022
13540WAT     H240863   6.314   1.848   8.061
13541WAT      O40864   1.607   5.559   3.157
13541WAT     H140865   1.618   5.480   3.217
13541WAT     H240866   1.650   5.639   3.198
13542WAT      O40867   6.324   2.112   3.855
13542WAT     H140868   6.281   2.023   3.838
13542WAT     H240869   6.415   2.099   3.893
13543WAT      O40870   2.685   9.192   2.622
13543WAT     H140871   2.700   9.256   2.547
13543WAT     H240872   2.677   9.243   2.708
13544WAT      O40873   0.251   6.299   5.459
13544WAT     H140874   0.231   6.327   5.366
13544WAT     H240875   0.350   6.286   5.470
13545WAT      O40876   3.899   4.351   1.382
13545WAT     H140877   3.837   4.353   1.461
13545WAT     H240878   3.972   4.285   1.399
13546WAT      O40879   9.575   8.253   8.364
13546WAT     H140880   9.558   8.176   8.302
13546WAT     H240881   9.520   8.332   8.335
13547WAT      O40882   0.337   6.450   8.999
13547WAT     H140883   0.322   6.535   9.051
13547WAT     H240884   0.435   6.437   8.987
13548WAT      O40885   9.195   0.322   7.484
13548WAT     H140886   9.264   0.385   7.520
13548WAT     H240887   9.191   0.241   7.543
13549WAT      O40888   9.152   2.642   1.673
13549WAT     H140889   9.177   2.721   1.617
13549WAT     H240890   9.054   2.626   1.666
13550WAT      O40891   2.312   3.881   5.008
13550WAT     H140892   2.348   3.965   4.967
13550WAT     H240893   2.315   3.807   4.940
13551WAT      O40894   5.627   3.546   9.548
13551WAT     H140895   5.703   3.605   9.575
13551WAT     H240896   5.654   3.489   9.470
13552WAT      O40897   1.156   4.609   7.185
13552WAT     H140898   1.070   4.654   7.211
13552WAT     H240899   1.211   4.671   7.130
13553WAT      O40900   0.288   3.289   0.848
13553WAT     H140901   0.262   3.223   0.777
13553WAT     H240902   0.276   3.382   0.812
13554WAT      O40903   9.441   2.905   5.415
13554WAT     H140904   9.373   2.949   5.473
13554WAT     H240905   9.396   2.861   5.338
13555WAT      O40906   4.003   1.132   9.433
13555WAT     H140907   3.956   1.044   9.419
13555WAT     H240908   3.979   1.169   9.523
13556WAT      O40909   1.792   7.388   5.301
13556WAT     H140910   1.890   7.374   5.286
13556WAT     H240911   1.749   7.301   5.324
13557WAT      O40912   3.746   9.685   5.703
13557WAT     H140913   3.712   9.779   5.706
13557WAT     H240914   3.764   9.659   5.608
13558WAT      O40915   6.537   2.648   2.280
13558WAT     H140916   6.588   2.618   2.199
13558WAT     H240917   6.479   2.726   2.256
13559WAT      O40918   8.183   3.252   3.328
13559WAT     H140919   8.149   3.159   3.312
13559WAT     H240920   8.249   3.250   3.403
13560WAT      O40921   4.922   6.050   7.339
13560WAT     H140922   4.869   6.001   7.407
13560WAT     H240923   5.015   6.065   7.373
13561WAT      O40924   9.545   0.446   9.877
13561WAT     H140925   9.458   0.415   9.917
13561WAT     H240926   9.550   0.545   9.881
13562WAT      O40927   4.979   0.945   7.553
13562WAT     H140928   5.066   0.962   7.600
13562WAT     H240929   4.929   1.032   7.543
13563WAT      O40930   9.762   6.094   8.426
13563WAT     H140931   9.821   6.103   8.346
13563WAT     H240932   9.704   6.175   8.434
13564WAT      O40933   9.570   3.493   1.589
13564WAT     H140934   9.537   3.406   1.626
13564WAT     H240935   9.515   3.518   1.509
13565WAT      O40936   7.771   1.483   1.636
13565WAT     H140937   7.840   1.555   1.643
13565WAT     H240938   7.701   1.497   1.706
13566WAT      O40939   7.327   2.175   8.711
13566WAT     H140940   7.399   2.116   8.673
13566WAT     H240941   7.329   2.170   8.811
13567WAT      O40942   2.419   3.085   9.063
13567WAT     H140943   2.385   3.177   9.043
13567WAT     H240944   2.362   3.044   9.135
13568WAT      O40945   8.798   8.710   4.273
13568WAT     H140946   8.832   8.696   4.180
13568WAT     H240947   8.867   8.759   4.327
13569WAT      O40948   9.863   5.853   9.179
13569WAT     H140949   9.813   5.844   9.093
13569WAT     H240950   9.873   5.763   9.222
13570WAT      O40951   6.963   7.767   6.432
13570WAT     H140952   6.966   7.762   6.532
13570WAT     H240953   7.012   7.688   6.393
13571WAT      O40954   1.519   3.451   5.360
13571WAT     H140955   1.420   3.439   5.364
13571WAT     H240956   1.565   3.372   5.400
13572WAT      O40957   0.975   3.245   0.147
13572WAT     H140958   0.923   3.283   0.224
13572WAT     H240959   1.070   3.277   0.152
13573WAT      O40960   7.642   6.471   8.721
13573WAT     H140961   7.663   6.471   8.819
13573WAT     H240962   7.603   6.559   8.695
13574WAT      O40963   5.247   1.049   9.629
13574WAT     H140964   5.210   0.980   9.691
13574WAT     H240965   5.300   1.004   9.557
13575WAT      O40966   8.994   5.253   1.198
13575WAT     H140967   8.979   5.241   1.099
13575WAT     H240968   8.948   5.179   1.247
13576WAT      O40969   0.995   3.216   2.728
13576WAT     H140970   1.093   3.217   2.747
13576WAT     H240971   0.971   3.131   2.682
13577WAT      O40972   9.769   2.355   3.155
13577WAT     H140973   9.862   2.366   3.123
13577WAT     H240974   9.735   2.441   3.191
13578WAT      O40975   2.205   2.363   9.560
13578WAT     H140976   2.300   2.364   9.528
13578WAT     H240977   2.158   2.446   9.529
13579WAT      O40978   0.766   1.849   1.147
13579WAT     H140979   0.780   1.750   1.156
13579WAT     H240980   0.850   1.891   1.115
13580WAT      O40981   1.518   3.604   8.541
13580WAT     H140982   1.427   3.642   8.555
13580WAT     H240983   1.514   3.504   8.549
13581WAT      O40984   7.855   5.396   8.406
13581WAT     H140985   7.813   5.484   8.383
13581WAT     H240986   7.825   5.326   8.341
13582WAT      O40987   5.759   2.126   3.427
13582WAT     H140988   5.766   2.152   3.330
13582WAT     H240989   5.849   2.104   3.462
13583WAT      O40990   3.933   0.315   5.669
13583WAT     H140991   4.007   0.368   5.627
13583WAT     H240992   3.845   0.349   5.635
13584WAT      O40993   2.855   3.101   9.518
13584WAT     H140994   2.867   3.109   9.419
13584WAT     H240995   2.919   3.164   9.563
13585WAT      O40996   8.402   1.480   6.501
13585WAT     H140997   8.424   1.576   6.485
13585WAT     H240998   8.403   1.430   6.414
13586WAT      O40999   5.259   8.169   8.141
13586WAT     H141000   5.186   8.158   8.074
13586WAT     H241001   5.254   8.260   8.182
13587WAT      O41002   0.965   0.668   5.894
13587WAT     H141003   0.917   0.753   5.869
13587WAT     H241004   1.061   0.674   5.867
13588WAT      O41005   3.295   7.467   1.774
13588WAT     H141006   3.292   7.542   1.840
13588WAT     H241007   3.386   7.460   1.734
13589WAT      O41008   5.043   8.987   8.224
13589WAT     H141009   4.976   9.059   8.241
13589WAT     H241010   5.093   8.967   8.308
13590WAT      O41011   4.891   4.763   8.790
13590WAT     H141012   4.900   4.862   8.779
13590WAT     H241013   4.975   4.727   8.830
13591WAT      O41014   9.845   2.645   2.953
13591WAT     H141015   9.832   2.712   3.026
13591WAT     H241016   9.934   2.600   2.965
13592WAT      O41017   8.450   1.347   2.472
13592WAT     H141018   8.523   1.406   2.439
13592WAT     H241019   8.461   1.255   2.433
13593WAT      O41020   9.512   2.742   1.258
13593WAT     H141021   9.536   2.645   1.250
13593WAT     H241022   9.538   2.790   1.174
13594WAT      O41023   6.656   6.155   9.550
13594WAT     H141024   6.648   6.066   9.596
13594WAT     H241025   6.700   6.220   9.611
13595WAT      O41026   8.703   0.898   6.146
13595WAT     H141027   8.640   0.931   6.076
13595WAT     H241028   8.688   0.801   6.161
13596WAT      O41029   6.020   5.633   8.051
13596WAT     H141030   5.961   5.692   8.106
13596WAT     H241031   5.966   5.559   8.010
13597WAT      O41032   6.677   9.211   6.311
13597WAT     H141033   6.701   9.114   6.316
13597WAT     H241034   6.584   9.224   6.344
13598WAT      O41035   3.836   1.064   1.226
13598WAT     H141036   3.852   1.136   1.158
13598WAT     H241037   3.908   1.066   1.295
13599WAT      O41038   2.722   8.129   3.126
13599WAT     H141039   2.807   8.117   3.178
13599WAT     H241040   2.668   8.045   3.131
13600WAT      O41041   8.251   0.244   1.495
13600WAT     H141042   8.189   0.323   1.505
13600WAT     H241043   8.300   0.229   1.581
13601WAT      O41044   7.866   0.179   7.465
13601WAT     H141045   7.801   0.213   7.397
13601WAT     H241046   7.958   0.211   7.442
13602WAT      O41047   3.900   6.949   1.030
13602WAT     H141048   3.834   7.004   1.081
13602WAT     H241049   3.926   6.869   1.085
13603WAT      O41050   5.595   4.338   8.547
13603WAT     H141051   5.586   4.292   8.636
13603WAT     H241052   5.573   4.435   8.557
13604WAT      O41053   8.941   6.992   6.649
13604WAT     H141054   8.900   7.082   6.634
13604WAT     H241055   9.033   7.003   6.688
13605WAT      O41056   0.444   9.628   0.243
13605WAT     H141057   0.437   9.563   0.318
13605WAT     H241058   0.515   9.598   0.179
13606WAT      O41059   4.933   3.833   2.163
13606WAT     H141060   4.863   3.889   2.119
13606WAT     H241061   4.912   3.736   2.148
13607WAT      O41062   2.145   1.081   8.301
13607WAT     H141063   2.223   1.044   8.250
13607WAT     H241064   2.164   1.175   8.327
13608WAT      O41065   9.508   4.556   4.400
13608WAT     H141066   9.489   4.588   4.493
13608WAT     H241067   9.604   4.573   4.378
13609WAT      O41068   4.943   7.455   5.839
13609WAT     H141069   4.894   7.542   5.831
13609WAT     H241070   4.958   7.417   5.748
13610WAT      O41071   7.864   3.007   1.866
13610WAT     H141072   7.911   3.095   1.857
13610WAT     H241073   7.927   2.938   1.902
13611WAT      O41074   4.673   2.695   1.849
13611WAT     H141075   4.654   2.607   1.807
13611WAT     H241076   4.678   2.766   1.778
13612WAT      O41077   2.558   1.228   4.625
13612WAT     H141078   2.535   1.243   4.529
13612WAT     H241079   2.487   1.171   4.668
13613WAT      O41080   5.425   2.489   7.174
13613WAT     H141081   5.498   2.550   7.144
13613WAT     H241082   5.464   2.411   7.223
13614WAT      O41083   7.520   3.759   7.618
13614WAT     H141084   7.575   3.800   7.544
13614WAT     H241085   7.540   3.662   7.625
13615WAT      O41086   5.573   6.066   6.867
13615WAT     H141087   5.667   6.067   6.901
13615WAT     H241088   5.571   6.096   6.772
13616WAT      O41089   4.079   5.585   7.536
13616WAT     H141090   4.050   5.506   7.589
13616WAT     H241091   4.033   5.585   7.447
13617WAT      O41092   8.902   3.175   8.463
13617WAT     H141093   8.944   3.244   8.523
13617WAT     H241094   8.955   3.090   8.469
13618WAT      O41095   4.380   8.959   2.132
13618WAT     H141096   4.467   9.001   2.108
13618WAT     H241097   4.305   9.012   2.091
13619WAT      O41098   4.968   4.591   4.978
13619WAT     H141099   4.962   4.499   5.018
13619WAT     H241100   4.973   4.584   4.879
13620WAT      O41101   6.483   3.506   0.686
13620WAT     H141102   6.550   3.434   0.667
13620WAT     H241103   6.391   3.471   0.669
13621WAT      O41104   8.209   3.789   0.121
13621WAT     H141105   8.257   3.877   0.122
13621WAT     H241106   8.170   3.772   0.211
13622WAT      O41107   9.794   2.207   3.791
13622WAT     H141108   9.758   2.260   3.714
13622WAT     H241109   9.721   2.191   3.858
13623WAT      O41110   0.307   5.040   2.060
13623WAT     H141111   0.273   5.117   2.007
13623WAT     H241112   0.280   4.954   2.017
13624WAT      O41113   0.138   3.986   0.578
13624WAT     H141114   0.101   4.079   0.568
13624WAT     H241115   0.142   3.943   0.488
13625WAT      O41116   4.243   0.614   3.411
13625WAT     H141117   4.168   0.650   3.466
13625WAT     H241118   4.330   0.650   3.447
13626WAT      O41119   1.206   4.483   3.429
13626WAT     H141120   1.168   4.433   3.507
13626WAT     H241121   1.230   4.420   3.356
13627WAT      O41122   5.401   0.435   4.268
13627WAT     H141123   5.483   0.482   4.299
13627WAT     H241124   5.322   0.466   4.321
13628WAT      O41125   6.803   4.121   2.064
13628WAT     H141126   6.755   4.035   2.077
13628WAT     H241127   6.853   4.145   2.148
13629WAT      O41128   0.136   0.292   1.289
13629WAT     H141129   0.122   0.256   1.197
13629WAT     H241130   0.185   0.224   1.344
13630WAT      O41131   2.167   5.544   6.618
13630WAT     H141132   2.243   5.568   6.678
13630WAT     H241133   2.148   5.446   6.627
13631WAT      O41134   6.441   7.418   1.122
13631WAT     H141135   6.449   7.502   1.176
13631WAT     H241136   6.354   7.373   1.142
13632WAT      O41137   4.357   7.876   7.502
13632WAT     H141138   4.449   7.871   7.541
13632WAT     H241139   4.291   7.838   7.567
13633WAT      O41140   8.698   2.121   2.759
13633WAT     H141141   8.791   2.157   2.760
13633WAT     H241142   8.699   2.025   2.787
13634WAT      O41143   2.966   1.760   4.407
13634WAT     H141144   3.056   1.742   4.446
13634WAT     H241145   2.898   1.765   4.481
13635WAT      O41146   0.700   8.941   9.586
13635WAT     H141147   0.759   8.890   9.523
13635WAT     H241148   0.728   9.037   9.587
13636WAT      O41149   2.252   8.275   7.803
13636WAT     H141150   2.176   8.335   7.828
13636WAT     H241151   2.337   8.310   7.841
13637WAT      O41152   1.985   7.068   8.418
13637WAT     H141153   2.016   7.064   8.323
13637WAT     H241154   1.891   7.102   8.421
13638WAT      O41155   0.823   7.465   2.879
13638WAT     H141156   0.855   7.382   2.835
13638WAT     H241157   0.744   7.501   2.829
13639WAT      O41158   6.459   7.613   1.307
13639WAT     H141159   6.442   7.709   1.331
13639WAT     H241160   6.528   7.576   1.369
13640WAT      O41161   0.949   4.369   3.758
13640WAT     H141162   0.988   4.458   3.777
13640WAT     H241163   0.960   4.347   3.661
13641WAT      O41164   2.733   1.780   7.675
13641WAT     H141165   2.754   1.721   7.753
13641WAT     H241166   2.651   1.747   7.629
13642WAT      O41167   9.737   8.252   1.915
13642WAT     H141168   9.759   8.202   1.831
13642WAT     H241169   9.767   8.347   1.906
13643WAT      O41170   4.827   0.231   3.735
13643WAT     H141171   4.869   0.313   3.773
13643WAT     H241172   4.804   0.168   3.810
13644WAT      O41173   1.402   0.978   5.593
13644WAT     H141174   1.471   1.042   5.558
13644WAT     H241175   1.379   0.912   5.521
13645WAT      O41176   6.798   4.070   0.520
13645WAT     H141177   6.839   4.103   0.604
13645WAT     H241178   6.700   4.053   0.534
13646WAT      O41179   0.661   0.563   0.479
13646WAT     H141180   0.659   0.608   0.568
13646WAT     H241181   0.704   0.623   0.412
13647WAT      O41182   3.013   2.368   1.098
13647WAT     H141183   3.092   2.363   1.037
13647WAT     H241184   3.045   2.376   1.193
13648WAT      O41185   5.748   2.425   6.951
13648WAT     H141186   5.825   2.448   7.010
13648WAT     H241187   5.682   2.369   7.002
13649WAT      O41188   4.208   4.777   2.909
13649WAT     H141189   4.196   4.873   2.885
13649WAT     H241190   4.305   4.753   2.903
13650WAT      O41191   9.873   0.892   1.613
13650WAT     H141192   9.821   0.824   1.561
13650WAT     H241193   9.885   0.860   1.707
13651WAT      O41194   2.147   4.424   1.983
13651WAT     H141195   2.204   4.381   1.914
13651WAT     H241196   2.198   4.499   2.026
13652WAT      O41197   0.988   2.872   6.169
13652WAT     H141198   0.900   2.833   6.196
13652WAT     H241199   1.024   2.927   6.245
13653WAT      O41200   2.205   2.092   0.924
13653WAT     H141201   2.200   2.179   0.972
13653WAT     H241202   2.224   2.019   0.990
13654WAT      O41203   6.323   8.689   7.184
13654WAT     H141204   6.312   8.777   7.137
13654WAT     H241205   6.391   8.699   7.257
13655WAT      O41206   7.875   6.117   3.167
13655WAT     H141207   7.818   6.040   3.140
13655WAT     H241208   7.822   6.180   3.224
13656WAT      O41209   3.073   0.078   1.311
13656WAT     H141210   3.169   0.088   1.337
13656WAT     H241211   3.015   0.111   1.385
13657WAT      O41212   5.029   7.735   0.456
13657WAT     H141213   5.067   7.827   0.466
13657WAT     H241214   4.989   7.706   0.542
13658WAT      O41215   8.018   3.195   0.367
13658WAT     H141216   7.981   3.172   0.457
13658WAT     H241217   8.088   3.127   0.341
13659WAT      O41218   1.404   7.592   2.012
13659WAT     H141219   1.462   7.519   1.976
13659WAT     H241220   1.326   7.552   2.059
13660WAT      O41221   0.768   0.080   2.477
13660WAT     H141222   0.754  -0.017   2.454
13660WAT     H241223   0.865   0.102   2.470
13661WAT      O41224   0.512   2.512   4.212
13661WAT     H141225   0.412   2.503   4.208
13661WAT     H241226   0.547   2.451   4.283
13662WAT      O41227   5.616   0.025   8.042
13662WAT     H141228   5.526   0.025   7.999
13662WAT     H241229   5.636   0.117   8.076
13663WAT      O41230   2.225   8.088   2.193
13663WAT     H141231   2.250   8.041   2.278
13663WAT     H241232   2.257   8.035   2.115
13664WAT      O41233   8.157   7.122   1.334
13664WAT     H141234   8.060   7.145   1.321
13664WAT     H241235   8.175   7.107   1.431
13665WAT      O41236   0.392   0.007   0.028
13665WAT     H141237   0.438   0.079   0.081
13665WAT     H241238   0.438  -0.080   0.044
13666WAT      O41239   3.941   5.489   8.931
13666WAT     H141240   4.010   5.434   8.976
13666WAT     H241241   3.972   5.584   8.925
13667WAT      O41242   9.054   7.832   0.766
13667WAT     H141243   9.025   7.902   0.700
13667WAT     H241244   9.145   7.798   0.741
13668WAT      O41245   6.714   3.321   4.361
13668WAT     H141246   6.750   3.347   4.451
13668WAT     H241247   6.672   3.401   4.318
13669WAT      O41248   5.245   4.514   0.188
13669WAT     H141249   5.279   4.606   0.167
13669WAT     H241250   5.176   4.519   0.260
13670WAT      O41251   4.212   1.794   9.094
13670WAT     H141252   4.129   1.792   9.037
13670WAT     H241253   4.222   1.706   9.140
13671WAT      O41254   6.726   0.211   0.109
13671WAT     H141255   6.753   0.296   0.065
13671WAT     H241256   6.710   0.141   0.040
13672WAT      O41257   7.111   0.413   4.479
13672WAT     H141258   7.206   0.413   4.448
13672WAT     H241259   7.107   0.423   4.578
13673WAT      O41260   0.857   2.038   0.036
13673WAT     H141261   0.896   2.112  -0.019
13673WAT     H241262   0.911   2.026   0.119
13674WAT      O41263   0.498   3.327   1.284
13674WAT     H141264   0.575   3.385   1.310
13674WAT     H241265   0.514   3.233   1.313
13675WAT      O41266   2.281   8.548   9.730
13675WAT     H141267   2.274   8.616   9.803
13675WAT     H241268   2.218   8.473   9.748
13676WAT      O41269   4.535   1.088   1.145
13676WAT     H141270   4.440   1.089   1.111
13676WAT     H241271   4.595   1.121   1.072
13677WAT      O41272   0.656   2.385   2.468
13677WAT     H141273   0.576   2.442   2.488
13677WAT     H241274   0.638   2.291   2.496
13678WAT      O41275   8.518   1.055   2.153
13678WAT     H141276   8.611   1.034   2.120
13678WAT     H241277   8.516   1.052   2.253
13679WAT      O41278   0.156   4.175   9.869
13679WAT     H141279   0.210   4.235   9.928
13679WAT     H241280   0.065   4.163   9.907
13680WAT      O41281   4.674   9.344   9.169
13680WAT     H141282   4.765   9.356   9.128
13680WAT     H241283   4.675   9.264   9.228
13681WAT      O41284   9.305   0.869   5.890
13681WAT     H141285   9.250   0.937   5.841
13681WAT     H241286   9.394   0.908   5.912
13682WAT      O41287   7.220   9.200   3.559
13682WAT     H141288   7.305   9.148   3.547
13682WAT     H241289   7.214   9.270   3.488
13683WAT      O41290   3.617   2.548   7.961
13683WAT     H141291   3.655   2.594   7.881
13683WAT     H241292   3.647   2.453   7.962
13684WAT      O41293   1.317   1.905   9.809
13684WAT     H141294   1.257   1.877   9.735
13684WAT     H241295   1.294   1.855   9.892
13685WAT      O41296   6.475   6.469   8.176
13685WAT     H141297   6.415   6.452   8.254
13685WAT     H241298   6.453   6.406   8.102
13686WAT      O41299   1.490   2.102   3.005
13686WAT     H141300   1.468   2.135   2.913
13686WAT     H241301   1.589   2.106   3.020
13687WAT      O41302   0.129   7.626   1.314
13687WAT     H141303   0.063   7.560   1.351
13687WAT     H241304   0.197   7.647   1.384
13688WAT      O41305   2.164   2.257   2.018
13688WAT     H141306   2.213   2.293   2.098
13688WAT     H241307   2.216   2.276   1.935
13689WAT      O41308   4.779   8.195   9.409
13689WAT     H141309   4.691   8.231   9.377
13689WAT     H241310   4.776   8.095   9.406
13690WAT      O41311   6.416   0.773   3.859
13690WAT     H141312   6.500   0.745   3.813
13690WAT     H241313   6.338   0.761   3.797
13691WAT      O41314   2.392   7.423   6.408
13691WAT     H141315   2.351   7.512   6.386
13691WAT     H241316   2.491   7.429   6.398
13692WAT      O41317   0.389   2.658   1.989
13692WAT     H141318   0.409   2.565   2.021
13692WAT     H241319   0.426   2.724   2.054
13693WAT      O41320   4.372   0.751   5.337
13693WAT     H141321   4.407   0.668   5.294
13693WAT     H241322   4.296   0.788   5.282
13694WAT      O41323   6.103   2.581   2.304
13694WAT     H141324   6.169   2.535   2.246
13694WAT     H241325   6.097   2.534   2.392
13695WAT      O41326   2.114   9.403   3.713
13695WAT     H141327   2.212   9.385   3.717
13695WAT     H241328   2.098   9.502   3.720
13696WAT      O41329   0.858   3.061   3.383
13696WAT     H141330   0.921   3.135   3.360
13696WAT     H241331   0.905   2.973   3.375
13697WAT      O41332   5.817   5.541   3.453
13697WAT     H141333   5.784   5.526   3.546
13697WAT     H241334   5.854   5.634   3.446
13698WAT      O41335   0.138   7.796   9.007
13698WAT     H141336   0.173   7.836   9.091
13698WAT     H241337   0.096   7.707   9.027
13699WAT      O41338   8.575   2.208   6.585
13699WAT     H141339   8.661   2.164   6.611
13699WAT     H241340   8.568   2.297   6.631
13700WAT      O41341   2.050   0.771   2.060
13700WAT     H141342   2.093   0.845   2.111
13700WAT     H241343   2.032   0.694   2.121
13701WAT      O41344   5.638   6.173   6.290
13701WAT     H141345   5.682   6.169   6.200
13701WAT     H241346   5.708   6.189   6.360
13702WAT      O41347   3.168   4.246   3.340
13702WAT     H141348   3.070   4.227   3.329
13702WAT     H241349   3.205   4.281   3.254
13703WAT      O41350   6.916   6.173   7.757
13703WAT     H141351   6.908   6.074   7.767
13703WAT     H241352   6.921   6.215   7.847
13704WAT      O41353   8.940   3.605   7.245
13704WAT     H141354   8.981   3.637   7.160
13704WAT     H241355   9.011   3.577   7.309
13705WAT      O41356   8.784   2.685   7.755
13705WAT     H141357   8.778   2.665   7.853
13705WAT     H241358   8.764   2.782   7.740
13706WAT      O41359   7.073   0.052   0.107
13706WAT     H141360   7.066   0.152   0.102
13706WAT     H241361   7.060   0.023   0.202
13707WAT      O41362   8.726   9.575   8.774
13707WAT     H141363   8.706   9.477   8.769
13707WAT     H241364   8.683   9.613   8.856
13708WAT      O41365   0.134   7.743   6.540
13708WAT     H141366   0.072   7.727   6.618
13708WAT     H241367   0.178   7.657   6.514
13709WAT      O41368   7.495   6.327   9.885
13709WAT     H141369   7.479   6.228   9.878
13709WAT     H241370   7.571   6.352   9.826
13710WAT      O41371   8.820   6.467   0.605
13710WAT     H141372   8.874   6.453   0.688
13710WAT     H241373   8.731   6.506   0.629
13711WAT      O41374   6.374   9.175   3.065
13711WAT     H141375   6.328   9.118   3.134
13711WAT     H241376   6.314   9.185   2.986
13712WAT      O41377   8.381   5.105   1.729
13712WAT     H141378   8.443   5.075   1.657
13712WAT     H241379   8.370   5.032   1.797
13713WAT      O41380   2.035   4.290   4.910
13713WAT     H141381   1.938   4.317   4.913
13713WAT     H241382   2.069   4.301   4.816
13714WAT      O41383   4.452   3.973   5.400
13714WAT     H141384   4.369   3.987   5.347
13714WAT     H241385   4.429   3.967   5.497
13715WAT      O41386   9.636   6.775   6.685
13715WAT     H141387   9.672   6.718   6.759
13715WAT     H241388   9.536   6.778   6.691
13716WAT      O41389   7.384   5.524   9.457
13716WAT     H141390   7.297   5.520   9.409
13716WAT     H241391   7.454   5.562   9.397
13717WAT      O41392   6.317   5.521   8.879
13717WAT     H141393   6.321   5.602   8.936
13717WAT     H241394   6.380   5.452   8.914
13718WAT      O41395   3.560   6.036   4.527
13718WAT     H141396   3.498   6.054   4.452
13718WAT     H241397   3.559   5.938   4.549
13719WAT      O41398   7.402   5.534   4.604
13719WAT     H141399   7.374   5.613   4.659
13719WAT     H241400   7.427   5.459   4.664
13720WAT      O41401   4.195   5.226   0.517
13720WAT     H141402   4.225   5.164   0.589
13720WAT     H241403   4.256   5.305   0.514
13721WAT      O41404   3.163   1.218   6.512
13721WAT     H141405   3.262   1.203   6.523
13721WAT     H241406   3.139   1.208   6.416
13722WAT      O41407   5.330   1.821   3.836
13722WAT     H141408   5.254   1.822   3.771
13722WAT     H241409   5.409   1.777   3.793
13723WAT      O41410   0.870   1.960   9.652
13723WAT     H141411   0.950   1.904   9.631
13723WAT     H241412   0.865   1.975   9.751
13724WAT      O41413   9.795   7.938   8.349
13724WAT     H141414   9.895   7.927   8.351
13724WAT     H241415   9.753   7.855   8.312
13725WAT      O41416   1.942   5.679   6.646
13725WAT     H141417   2.033   5.641   6.628
13725WAT     H241418   1.903   5.713   6.560
13726WAT      O41419   5.974   8.923   0.060
13726WAT     H141420   5.905   8.993   0.075
13726WAT     H241421   6.007   8.889   0.148
13727WAT      O41422   9.874   3.312   3.392
13727WAT     H141423   9.915   3.325   3.482
13727WAT     H241424   9.778   3.341   3.394
13728WAT      O41425   4.727   6.941   2.536
13728WAT     H141426   4.700   6.950   2.632
13728WAT     H241427   4.795   6.868   2.527
13729WAT      O41428   9.316   2.007   6.427
13729WAT     H141429   9.238   1.983   6.484
13729WAT     H241430   9.362   1.923   6.397
13730WAT      O41431   2.454   4.680   7.924
13730WAT     H141432   2.478   4.594   7.968
13730WAT     H241433   2.355   4.692   7.929
13731WAT      O41434   4.456   5.130   3.621
13731WAT     H141435   4.406   5.074   3.555
13731WAT     H241436   4.555   5.122   3.603
13732WAT      O41437   5.929   5.964   5.226
13732WAT     H141438   6.016   5.930   5.262
13732WAT     H241439   5.930   6.064   5.226
13733WAT      O41440   8.008   9.755   9.816
13733WAT     H141441   7.959   9.824   9.870
13733WAT     H241442   8.061   9.800   9.745
13734WAT      O41443   0.203   2.607   6.311
13734WAT     H141444   0.192   2.553   6.394
13734WAT     H241445   0.299   2.605   6.283
13735WAT      O41446   5.649   9.803   9.689
13735WAT     H141447   5.640   9.829   9.593
13735WAT     H241448   5.734   9.751   9.701
13736WAT      O41449   3.334   0.608   9.372
13736WAT     H141450   3.295   0.537   9.314
13736WAT     H241451   3.304   0.594   9.466
13737WAT      O41452   5.881   9.365   9.486
13737WAT     H141453   5.838   9.451   9.516
13737WAT     H241454   5.974   9.384   9.454
13738WAT      O41455   6.238   3.836   5.905
13738WAT     H141456   6.292   3.906   5.950
13738WAT     H241457   6.296   3.758   5.883
13739WAT      O41458   6.758   1.614   4.960
13739WAT     H141459   6.824   1.657   5.021
13739WAT     H241460   6.723   1.530   5.002
13740WAT      O41461   0.721   2.525   2.209
13740WAT     H141462   0.736   2.487   2.300
13740WAT     H241463   0.652   2.597   2.214
13741WAT      O41464   9.293   0.100   6.682
13741WAT     H141465   9.194   0.104   6.666
13741WAT     H241466   9.319   0.007   6.709
13742WAT      O41467   9.494   9.790   6.419
13742WAT     H141468   9.454   9.698   6.420
13742WAT     H241469   9.528   9.813   6.510
13743WAT      O41470   2.915   7.660   5.649
13743WAT     H141471   3.013   7.643   5.643
13743WAT     H241472   2.873   7.594   5.712
13744WAT      O41473   1.055   7.478   1.836
13744WAT     H141474   1.096   7.484   1.927
13744WAT     H241475   0.960   7.448   1.845
13745WAT      O41476   6.884   4.771   9.783
13745WAT     H141477   6.788   4.751   9.768
13745WAT     H241478   6.938   4.687   9.774
13746WAT      O41479   8.937   1.371   1.649
13746WAT     H141480   8.981   1.319   1.722
13746WAT     H241481   8.839   1.349   1.646
13747WAT      O41482   8.246   0.384   6.716
13747WAT     H141483   8.152   0.419   6.716
13747WAT     H241484   8.297   0.423   6.640
13748WAT      O41485   5.564   3.056   0.333
13748WAT     H141486   5.623   3.136   0.324
13748WAT     H241487   5.496   3.056   0.260
13749WAT      O41488   0.511   6.458   9.257
13749WAT     H141489   0.548   6.389   9.319
13749WAT     H241490   0.500   6.418   9.166
13750WAT      O41491   4.673   4.448   2.437
13750WAT     H141492   4.658   4.377   2.505
13750WAT     H241493   4.684   4.537   2.483
13751WAT      O41494   3.001   7.051   0.864
13751WAT     H141495   3.005   6.957   0.897
13751WAT     H241496   2.913   7.091   0.890
13752WAT      O41497   3.080   0.028   3.346
13752WAT     H141498   3.017   0.004   3.273
13752WAT     H241499   3.175   0.019   3.314
13753WAT      O41500   9.521   7.130   5.435
13753WAT     H141501   9.556   7.186   5.360
13753WAT     H241502   9.509   7.187   5.516
13754WAT      O41503   5.535   2.644   9.498
13754WAT     H141504   5.483   2.630   9.582
13754WAT     H241505   5.504   2.728   9.453
13755WAT      O41506   6.100   1.943   4.267
13755WAT     H141507   6.116   2.020   4.205
13755WAT     H241508   6.083   1.978   4.359
13756WAT      O41509   7.566   8.652   6.154
13756WAT     H141510   7.501   8.627   6.082
13756WAT     H241511   7.614   8.736   6.127
13757WAT      O41512   0.220   2.771   7.379
13757WAT     H141513   0.244   2.748   7.473
13757WAT     H241514   0.303   2.793   7.328
13758WAT      O41515   6.277   8.198   0.145
13758WAT     H141516   6.264   8.115   0.091
13758WAT     H241517   6.231   8.188   0.233
13759WAT      O41518   3.804   7.920   6.754
13759WAT     H141519   3.770   7.979   6.681
13759WAT     H241520   3.759   7.831   6.750
13760WAT      O41521   8.892   6.236   9.689
13760WAT     H141522   8.843   6.315   9.726
13760WAT     H241523   8.872   6.227   9.591
13761WAT      O41524   5.456   8.947   4.633
13761WAT     H141525   5.522   9.004   4.585
13761WAT     H241526   5.383   8.920   4.571
13762WAT      O41527   3.930   8.200   6.451
13762WAT     H141528   3.961   8.292   6.429
13762WAT     H241529   3.838   8.204   6.490
13763WAT      O41530   6.615   7.745   9.198
13763WAT     H141531   6.696   7.764   9.143
13763WAT     H241532   6.539   7.801   9.167
13764WAT      O41533   0.255   7.262   7.704
13764WAT     H141534   0.335   7.293   7.755
13764WAT     H241535   0.260   7.163   7.691
13765WAT      O41536   2.704   1.432   6.525
13765WAT     H141537   2.619   1.413   6.574
13765WAT     H241538   2.779   1.380   6.567
13766WAT      O41539   2.110   2.776   5.987
13766WAT     H141540   2.155   2.853   5.941
13766WAT     H241541   2.011   2.791   5.988
13767WAT      O41542   1.303   9.151   2.754
13767WAT     H141543   1.301   9.079   2.684
13767WAT     H241544   1.375   9.130   2.820
13768WAT      O41545   2.449   3.827   4.096
13768WAT     H141546   2.521   3.758   4.105
13768WAT     H241547   2.490   3.913   4.066
13769WAT      O41548   4.265   5.945   2.795
13769WAT     H141549   4.357   5.926   2.829
13769WAT     H241550   4.234   5.870   2.737
13770WAT      O41551   5.792   9.048   6.530
13770WAT     H141552   5.778   8.955   6.496
13770WAT     H241553   5.787   9.113   6.454
13771WAT      O41554   8.998   6.598   0.029
13771WAT     H141555   9.047   6.677   0.067
13771WAT     H241556   9.054   6.554  -0.041
13772WAT      O41557   2.963   3.653   0.074
13772WAT     H141558   2.967   3.753   0.068
13772WAT     H241559   3.052   3.615   0.050
13773WAT      O41560   7.148   6.831   6.633
13773WAT     H141561   7.238   6.843   6.590
13773WAT     H241562   7.077   6.842   6.563
13774WAT      O41563   4.226   7.414   7.697
13774WAT     H141564   4.319   7.450   7.696
13774WAT     H241565   4.168   7.469   7.637
13775WAT      O41566   8.348   4.747   6.625
13775WAT     H141567   8.418   4.764   6.694
13775WAT     H241568   8.263   4.722   6.669
13776WAT      O41569   1.135   5.332   0.211
13776WAT     H141570   1.200   5.382   0.270
13776WAT     H241571   1.144   5.234   0.229
13777WAT      O41572   5.473   4.241   9.840
13777WAT     H141573   5.513   4.151   9.822
13777WAT     H241574   5.539   4.298   9.889
13778WAT      O41575   1.399   1.284   0.090
13778WAT     H141576   1.362   1.309   0.180
13778WAT     H241577   1.355   1.339   0.019
13779WAT      O41578   6.702   6.340   3.599
13779WAT     H141579   6.609   6.303   3.597
13779WAT     H241580   6.738   6.335   3.692
13780WAT      O41581   0.293   8.939   2.561
13780WAT     H141582   0.318   8.971   2.470
13780WAT     H241583   0.247   9.013   2.611
13781WAT      O41584   0.145   8.607   6.572
13781WAT     H141585   0.095   8.665   6.508
13781WAT     H241586   0.226   8.570   6.527
13782WAT      O41587   7.062   8.646   4.309
13782WAT     H141588   7.155   8.610   4.304
13782WAT     H241589   7.017   8.614   4.393
13783WAT      O41590   3.345   8.988   2.449
13783WAT     H141591   3.428   9.040   2.431
13783WAT     H241592   3.267   9.032   2.403
13784WAT      O41593   8.115   3.241   5.317
13784WAT     H141594   8.180   3.168   5.340
13784WAT     H241595   8.095   3.294   5.399
13785WAT      O41596   1.010   5.400   1.418
13785WAT     H141597   1.096   5.381   1.371
13785WAT     H241598   0.950   5.453   1.357
13786WAT      O41599   6.325   5.320   9.112
13786WAT     H141600   6.229   5.295   9.118
13786WAT     H241601   6.361   5.336   9.205
13787WAT      O41602   2.941   7.548   8.322
13787WAT     H141603   2.908   7.499   8.241
13787WAT     H241604   2.971   7.640   8.295
13788WAT      O41605   1.389   5.174   1.532
13788WAT     H141606   1.335   5.164   1.616
13788WAT     H241607   1.386   5.269   1.501
13789WAT      O41608   4.683   8.629   1.280
13789WAT     H141609   4.597   8.584   1.259
13789WAT     H241610   4.707   8.693   1.207
13790WAT      O41611   0.258   2.779   3.761
13790WAT     H141612   0.265   2.760   3.859
13790WAT     H241613   0.226   2.697   3.713
13791WAT      O41614   8.410   6.456   1.096
13791WAT     H141615   8.346   6.526   1.128
13791WAT     H241616   8.502   6.477   1.131
13792WAT      O41617   7.361   3.509   5.936
13792WAT     H141618   7.448   3.548   5.966
13792WAT     H241619   7.376   3.453   5.855
13793WAT      O41620   0.217   6.909   7.702
13793WAT     H141621   0.225   6.839   7.631
13793WAT     H241622   0.308   6.934   7.735
13794WAT      O41623   2.741   8.019   5.011
13794WAT     H141624   2.669   7.984   4.951
13794WAT     H241625   2.826   7.970   4.993
13795WAT      O41626   8.231   3.465   4.432
13795WAT     H141627   8.318   3.513   4.443
13795WAT     H241628   8.174   3.514   4.367
13796WAT      O41629   8.920   1.170   6.071
13796WAT     H141630   8.994   1.232   6.049
13796WAT     H241631   8.853   1.170   5.996
13797WAT      O41632   7.874   9.089   5.040
13797WAT     H141633   7.887   9.004   4.988
13797WAT     H241634   7.955   9.106   5.096
13798WAT      O41635   6.747   9.715   8.338
13798WAT     H141636   6.750   9.620   8.307
13798WAT     H241637   6.768   9.719   8.436
13799WAT      O41638   8.103   6.030   2.213
13799WAT     H141639   8.017   6.030   2.264
13799WAT     H241640   8.085   6.004   2.118
13800WAT      O41641   9.239   8.463   6.255
13800WAT     H141642   9.186   8.506   6.183
13800WAT     H241643   9.267   8.372   6.227
13801WAT      O41644   3.617   3.826   8.025
13801WAT     H141645   3.550   3.891   7.989
13801WAT     H241646   3.579   3.733   8.020
13802WAT      O41647   0.964   7.361   7.817
13802WAT     H141648   0.915   7.374   7.903
13802WAT     H241649   1.061   7.346   7.836
13803WAT      O41650   4.257   5.093   4.153
13803WAT     H141651   4.164   5.071   4.183
13803WAT     H241652   4.277   5.044   4.068
13804WAT      O41653   0.156   9.402   9.619
13804WAT     H141654   0.219   9.377   9.545
13804WAT     H241655   0.192   9.482   9.667
13805WAT      O41656   8.649   0.472   9.333
13805WAT     H141657   8.602   0.410   9.270
13805WAT     H241658   8.747   0.452   9.333
13806WAT      O41659   7.577   8.216   1.718
13806WAT     H141660   7.558   8.310   1.689
13806WAT     H241661   7.609   8.216   1.813
13807WAT      O41662   6.574   1.777   2.907
13807WAT     H141663   6.516   1.749   2.830
13807WAT     H241664   6.609   1.869   2.891
13808WAT      O41665   6.516   3.673   4.727
13808WAT     H141666   6.597   3.664   4.670
13808WAT     H241667   6.496   3.586   4.772
13809WAT      O41668   3.942   1.064   5.286
13809WAT     H141669   4.025   1.112   5.255
13809WAT     H241670   3.941   0.972   5.247
13810WAT      O41671   2.628   1.769   6.283
13810WAT     H141672   2.666   1.682   6.251
13810WAT     H241673   2.697   1.841   6.276
13811WAT      O41674   1.086   5.745   4.358
13811WAT     H141675   0.999   5.698   4.376
13811WAT     H241676   1.092   5.826   4.416
13812WAT      O41677   3.559   8.339   6.023
13812WAT     H141678   3.543   8.427   5.977
13812WAT     H241679   3.474   8.287   6.023
13813WAT      O41680   3.801   6.494   0.358
13813WAT     H141681   3.714   6.508   0.405
13813WAT     H241682   3.789   6.512   0.260
13814WAT      O41683   9.182   9.470   9.237
13814WAT     H141684   9.224   9.413   9.307
13814WAT     H241685   9.252   9.526   9.193
13815WAT      O41686   5.071   6.499   6.879
13815WAT     H141687   5.154   6.540   6.916
13815WAT     H241688   5.094   6.447   6.797
13816WAT      O41689   0.284   2.470   8.818
13816WAT     H141690   0.209   2.514   8.770
13816WAT     H241691   0.347   2.539   8.854
13817WAT      O41692   5.069   7.033   2.926
13817WAT     H141693   5.054   6.945   2.972
13817WAT     H241694   5.167   7.053   2.924
13818WAT      O41695   0.041   3.585   4.560
13818WAT     H141696  -0.019   3.581   4.640
13818WAT     H241697   0.130   3.546   4.583
13819WAT      O41698   1.671   0.303   9.223
13819WAT     H141699   1.634   0.379   9.170
13819WAT     H241700   1.698   0.336   9.313
13820WAT      O41701   2.419   1.765   6.437
13820WAT     H141702   2.499   1.753   6.378
13820WAT     H241703   2.349   1.816   6.387
13821WAT      O41704   4.173   5.955   3.255
13821WAT     H141705   4.187   5.958   3.354
13821WAT     H241706   4.171   6.049   3.220
13822WAT      O41707   2.099   7.981   6.169
13822WAT     H141708   2.054   7.983   6.259
13822WAT     H241709   2.053   8.047   6.109
13823WAT      O41710   3.545   6.407   9.083
13823WAT     H141711   3.554   6.482   9.018
13823WAT     H241712   3.632   6.395   9.132
13824WAT      O41713   1.106   1.741   1.357
13824WAT     H141714   1.109   1.735   1.457
13824WAT     H241715   1.141   1.830   1.328
13825WAT      O41716   7.662   8.439   3.448
13825WAT     H141717   7.665   8.539   3.448
13825WAT     H241718   7.571   8.408   3.422
13826WAT      O41719   6.233   3.974   9.084
13826WAT     H141720   6.186   3.929   9.008
13826WAT     H241721   6.194   4.065   9.097
13827WAT      O41722   3.297   0.414   0.539
13827WAT     H141723   3.359   0.482   0.500
13827WAT     H241724   3.208   0.456   0.557
13828WAT      O41725   3.582   4.862   6.304
13828WAT     H141726   3.671   4.826   6.332
13828WAT     H241727   3.593   4.918   6.222
13829WAT      O41728   5.516   6.555   1.008
13829WAT     H141729   5.483   6.476   1.061
13829WAT     H241730   5.593   6.527   0.951
13830WAT      O41731   5.825   5.227   2.504
13830WAT     H141732   5.793   5.137   2.531
13830WAT     H241733   5.889   5.218   2.427
13831WAT      O41734   8.235   1.379   5.563
13831WAT     H141735   8.200   1.370   5.470
13831WAT     H241736   8.281   1.294   5.590
13832WAT      O41737   1.864   8.297   7.627
13832WAT     H141738   1.893   8.296   7.531
13832WAT     H241739   1.908   8.222   7.676
13833WAT      O41740   1.364   3.740   5.147
13833WAT     H141741   1.458   3.772   5.137
13833WAT     H241742   1.314   3.802   5.207
13834WAT      O41743   5.204   6.749   3.695
13834WAT     H141744   5.251   6.734   3.782
13834WAT     H241745   5.115   6.703   3.697
13835WAT      O41746   8.051   9.119   7.897
13835WAT     H141747   8.076   9.029   7.932
13835WAT     H241748   7.953   9.121   7.875
13836WAT      O41749   2.995   4.310   6.651
13836WAT     H141750   3.040   4.352   6.573
13836WAT     H241751   2.900   4.289   6.627
13837WAT      O41752   6.145   1.292   5.672
13837WAT     H141753   6.114   1.376   5.718
13837WAT     H241754   6.122   1.297   5.575
13838WAT      O41755   4.947   8.611   1.344
13838WAT     H141756   4.851   8.593   1.322
13838WAT     H241757   4.999   8.618   1.259
13839WAT      O41758   2.772   4.586   5.758
13839WAT     H141759   2.716   4.514   5.720
13839WAT     H241760   2.819   4.635   5.684
13840WAT      O41761   5.575   5.869   7.921
13840WAT     H141762   5.577   5.902   8.015
13840WAT     H241763   5.496   5.909   7.874
13841WAT      O41764   5.362   9.086   2.516
13841WAT     H141765   5.339   9.096   2.613
13841WAT     H241766   5.277   9.082   2.463
13842WAT      O41767   2.268   4.566   6.628
13842WAT     H141768   2.283   4.536   6.534
13842WAT     H241769   2.228   4.491   6.681
13843WAT      O41770   3.341   1.459   1.629
13843WAT     H141771   3.352   1.479   1.726
13843WAT     H241772   3.309   1.542   1.582
13844WAT      O41773   3.525   8.228   9.743
13844WAT     H141774   3.449   8.272   9.695
13844WAT     H241775   3.570   8.294   9.803
13845WAT      O41776   7.022   5.500   2.422
13845WAT     H141777   7.118   5.527   2.431
13845WAT     H241778   6.963   5.577   2.446
13846WAT      O41779   4.767   9.628   6.205
13846WAT     H141780   4.748   9.655   6.299
13846WAT     H241781   4.768   9.528   6.199
13847WAT      O41782   1.622   3.485   5.950
13847WAT     H141783   1.636   3.571   5.903
13847WAT     H241784   1.546   3.494   6.015
13848WAT      O41785   4.619   0.505   2.594
13848WAT     H141786   4.657   0.521   2.685
13848WAT     H241787   4.520   0.502   2.599
13849WAT      O41788   5.431   1.647   8.653
13849WAT     H141789   5.494   1.708   8.700
13849WAT     H241790   5.341   1.652   8.697
13850WAT      O41791   8.381   3.591   8.891
13850WAT     H141792   8.301   3.648   8.874
13850WAT     H241793   8.372   3.547   8.981
13851WAT      O41794   0.495   8.008   6.372
13851WAT     H141795   0.458   8.066   6.445
13851WAT     H241796   0.541   7.929   6.412
13852WAT      O41797   0.598   2.853   8.257
13852WAT     H141798   0.530   2.924   8.241
13852WAT     H241799   0.656   2.843   8.176
13853WAT      O41800   6.151   0.586   5.313
13853WAT     H141801   6.243   0.624   5.322
13853WAT     H241802   6.116   0.603   5.221
13854WAT      O41803   8.803   0.187   2.357
13854WAT     H141804   8.707   0.176   2.382
13854WAT     H241805   8.851   0.100   2.371
13855WAT      O41806   2.324   5.251   9.150
13855WAT     H141807   2.334   5.321   9.220
13855WAT     H241808   2.346   5.291   9.060
13856WAT      O41809   6.827   1.318   1.188
13856WAT     H141810   6.829   1.416   1.169
13856WAT     H241811   6.773   1.271   1.118
13857WAT      O41812   4.703   6.077   5.930
13857WAT     H141813   4.767   6.018   5.881
13857WAT     H241814   4.738   6.171   5.929
13858WAT      O41815   1.380   3.801   3.015
13858WAT     H141816   1.453   3.864   3.044
13858WAT     H241817   1.294   3.850   3.010
13859WAT      O41818   0.853   6.475   4.198
13859WAT     H141819   0.776   6.496   4.138
13859WAT     H241820   0.827   6.403   4.262
13860WAT      O41821   7.246   0.531   7.796
13860WAT     H141822   7.240   0.628   7.773
13860WAT     H241823   7.164   0.503   7.846
13861WAT      O41824   6.612   1.279   3.994
13861WAT     H141825   6.614   1.359   3.934
13861WAT     H241826   6.565   1.302   4.079
13862WAT      O41827   6.503   6.018   9.872
13862WAT     H141828   6.481   6.014   9.969
13862WAT     H241829   6.420   6.005   9.818
13863WAT      O41830   9.526   8.848   7.492
13863WAT     H141831   9.617   8.832   7.531
13863WAT     H241832   9.509   8.947   7.487
13864WAT      O41833   1.409   1.611   6.647
13864WAT     H141834   1.379   1.516   6.649
13864WAT     H241835   1.460   1.628   6.563
13865WAT      O41836   3.494   0.961   0.341
13865WAT     H141837   3.424   0.889   0.341
13865WAT     H241838   3.557   0.946   0.417
13866WAT      O41839   9.877   2.528   6.908
13866WAT     H141840   9.821   2.575   6.976
13866WAT     H241841   9.973   2.537   6.932
13867WAT      O41842   3.527   3.919   0.478
13867WAT     H141843   3.560   3.891   0.568
13867WAT     H241844   3.430   3.895   0.469
13868WAT      O41845   0.440   5.563   5.448
13868WAT     H141846   0.380   5.537   5.524
13868WAT     H241847   0.531   5.525   5.463
13869WAT      O41848   8.210   5.612   4.456
13869WAT     H141849   8.188   5.514   4.463
13869WAT     H241850   8.249   5.644   4.542
13870WAT      O41851   3.401   2.141   7.395
13870WAT     H141852   3.439   2.113   7.483
13870WAT     H241853   3.408   2.066   7.330
13871WAT      O41854   6.717   6.552   2.296
13871WAT     H141855   6.627   6.543   2.253
13871WAT     H241856   6.738   6.468   2.346
13872WAT      O41857   0.437   9.837   8.304
13872WAT     H141858   0.465   9.881   8.389
13872WAT     H241859   0.339   9.852   8.289
13873WAT      O41860   7.199   3.676   0.427
13873WAT     H141861   7.125   3.612   0.406
13873WAT     H241862   7.162   3.761   0.464
13874WAT      O41863   7.735   6.479   6.097
13874WAT     H141864   7.676   6.549   6.137
13874WAT     H241865   7.702   6.459   6.004
13875WAT      O41866   2.947   4.696   2.713
13875WAT     H141867   2.883   4.758   2.759
13875WAT     H241868   3.026   4.680   2.772
13876WAT      O41869   4.601   8.076   2.052
13876WAT     H141870   4.528   8.045   2.112
13876WAT     H241871   4.622   8.172   2.072
13877WAT      O41872   6.805   0.984   6.399
13877WAT     H141873   6.732   0.928   6.437
13877WAT     H241874   6.855   0.932   6.330
13878WAT      O41875   5.015   2.812   9.737
13878WAT     H141876   4.984   2.877   9.808
13878WAT     H241877   5.112   2.792   9.750
13879WAT      O41878   9.186   5.717   7.995
13879WAT     H141879   9.127   5.796   7.978
13879WAT     H241880   9.230   5.727   8.085
13880WAT      O41881   6.471   5.421   3.846
13880WAT     H141882   6.484   5.342   3.906
13880WAT     H241883   6.481   5.505   3.898
13881WAT      O41884   5.087   2.017   7.000
13881WAT     H141885   5.055   2.069   6.921
13881WAT     H241886   5.169   2.060   7.038
13882WAT      O41887   6.531   4.499   8.190
13882WAT     H141888   6.528   4.557   8.271
13882WAT     H241889   6.514   4.555   8.109
13883WAT      O41890   6.919   9.270   5.732
13883WAT     H141891   6.952   9.178   5.712
13883WAT     H241892   6.820   9.273   5.721
13884WAT      O41893   6.341   2.905   8.904
13884WAT     H141894   6.319   2.833   8.970
13884WAT     H241895   6.408   2.968   8.943
13885WAT      O41896   2.119   0.041   0.097
13885WAT     H141897   2.191  -0.028   0.099
13885WAT     H241898   2.040   0.006   0.047
13886WAT      O41899   8.749   2.477   2.987
13886WAT     H141900   8.748   2.542   3.063
13886WAT     H241901   8.815   2.404   3.007
13887WAT      O41902   7.841   8.775   8.010
13887WAT     H141903   7.846   8.684   7.969
13887WAT     H241904   7.931   8.817   8.008
13888WAT      O41905   2.261   0.412   9.289
13888WAT     H141906   2.283   0.322   9.253
13888WAT     H241907   2.164   0.431   9.276
13889WAT      O41908   0.870   4.465   1.079
13889WAT     H141909   0.904   4.384   1.126
13889WAT     H241910   0.892   4.546   1.133
13890WAT      O41911   6.352   1.781   7.529
13890WAT     H141912   6.274   1.820   7.480
13890WAT     H241913   6.436   1.822   7.495
13891WAT      O41914   5.799   0.818   3.016
13891WAT     H141915   5.715   0.801   2.965
13891WAT     H241916   5.848   0.731   3.029
13892WAT      O41917   9.538   9.813   1.611
13892WAT     H141918   9.439   9.818   1.598
13892WAT     H241919   9.567   9.717   1.614
13893WAT      O41920   0.023   2.248   0.922
13893WAT     H141921   0.087   2.227   0.848
13893WAT     H241922  -0.064   2.202   0.906
13894WAT      O41923   6.474   1.052   6.937
13894WAT     H141924   6.417   0.978   6.902
13894WAT     H241925   6.530   1.090   6.863
13895WAT      O41926   4.162   6.169   6.243
13895WAT     H141927   4.180   6.262   6.275
13895WAT     H241928   4.133   6.112   6.319
13896WAT      O41929   2.039   2.854   5.308
13896WAT     H141930   2.121   2.911   5.303
13896WAT     H241931   1.994   2.852   5.219
13897WAT      O41932   8.778   8.607   9.676
13897WAT     H141933   8.847   8.543   9.643
13897WAT     H241934   8.775   8.686   9.615
13898WAT      O41935   8.892   3.623   1.500
13898WAT     H141936   8.929   3.587   1.414
13898WAT     H241937   8.837   3.553   1.545
13899WAT      O41938   8.361   4.624   2.767
13899WAT     H141939   8.457   4.648   2.757
13899WAT     H241940   8.310   4.702   2.803
13900WAT      O41941   6.087   3.284   7.974
13900WAT     H141942   6.055   3.374   7.944
13900WAT     H241943   6.183   3.273   7.946
13901WAT      O41944   8.886   8.910   1.157
13901WAT     H141945   8.791   8.939   1.152
13901WAT     H241946   8.891   8.811   1.149
13902WAT      O41947   3.311   7.263   2.438
13902WAT     H141948   3.383   7.284   2.505
13902WAT     H241949   3.223   7.296   2.473
13903WAT      O41950   4.087   2.167   7.710
13903WAT     H141951   4.155   2.163   7.784
13903WAT     H241952   4.062   2.262   7.693
13904WAT      O41953   1.623   4.691   3.594
13904WAT     H141954   1.524   4.697   3.577
13904WAT     H241955   1.659   4.782   3.613
13905WAT      O41956   0.022   2.937   7.419
13905WAT     H141957   0.086   2.862   7.407
13905WAT     H241958   0.021   2.966   7.515
13906WAT      O41959   9.164   8.807   3.154
13906WAT     H141960   9.113   8.732   3.112
13906WAT     H241961   9.212   8.775   3.236
13907WAT      O41962   4.998   6.589   7.650
13907WAT     H141963   5.025   6.493   7.641
13907WAT     H241964   4.929   6.597   7.721
13908WAT      O41965   2.762   4.037   1.477
13908WAT     H141966   2.815   3.956   1.502
13908WAT     H241967   2.806   4.118   1.516
13909WAT      O41968   0.132   0.689   7.999
13909WAT     H141969   0.194   0.740   7.941
13909WAT     H241970   0.182   0.654   8.079
13910WAT      O41971   2.962   7.459   8.873
13910WAT     H141972   2.967   7.528   8.945
13910WAT     H241973   2.958   7.504   8.784
13911WAT      O41974   3.124   8.023   6.003
13911WAT     H141975   3.100   8.000   6.097
13911WAT     H241976   3.131   7.940   5.948
13912WAT      O41977   5.902   1.772   8.323
13912WAT     H141978   5.802   1.772   8.323
13912WAT     H241979   5.936   1.711   8.251
13913WAT      O41980   6.187   2.699   2.752
13913WAT     H141981   6.190   2.605   2.718
13913WAT     H241982   6.213   2.762   2.678
13914WAT      O41983   7.979   9.792   3.065
13914WAT     H141984   7.914   9.857   3.028
13914WAT     H241985   7.957   9.700   3.033
13915WAT      O41986   7.046   5.554   0.453
13915WAT     H141987   7.068   5.527   0.359
13915WAT     H241988   6.951   5.528   0.473
13916WAT      O41989   9.043   4.130   1.397
13916WAT     H141990   8.945   4.122   1.417
13916WAT     H241991   9.093   4.143   1.483
13917WAT      O41992   5.459   9.073   2.961
13917WAT     H141993   5.437   9.104   3.053
13917WAT     H241994   5.432   9.143   2.895
13918WAT      O41995   9.293   2.373   7.979
13918WAT     H141996   9.274   2.292   8.034
13918WAT     H241997   9.241   2.368   7.894
13919WAT      O41998   3.399   2.067   3.643
13919WAT     H141999   3.348   2.151   3.661
13919WAT     H242000   3.350   2.012   3.576
13920WAT      O42001   3.099   9.265   2.548
13920WAT     H142002   3.083   9.194   2.617
13920WAT     H242003   3.121   9.223   2.461
13921WAT      O42004   5.787   9.845   4.203
13921WAT     H142005   5.782   9.906   4.124
13921WAT     H242006   5.832   9.760   4.177
13922WAT      O42007   9.708   1.400   1.667
13922WAT     H142008   9.767   1.321   1.682
13922WAT     H242009   9.706   1.423   1.570
13923WAT      O42010   4.940   0.921   4.409
13923WAT     H142011   5.016   0.872   4.365
13923WAT     H242012   4.905   0.991   4.346
13924WAT      O42013   1.350   6.694   9.100
13924WAT     H142014   1.298   6.718   9.018
13924WAT     H242015   1.375   6.777   9.149
13925WAT      O42016   0.662   4.414   7.049
13925WAT     H142017   0.583   4.474   7.063
13925WAT     H242018   0.645   4.355   6.971
13926WAT      O42019   6.220   1.486   2.234
13926WAT     H142020   6.303   1.431   2.221
13926WAT     H242021   6.155   1.467   2.161
13927WAT      O42022   1.073   9.712   2.977
13927WAT     H142023   1.122   9.715   3.065
13927WAT     H242024   1.120   9.647   2.917
13928WAT      O42025   3.078   0.355   6.934
13928WAT     H142026   3.094   0.290   7.009
13928WAT     H242027   3.125   0.323   6.852
13929WAT      O42028   7.658   0.374   4.444
13929WAT     H142029   7.702   0.418   4.523
13929WAT     H242030   7.722   0.310   4.403
13930WAT      O42031   8.925   2.481   6.476
13930WAT     H142032   8.964   2.467   6.567
13930WAT     H242033   8.826   2.490   6.483
13931WAT      O42034   2.963   0.928   3.606
13931WAT     H142035   3.023   0.870   3.550
13931WAT     H242036   2.964   0.894   3.700
13932WAT      O42037   6.250   0.635   6.714
13932WAT     H142038   6.246   0.539   6.687
13932WAT     H242039   6.163   0.679   6.693
13933WAT      O42040   4.409   0.428   7.626
13933WAT     H142041   4.458   0.509   7.655
13933WAT     H242042   4.310   0.444   7.631
13934WAT      O42043   5.991   0.865   0.717
13934WAT     H142044   5.949   0.817   0.640
13934WAT     H242045   6.085   0.833   0.728
13935WAT      O42046   3.897   6.634   3.605
13935WAT     H142047   3.952   6.716   3.622
13935WAT     H242048   3.881   6.586   3.691
13936WAT      O42049   6.196   9.345   8.604
13936WAT     H142050   6.162   9.434   8.574
13936WAT     H242051   6.295   9.341   8.593
13937WAT      O42052   2.573   6.077   0.065
13937WAT     H142053   2.507   6.063  -0.008
13937WAT     H242054   2.536   6.141   0.132
13938WAT      O42055   5.313   2.293   2.429
13938WAT     H142056   5.362   2.364   2.481
13938WAT     H242057   5.376   2.219   2.407
13939WAT      O42058   1.679   0.378   7.429
13939WAT     H142059   1.657   0.412   7.520
13939WAT     H242060   1.718   0.287   7.436
13940WAT      O42061   3.514   1.088   7.555
13940WAT     H142062   3.417   1.065   7.546
13940WAT     H242063   3.523   1.176   7.601
13941WAT      O42064   3.405   8.100   9.178
13941WAT     H142065   3.379   8.099   9.081
13941WAT     H242066   3.505   8.103   9.185
13942WAT      O42067   9.493   0.894   8.142
13942WAT     H142068   9.556   0.958   8.098
13942WAT     H242069   9.522   0.800   8.123
13943WAT      O42070   7.777   7.717   7.313
13943WAT     H142071   7.697   7.720   7.374
13943WAT     H242072   7.771   7.637   7.254
13944WAT      O42073   6.559   1.065   5.112
13944WAT     H142074   6.614   1.039   5.192
13944WAT     H242075   6.556   0.990   5.047
13945WAT      O42076   7.606   6.172   6.335
13945WAT     H142077   7.675   6.244   6.336
13945WAT     H242078   7.521   6.206   6.375
13946WAT      O42079   9.741   6.736   1.666
13946WAT     H142080   9.811   6.748   1.736
13946WAT     H242081   9.785   6.721   1.577
13947WAT      O42082   1.483   2.475   8.118
13947WAT     H142083   1.497   2.570   8.147
13947WAT     H242084   1.386   2.461   8.097
13948WAT      O42085   3.316   0.062   5.215
13948WAT     H142086   3.413   0.066   5.193
13948WAT     H242087   3.284   0.154   5.241
13949WAT      O42088   5.408   6.514   5.679
13949WAT     H142089   5.386   6.612   5.675
13949WAT     H242090   5.367   6.474   5.761
13950WAT      O42091   5.596   5.475   5.707
13950WAT     H142092   5.518   5.480   5.645
13950WAT     H242093   5.604   5.560   5.759
13951WAT      O42094   3.258   7.336   7.726
13951WAT     H142095   3.354   7.312   7.742
13951WAT     H242096   3.252   7.409   7.658
13952WAT      O42097   7.450   0.430   3.189
13952WAT     H142098   7.528   0.372   3.212
13952WAT     H242099   7.412   0.470   3.273
13953WAT      O42100   1.510   9.357   5.870
13953WAT     H142101   1.411   9.365   5.858
13953WAT     H242102   1.537   9.398   5.957
13954WAT      O42103   5.387   0.959   1.240
13954WAT     H142104   5.467   0.984   1.185
13954WAT     H242105   5.396   0.865   1.272
13955WAT      O42106   3.230   8.628   1.725
13955WAT     H142107   3.153   8.690   1.713
13955WAT     H242108   3.287   8.627   1.642
13956WAT      O42109   6.194   1.700   0.060
13956WAT     H142110   6.201   1.795   0.031
13956WAT     H242111   6.229   1.691   0.154
13957WAT      O42112   9.548   8.225   4.863
13957WAT     H142113   9.540   8.271   4.774
13957WAT     H242114   9.477   8.156   4.872
13958WAT      O42115   5.798   6.771   2.227
13958WAT     H142116   5.762   6.716   2.151
13958WAT     H242117   5.815   6.712   2.305
13959WAT      O42118   0.305   7.161   1.870
13959WAT     H142119   0.286   7.180   1.774
13959WAT     H242120   0.221   7.133   1.917
13960WAT      O42121   0.645   8.776   7.857
13960WAT     H142122   0.706   8.708   7.897
13960WAT     H242123   0.647   8.859   7.913
13961WAT      O42124   8.136   6.566   0.303
13961WAT     H142125   8.086   6.640   0.260
13961WAT     H242126   8.140   6.487   0.242
13962WAT      O42127   8.727   4.456   0.311
13962WAT     H142128   8.810   4.508   0.292
13962WAT     H242129   8.739   4.362   0.280
13963WAT      O42130   7.509   5.343   5.822
13963WAT     H142131   7.513   5.330   5.921
13963WAT     H242132   7.426   5.300   5.786
13964WAT      O42133   4.283   8.313   1.663
13964WAT     H142134   4.183   8.319   1.656
13964WAT     H242135   4.309   8.314   1.760
13965WAT      O42136   5.277   2.874   5.086
13965WAT     H142137   5.288   2.788   5.036
13965WAT     H242138   5.366   2.904   5.121
13966WAT      O42139   6.600   2.748   4.984
13966WAT     H142140   6.686   2.783   5.021
13966WAT     H242141   6.524   2.784   5.038
13967WAT      O42142   8.369   2.569   5.319
13967WAT     H142143   8.400   2.645   5.377
13967WAT     H242144   8.282   2.593   5.276
13968WAT      O42145   7.069   1.516   5.772
13968WAT     H142146   7.040   1.480   5.861
13968WAT     H242147   7.025   1.464   5.699
13969WAT      O42148   5.319   0.205   3.632
13969WAT     H142149   5.405   0.166   3.599
13969WAT     H242150   5.289   0.155   3.714
13970WAT      O42151   3.013   7.276   6.109
13970WAT     H142152   3.077   7.311   6.177
13970WAT     H242153   3.055   7.283   6.018
13971WAT      O42154   8.232   4.812   0.063
13971WAT     H142155   8.308   4.873   0.083
13971WAT     H242156   8.153   4.836   0.120
13972WAT      O42157   1.030   7.081   2.481
13972WAT     H142158   1.080   7.162   2.450
13972WAT     H242159   0.940   7.109   2.515
13973WAT      O42160   5.914   7.439   7.863
13973WAT     H142161   5.856   7.439   7.945
13973WAT     H242162   5.951   7.531   7.849
13974WAT      O42163   1.319   1.610   7.321
13974WAT     H142164   1.399   1.550   7.311
13974WAT     H242165   1.337   1.678   7.391
13975WAT      O42166   8.078   9.430   2.082
13975WAT     H142167   8.147   9.449   2.152
13975WAT     H242168   8.119   9.375   2.009
13976WAT      O42169   5.357   6.226   2.072
13976WAT     H142170   5.290   6.173   2.125
13976WAT     H242171   5.335   6.323   2.078
13977WAT      O42172   7.930   4.036   3.257
13977WAT     H142173   7.956   4.131   3.239
13977WAT     H242174   7.883   3.999   3.177
13978WAT      O42175   0.071   3.862   0.017
13978WAT     H142176   0.005   3.856  -0.058
13978WAT     H242177   0.162   3.877  -0.020
13979WAT      O42178   8.730   4.729   4.631
13979WAT     H142179   8.805   4.757   4.571
13979WAT     H242180   8.750   4.756   4.725
13980WAT      O42181   1.926   2.400   2.723
13980WAT     H142182   2.007   2.407   2.780
13980WAT     H242183   1.944   2.442   2.634
13981WAT      O42184   7.934   0.697   0.262
13981WAT     H142185   7.995   0.706   0.184
13981WAT     H242186   7.981   0.646   0.335
13982WAT      O42187   2.417   1.994   9.678
13982WAT     H142188   2.468   1.910   9.693
13982WAT     H242189   2.374   2.023   9.764
13983WAT      O42190   2.415   9.694   0.518
13983WAT     H142191   2.407   9.648   0.606
13983WAT     H242192   2.324   9.719   0.486
13984WAT      O42193   9.416   3.668   2.307
13984WAT     H142194   9.366   3.696   2.389
13984WAT     H242195   9.403   3.736   2.235
13985WAT      O42196   7.099   7.432   9.643
13985WAT     H142197   7.034   7.468   9.576
13985WAT     H242198   7.177   7.494   9.650
13986WAT      O42199   0.536   3.808   1.332
13986WAT     H142200   0.612   3.859   1.291
13986WAT     H242201   0.574   3.735   1.390
13987WAT      O42202   8.001   5.184   7.423
13987WAT     H142203   7.943   5.176   7.341
13987WAT     H242204   8.081   5.241   7.402
13988WAT      O42205   7.950   0.023   1.943
13988WAT     H142206   7.902   0.096   1.993
13988WAT     H242207   8.010   0.064   1.874
13989WAT      O42208   3.608   3.097   9.620
13989WAT     H142209   3.578   3.024   9.559
13989WAT     H242210   3.544   3.174   9.613
13990WAT      O42211   5.871   6.409   9.146
13990WAT     H142212   5.824   6.467   9.079
13990WAT     H242213   5.970   6.424   9.139
13991WAT      O42214   8.770   5.504   3.889
13991WAT     H142215   8.849   5.471   3.941
13991WAT     H242216   8.786   5.600   3.863
13992WAT      O42217   2.067   8.831   6.110
13992WAT     H142218   1.986   8.889   6.100
13992WAT     H242219   2.075   8.800   6.204
13993WAT      O42220   4.926   4.186   8.539
13993WAT     H142221   4.895   4.093   8.523
13993WAT     H242222   4.984   4.188   8.621
13994WAT      O42223   5.379   0.138   7.501
13994WAT     H142224   5.293   0.095   7.477
13994WAT     H242225   5.383   0.231   7.463
13995WAT      O42226   7.800   4.117   4.415
13995WAT     H142227   7.809   4.216   4.408
13995WAT     H242228   7.759   4.081   4.332
13996WAT      O42229   8.545   2.026   9.091
13996WAT     H142230   8.485   2.027   9.171
13996WAT     H242231   8.615   1.955   9.103
13997WAT      O42232   9.364   1.380   4.870
13997WAT     H142233   9.340   1.320   4.946
13997WAT     H242234   9.459   1.366   4.845
13998WAT      O42235   7.073   7.339   1.684
13998WAT     H142236   7.128   7.256   1.675
13998WAT     H242237   7.059   7.359   1.781
13999WAT      O42238   4.933   6.841   7.278
13999WAT     H142239   4.921   6.742   7.287
13999WAT     H242240   4.997   6.873   7.349
14000WAT      O42241   5.491   3.165   2.618
14000WAT     H142242   5.438   3.129   2.695
14000WAT     H242243   5.538   3.249   2.647
14001WAT      O42244   9.445   2.371   8.602
14001WAT     H142245   9.534   2.354   8.559
14001WAT     H242246   9.459   2.415   8.691
14002WAT      O42247   6.448   1.084   4.192
14002WAT     H142248   6.351   1.073   4.213
14002WAT     H242249   6.481   1.005   4.140
14003WAT      O42250   0.557   5.814   5.649
14003WAT     H142251   0.539   5.720   5.622
14003WAT     H242252   0.645   5.843   5.610
14004WAT      O42253   0.175   3.149   2.170
14004WAT     H142254   0.272   3.156   2.147
14004WAT     H242255   0.154   3.056   2.198
14005WAT      O42256   6.553   7.936   4.257
14005WAT     H142257   6.544   7.860   4.193
14005WAT     H242258   6.478   8.000   4.243
14006WAT      O42259   8.097   7.321   6.453
14006WAT     H142260   8.007   7.296   6.488
14006WAT     H242261   8.127   7.407   6.496
14007WAT      O42262   6.093   0.225   3.632
14007WAT     H142263   6.142   0.209   3.718
14007WAT     H242264   6.014   0.285   3.650
14008WAT      O42265   3.724   8.861   2.933
14008WAT     H142266   3.681   8.802   3.002
14008WAT     H242267   3.797   8.914   2.976
14009WAT      O42268   7.361   3.040   4.666
14009WAT     H142269   7.354   3.140   4.666
14009WAT     H242270   7.450   3.013   4.704
14010WAT      O42271   6.542   9.705   2.231
14010WAT     H142272   6.554   9.683   2.134
14010WAT     H242273   6.492   9.791   2.239
14011WAT      O42274   1.668   9.016   3.231
14011WAT     H142275   1.746   8.954   3.230
14011WAT     H242276   1.584   8.964   3.251
14012WAT      O42277   4.171   1.521   8.525
14012WAT     H142278   4.162   1.476   8.614
14012WAT     H242279   4.131   1.463   8.454
14013WAT      O42280   7.215   6.007   7.146
14013WAT     H142281   7.156   6.043   7.219
14013WAT     H242282   7.306   6.048   7.154
14014WAT      O42283   6.679   5.525   2.371
14014WAT     H142284   6.654   5.565   2.459
14014WAT     H242285   6.751   5.580   2.328
14015WAT      O42286   1.044   3.802   9.702
14015WAT     H142287   1.115   3.732   9.698
14015WAT     H242288   1.076   3.885   9.656
14016WAT      O42289   7.645   1.094   1.430
14016WAT     H142290   7.624   1.001   1.460
14016WAT     H242291   7.725   1.128   1.481
14017WAT      O42292   4.562   0.666   7.394
14017WAT     H142293   4.574   0.726   7.473
14017WAT     H242294   4.489   0.703   7.335
14018WAT      O42295   4.938   6.587   6.198
14018WAT     H142296   4.998   6.666   6.207
14018WAT     H242297   4.848   6.616   6.165
14019WAT      O42298   4.749   7.587   9.557
14019WAT     H142299   4.750   7.668   9.615
14019WAT     H242300   4.689   7.603   9.479
14020WAT      O42301   7.843   6.995   1.477
14020WAT     H142302   7.777   7.069   1.489
14020WAT     H242303   7.799   6.907   1.495
14021WAT      O42304   4.271   2.639   3.555
14021WAT     H142305   4.359   2.593   3.544
14021WAT     H242306   4.234   2.664   3.466
14022WAT      O42307   2.704   8.303   7.691
14022WAT     H142308   2.771   8.243   7.733
14022WAT     H242309   2.738   8.335   7.602
14023WAT      O42310   7.252   7.803   5.285
14023WAT     H142311   7.209   7.829   5.371
14023WAT     H242312   7.232   7.707   5.266
14024WAT      O42313   1.836   3.583   7.893
14024WAT     H142314   1.851   3.681   7.875
14024WAT     H242315   1.775   3.545   7.824
14025WAT      O42316   3.949   8.363   2.551
14025WAT     H142317   3.961   8.398   2.644
14025WAT     H242318   3.893   8.281   2.553
14026WAT      O42319   2.647   0.114   6.832
14026WAT     H142320   2.711   0.180   6.871
14026WAT     H242321   2.587   0.161   6.767
14027WAT      O42322   0.842   7.272   0.017
14027WAT     H142323   0.845   7.222   0.104
14027WAT     H242324   0.877   7.214  -0.056
14028WAT      O42325   9.722   1.794   8.343
14028WAT     H142326   9.755   1.872   8.396
14028WAT     H242327   9.630   1.812   8.309
14029WAT      O42328   0.498   4.169   5.739
14029WAT     H142329   0.565   4.220   5.685
14029WAT     H242330   0.467   4.090   5.686
14030WAT      O42331   8.595   5.929   6.312
14030WAT     H142332   8.604   6.029   6.315
14030WAT     H242333   8.501   5.903   6.332
14031WAT      O42334   2.447   5.162   6.097
14031WAT     H142335   2.431   5.211   6.183
14031WAT     H242336   2.510   5.215   6.040
14032WAT      O42337   1.628   2.625   8.847
14032WAT     H142338   1.639   2.617   8.748
14032WAT     H242339   1.708   2.671   8.886
14033WAT      O42340   5.521   0.596   2.691
14033WAT     H142341   5.515   0.665   2.618
14033WAT     H242342   5.453   0.525   2.675
14034WAT      O42343   6.509   6.011   9.307
14034WAT     H142344   6.514   6.032   9.404
14034WAT     H242345   6.519   5.912   9.293
14035WAT      O42346   6.383   4.539   2.312
14035WAT     H142347   6.400   4.617   2.373
14035WAT     H242348   6.454   4.536   2.241
14036WAT      O42349   1.025   5.100   9.787
14036WAT     H142350   0.969   5.166   9.837
14036WAT     H242351   1.121   5.125   9.796
14037WAT      O42352   2.657   3.959   2.939
14037WAT     H142353   2.664   3.881   3.001
14037WAT     H242354   2.741   3.967   2.886
14038WAT      O42355   7.121   6.102   1.214
14038WAT     H142356   7.194   6.068   1.274
14038WAT     H242357   7.032   6.082   1.256
14039WAT      O42358   6.255   0.631   7.746
14039WAT     H142359   6.312   0.621   7.664
14039WAT     H242360   6.305   0.683   7.815
14040WAT      O42361   2.438   5.140   8.571
14040WAT     H142362   2.424   5.222   8.516
14040WAT     H242363   2.531   5.138   8.607
14041WAT      O42364   2.585   7.708   0.983
14041WAT     H142365   2.515   7.760   0.934
14041WAT     H242366   2.590   7.615   0.946
14042WAT      O42367   2.749   2.046   2.991
14042WAT     H142368   2.651   2.025   2.997
14042WAT     H242369   2.771   2.121   3.052
14043WAT      O42370   4.887   5.830   6.606
14043WAT     H142371   4.931   5.785   6.685
14043WAT     H242372   4.855   5.920   6.633
14044WAT      O42373   0.654   2.773   0.496
14044WAT     H142374   0.701   2.822   0.569
14044WAT     H242375   0.717   2.757   0.420
14045WAT      O42376   5.807   0.495   1.766
14045WAT     H142377   5.866   0.433   1.819
14045WAT     H242378   5.857   0.579   1.745
14046WAT      O42379   7.859   8.736   4.425
14046WAT     H142380   7.813   8.716   4.511
14046WAT     H242381   7.795   8.724   4.349
14047WAT      O42382   5.702   9.262   8.511
14047WAT     H142383   5.736   9.186   8.567
14047WAT     H242384   5.760   9.343   8.527
14048WAT      O42385   2.529   9.402   8.252
14048WAT     H142386   2.546   9.327   8.188
14048WAT     H242387   2.516   9.487   8.200
14049WAT      O42388   7.167   5.851   5.050
14049WAT     H142389   7.250   5.906   5.042
14049WAT     H242390   7.191   5.755   5.057
14050WAT      O42391   9.347   5.891   8.552
14050WAT     H142392   9.287   5.846   8.618
14050WAT     H242393   9.377   5.979   8.589
14051WAT      O42394   4.425   0.536   0.723
14051WAT     H142395   4.381   0.475   0.658
14051WAT     H242396   4.486   0.483   0.782
14052WAT      O42397   4.249   1.405   4.338
14052WAT     H142398   4.218   1.349   4.261
14052WAT     H242399   4.220   1.499   4.324
14053WAT      O42400   6.003   9.419   5.029
14053WAT     H142401   6.067   9.434   5.104
14053WAT     H242402   5.998   9.501   4.972
14054WAT      O42403   3.440   4.957   5.001
14054WAT     H142404   3.429   4.859   4.981
14054WAT     H242405   3.407   5.011   4.923
14055WAT      O42406   9.479   1.080   6.935
14055WAT     H142407   9.457   1.121   6.846
14055WAT     H242408   9.568   1.036   6.930
14056WAT      O42409   4.756   7.083   8.056
14056WAT     H142410   4.789   7.116   8.144
14056WAT     H242411   4.692   7.150   8.017
14057WAT      O42412   2.798   4.554   7.318
14057WAT     H142413   2.834   4.480   7.375
14057WAT     H242414   2.853   4.563   7.235
14058WAT      O42415   8.998   7.744   6.385
14058WAT     H142416   9.032   7.837   6.377
14058WAT     H242417   9.046   7.698   6.460
14059WAT      O42418   2.174   9.458   7.109
14059WAT     H142419   2.129   9.403   7.039
14059WAT     H242420   2.181   9.553   7.077
14060WAT      O42421   4.255   6.784   9.158
14060WAT     H142422   4.198   6.710   9.120
14060WAT     H242423   4.260   6.859   9.093
14061WAT      O42424   8.665   3.452   8.260
14061WAT     H142425   8.725   3.383   8.220
14061WAT     H242426   8.680   3.458   8.358
14062WAT      O42427   3.774   4.531   2.601
14062WAT     H142428   3.866   4.498   2.619
14062WAT     H242429   3.756   4.613   2.655
14063WAT      O42430   9.209   3.788   3.767
14063WAT     H142431   9.110   3.783   3.752
14063WAT     H242432   9.255   3.803   3.680
14064WAT      O42433   5.945   5.091   0.611
14064WAT     H142434   5.923   5.048   0.698
14064WAT     H242435   6.033   5.137   0.617
14065WAT      O42436   8.028   3.067   9.626
14065WAT     H142437   7.971   2.989   9.652
14065WAT     H242438   8.010   3.144   9.689
14066WAT      O42439   6.151   8.372   2.165
14066WAT     H142440   6.185   8.283   2.194
14066WAT     H242441   6.091   8.361   2.086
14067WAT      O42442   4.977   2.977   0.058
14067WAT     H142443   4.975   3.077   0.057
14067WAT     H242444   5.039   2.945   0.131
14068WAT      O42445   6.711   3.226   7.257
14068WAT     H142446   6.758   3.268   7.179
14068WAT     H242447   6.613   3.241   7.250
14069WAT      O42448   3.897   8.071   0.977
14069WAT     H142449   3.842   8.140   1.025
14069WAT     H242450   3.858   8.054   0.887
14070WAT      O42451   1.252   0.326   6.764
14070WAT     H142452   1.214   0.244   6.721
14070WAT     H242453   1.347   0.336   6.737
14071WAT      O42454   0.245   2.018   3.043
14071WAT     H142455   0.187   1.996   3.122
14071WAT     H242456   0.190   2.063   2.973
14072WAT      O42457   9.647   2.508   2.841
14072WAT     H142458   9.724   2.555   2.885
14072WAT     H242459   9.660   2.505   2.742
14073WAT      O42460   9.318   0.984   2.802
14073WAT     H142461   9.258   0.986   2.881
14073WAT     H242462   9.374   0.901   2.804
14074WAT      O42463   8.379   1.965   9.289
14074WAT     H142464   8.356   1.872   9.260
14074WAT     H242465   8.410   1.963   9.384
14075WAT      O42466   0.853   5.865   8.289
14075WAT     H142467   0.801   5.915   8.359
14075WAT     H242468   0.804   5.867   8.203
14076WAT      O42469   5.365   7.283   9.042
14076WAT     H142470   5.448   7.257   9.091
14076WAT     H242471   5.321   7.202   9.004
14077WAT      O42472   0.482   4.382   5.483
14077WAT     H142473   0.566   4.327   5.489
14077WAT     H242474   0.407   4.325   5.449
14078WAT      O42475   3.851   1.152   0.958
14078WAT     H142476   3.785   1.192   0.894
14078WAT     H242477   3.849   1.052   0.949
14079WAT      O42478   5.359   5.957   1.279
14079WAT     H142479   5.356   6.037   1.340
14079WAT     H242480   5.338   5.875   1.331
14080WAT      O42481   9.415   0.288   6.451
14080WAT     H142482   9.339   0.253   6.396
14080WAT     H242483   9.381   0.318   6.540
14081WAT      O42484   3.482   5.720   3.251
14081WAT     H142485   3.562   5.712   3.311
14081WAT     H242486   3.399   5.728   3.308
14082WAT      O42487   7.345   6.245   6.433
14082WAT     H142488   7.273   6.175   6.437
14082WAT     H242489   7.340   6.293   6.345
14083WAT      O42490   0.167   6.017   9.244
14083WAT     H142491   0.177   6.020   9.344
14083WAT     H242492   0.095   5.952   9.220
14084WAT      O42493   9.659   2.609   0.931
14084WAT     H142494   9.751   2.571   0.918
14084WAT     H242495   9.665   2.694   0.984
14085WAT      O42496   0.932   3.460   2.074
14085WAT     H142497   0.989   3.411   2.140
14085WAT     H242498   0.910   3.400   1.997
14086WAT      O42499   5.524   9.038   4.903
14086WAT     H142500   5.481   8.997   4.823
14086WAT     H242501   5.478   9.124   4.925
14087WAT      O42502   5.030   9.588   2.767
14087WAT     H142503   5.116   9.550   2.802
14087WAT     H242504   5.001   9.664   2.826
14088WAT      O42505   4.056   8.746   6.278
14088WAT     H142506   3.972   8.722   6.326
14088WAT     H242507   4.064   8.689   6.196
14089WAT      O42508   9.111   5.128   5.122
14089WAT     H142509   9.108   5.031   5.101
14089WAT     H242510   9.019   5.167   5.115
14090WAT      O42511   5.308   5.966   2.618
14090WAT     H142512   5.388   6.022   2.641
14090WAT     H242513   5.229   6.025   2.603
14091WAT      O42514   8.751   1.569   5.058
14091WAT     H142515   8.769   1.540   5.152
14091WAT     H242516   8.659   1.608   5.052
14092WAT      O42517   0.069   3.029   6.953
14092WAT     H142518   0.058   3.127   6.933
14092WAT     H242519  -0.021   2.987   6.962
14093WAT      O42520   7.005   0.546   0.380
14093WAT     H142521   6.911   0.556   0.350
14093WAT     H242522   7.050   0.635   0.380
14094WAT      O42523   3.781   4.759   5.191
14094WAT     H142524   3.744   4.714   5.110
14094WAT     H242525   3.879   4.775   5.178
14095WAT      O42526   2.557   4.581   9.196
14095WAT     H142527   2.492   4.516   9.157
14095WAT     H242528   2.507   4.650   9.248
14096WAT      O42529   2.911   3.905   0.029
14096WAT     H142530   2.909   3.990   0.082
14096WAT     H242531   2.887   3.924  -0.066
14097WAT      O42532   1.793   7.344   0.317
14097WAT     H142533   1.768   7.248   0.301
14097WAT     H242534   1.758   7.373   0.405
14098WAT      O42535   3.392   4.027   5.972
14098WAT     H142536   3.365   3.931   5.981
14098WAT     H242537   3.317   4.080   5.932
14099WAT      O42538   6.420   6.868   6.681
14099WAT     H142539   6.368   6.857   6.766
14099WAT     H242540   6.372   6.822   6.607
14100WAT      O42541   3.246   0.471   5.667
14100WAT     H142542   3.164   0.430   5.707
14100WAT     H242543   3.219   0.544   5.603
14101WAT      O42544   2.050   3.481   2.767
14101WAT     H142545   2.094   3.571   2.761
14101WAT     H242546   2.117   3.409   2.751
14102WAT      O42547   0.697   1.264   5.491
14102WAT     H142548   0.686   1.338   5.557
14102WAT     H242549   0.647   1.183   5.523
14103WAT      O42550   4.449   1.273   1.360
14103WAT     H142551   4.351   1.263   1.345
14103WAT     H242552   4.498   1.237   1.281
14104WAT      O42553   2.547   7.171   6.022
14104WAT     H142554   2.498   7.245   5.976
14104WAT     H242555   2.616   7.133   5.960
14105WAT      O42556   1.640   2.594   8.558
14105WAT     H142557   1.632   2.515   8.497
14105WAT     H242558   1.560   2.652   8.548
14106WAT      O42559   8.204   6.669   5.866
14106WAT     H142560   8.116   6.683   5.912
14106WAT     H242561   8.213   6.574   5.837
14107WAT      O42562   4.709   8.774   3.408
14107WAT     H142563   4.805   8.799   3.408
14107WAT     H242564   4.700   8.675   3.414
14108WAT      O42565   7.114   9.338   1.973
14108WAT     H142566   7.155   9.364   2.061
14108WAT     H242567   7.131   9.241   1.956
14109WAT      O42568   7.663   2.577   0.432
14109WAT     H142569   7.676   2.548   0.526
14109WAT     H242570   7.705   2.667   0.419
14110WAT      O42571   1.798   8.519   8.786
14110WAT     H142572   1.764   8.465   8.709
14110WAT     H242573   1.849   8.460   8.849
14111WAT      O42574   2.237   0.505   7.714
14111WAT     H142575   2.138   0.521   7.716
14111WAT     H242576   2.262   0.443   7.789
14112WAT      O42577   4.372   2.469   5.041
14112WAT     H142578   4.418   2.424   4.964
14112WAT     H242579   4.405   2.430   5.127
14113WAT      O42580   4.184   4.336   0.133
14113WAT     H142581   4.227   4.406   0.075
14113WAT     H242582   4.095   4.369   0.164
14114WAT      O42583   3.342   1.884   2.364
14114WAT     H142584   3.343   1.944   2.444
14114WAT     H242585   3.414   1.912   2.300
14115WAT      O42586   1.221   7.251   5.491
14115WAT     H142587   1.219   7.216   5.398
14115WAT     H242588   1.151   7.322   5.502
14116WAT      O42589   5.094   7.685   9.637
14116WAT     H142590   5.106   7.590   9.666
14116WAT     H242591   5.176   7.715   9.588
14117WAT      O42592   1.914   4.423   3.532
14117WAT     H142593   1.846   4.454   3.598
14117WAT     H242594   1.962   4.343   3.568
14118WAT      O42595   2.540   2.308   0.785
14118WAT     H142596   2.467   2.244   0.760
14118WAT     H242597   2.607   2.260   0.841
14119WAT      O42598   4.407   2.468   6.200
14119WAT     H142599   4.334   2.438   6.260
14119WAT     H242600   4.422   2.401   6.128
14120WAT      O42601   1.026   4.435   0.860
14120WAT     H142602   1.063   4.342   0.865
14120WAT     H242603   0.961   4.448   0.935
14121WAT      O42604   6.364   9.178   0.860
14121WAT     H142605   6.334   9.090   0.895
14121WAT     H242606   6.289   9.244   0.867
14122WAT      O42607   8.590   4.163   1.059
14122WAT     H142608   8.665   4.115   1.104
14122WAT     H242609   8.504   4.143   1.107
14123WAT      O42610   2.630   4.065   3.237
14123WAT     H142611   2.589   4.105   3.156
14123WAT     H242612   2.665   3.974   3.216
14124WAT      O42613   9.506   5.523   6.410
14124WAT     H142614   9.598   5.486   6.398
14124WAT     H242615   9.480   5.572   6.326
14125WAT      O42616   9.566   7.571   4.452
14125WAT     H142617   9.643   7.627   4.422
14125WAT     H242618   9.583   7.475   4.428
14126WAT      O42619   5.382   2.114   4.926
14126WAT     H142620   5.464   2.085   4.876
14126WAT     H242621   5.301   2.093   4.872
14127WAT      O42622   5.427   1.493   9.875
14127WAT     H142623   5.505   1.551   9.901
14127WAT     H242624   5.344   1.528   9.918
14128WAT      O42625   2.380   7.163   8.062
14128WAT     H142626   2.453   7.175   7.994
14128WAT     H242627   2.350   7.252   8.096
14129WAT      O42628   8.736   8.116   9.077
14129WAT     H142629   8.831   8.086   9.067
14129WAT     H242630   8.686   8.098   8.992
14130WAT      O42631   2.250   2.635   6.361
14130WAT     H142632   2.295   2.701   6.301
14130WAT     H242633   2.276   2.654   6.456
14131WAT      O42634   7.050   4.018   6.552
14131WAT     H142635   7.053   4.018   6.452
14131WAT     H242636   7.046   4.112   6.585
14132WAT      O42637   6.330   2.684   9.062
14132WAT     H142638   6.396   2.639   9.122
14132WAT     H242639   6.269   2.615   9.022
14133WAT      O42640   1.319   8.264   2.461
14133WAT     H142641   1.235   8.256   2.514
14133WAT     H242642   1.320   8.194   2.389
14134WAT      O42643   7.685   1.277   4.845
14134WAT     H142644   7.696   1.328   4.759
14134WAT     H242645   7.611   1.318   4.898
14135WAT      O42646   6.275   6.355   5.144
14135WAT     H142647   6.373   6.337   5.152
14135WAT     H242648   6.249   6.354   5.047
14136WAT      O42649   7.709   0.547   2.625
14136WAT     H142650   7.796   0.506   2.653
14136WAT     H242651   7.715   0.647   2.635
14137WAT      O42652   8.705   1.836   3.778
14137WAT     H142653   8.622   1.787   3.751
14137WAT     H242654   8.704   1.928   3.739
14138WAT      O42655   1.175   4.487   1.254
14138WAT     H142656   1.236   4.442   1.319
14138WAT     H242657   1.149   4.422   1.183
14139WAT      O42658   3.636   4.107   6.836
14139WAT     H142659   3.637   4.207   6.841
14139WAT     H242660   3.647   4.078   6.741
14140WAT      O42661   8.813   7.880   6.193
14140WAT     H142662   8.723   7.907   6.158
14140WAT     H242663   8.801   7.811   6.264
14141WAT      O42664   8.414   3.696   0.728
14141WAT     H142665   8.385   3.659   0.640
14141WAT     H242666   8.491   3.642   0.763
14142WAT      O42667   9.345   9.568   6.164
14142WAT     H142668   9.353   9.549   6.262
14142WAT     H242669   9.325   9.666   6.150
14143WAT      O42670   2.272   8.183   7.153
14143WAT     H142671   2.349   8.193   7.090
14143WAT     H242672   2.190   8.158   7.102
14144WAT      O42673   1.551   0.374   8.548
14144WAT     H142674   1.579   0.328   8.631
14144WAT     H242675   1.632   0.398   8.494
14145WAT      O42676   2.241   4.877   2.128
14145WAT     H142677   2.332   4.895   2.165
14145WAT     H242678   2.194   4.964   2.111
14146WAT      O42679   2.707   1.295   0.311
14146WAT     H142680   2.758   1.351   0.245
14146WAT     H242681   2.684   1.207   0.269
14147WAT      O42682   1.812   8.857   3.533
14147WAT     H142683   1.870   8.805   3.595
14147WAT     H242684   1.756   8.921   3.585
14148WAT      O42685   8.989   0.139   3.015
14148WAT     H142686   9.066   0.140   3.079
14148WAT     H242687   9.020   0.105   2.926
14149WAT      O42688   8.154   2.191   0.203
14149WAT     H142689   8.139   2.093   0.207
14149WAT     H242690   8.074   2.235   0.161
14150WAT      O42691   8.536   1.151   4.291
14150WAT     H142692   8.626   1.132   4.251
14150WAT     H242693   8.547   1.207   4.373
14151WAT      O42694   3.087   7.058   4.539
14151WAT     H142695   3.156   7.010   4.485
14151WAT     H242696   3.078   7.016   4.629
14152WAT      O42697   7.702   6.830   1.713
14152WAT     H142698   7.629   6.785   1.663
14152WAT     H242699   7.777   6.766   1.728
14153WAT      O42700   3.293   5.833   5.467
14153WAT     H142701   3.334   5.750   5.428
14153WAT     H242702   3.364   5.892   5.504
14154WAT      O42703   4.887   3.230   8.497
14154WAT     H142704   4.824   3.307   8.506
14154WAT     H242705   4.917   3.222   8.402
14155WAT      O42706   8.349   1.534   0.478
14155WAT     H142707   8.287   1.549   0.555
14155WAT     H242708   8.422   1.471   0.506
14156WAT      O42709   6.588   8.971   8.218
14156WAT     H142710   6.496   8.941   8.192
14156WAT     H242711   6.596   9.070   8.203
14157WAT      O42712   5.689   8.403   3.806
14157WAT     H142713   5.744   8.474   3.849
14157WAT     H242714   5.745   8.352   3.740
14158WAT      O42715   4.877   3.940   8.251
14158WAT     H142716   4.797   3.961   8.195
14158WAT     H242717   4.848   3.920   8.345
14159WAT      O42718   8.134   7.498   8.970
14159WAT     H142719   8.067   7.452   9.029
14159WAT     H242720   8.107   7.593   8.956
14160WAT      O42721   2.452   5.674   1.971
14160WAT     H142722   2.463   5.726   1.886
14160WAT     H242723   2.441   5.577   1.950
14161WAT      O42724   2.631   9.193   3.370
14161WAT     H142725   2.650   9.133   3.448
14161WAT     H242726   2.535   9.220   3.371
14162WAT      O42727   4.891   3.114   6.573
14162WAT     H142728   4.910   3.158   6.661
14162WAT     H242729   4.831   3.172   6.518
14163WAT      O42730   3.717   1.498   0.735
14163WAT     H142731   3.643   1.560   0.760
14163WAT     H242732   3.731   1.501   0.636
14164WAT      O42733   8.229   1.908   6.527
14164WAT     H142734   8.187   1.930   6.439
14164WAT     H242735   8.254   1.993   6.574
14165WAT      O42736   6.915   8.851   4.439
14165WAT     H142737   6.835   8.823   4.387
14165WAT     H242738   6.994   8.798   4.409
14166WAT      O42739   6.982   6.809   7.978
14166WAT     H142740   6.911   6.739   7.976
14166WAT     H242741   6.992   6.850   7.888
14167WAT      O42742   4.343   6.090   3.734
14167WAT     H142743   4.392   6.177   3.735
14167WAT     H242744   4.336   6.056   3.828
14168WAT      O42745   4.001   3.089   1.101
14168WAT     H142746   3.990   3.182   1.135
14168WAT     H242747   3.914   3.041   1.106
14169WAT      O42748   5.994   5.484   1.218
14169WAT     H142749   5.990   5.554   1.147
14169WAT     H242750   5.904   5.443   1.229
14170WAT      O42751   0.830   7.646   5.646
14170WAT     H142752   0.809   7.676   5.739
14170WAT     H242753   0.925   7.616   5.642
14171WAT      O42754   5.043   0.355   2.705
14171WAT     H142755   5.048   0.437   2.648
14171WAT     H242756   4.950   0.344   2.741
14172WAT      O42757   2.943   6.065   6.942
14172WAT     H142758   2.933   5.999   6.867
14172WAT     H242759   3.001   6.026   7.013
14173WAT      O42760   1.708   8.663   4.572
14173WAT     H142761   1.637   8.594   4.556
14173WAT     H242762   1.667   8.754   4.565
14174WAT      O42763   1.316   0.998   9.670
14174WAT     H142764   1.352   1.073   9.614
14174WAT     H242765   1.223   0.976   9.640
14175WAT      O42766   0.260   5.275   5.091
14175WAT     H142767   0.176   5.307   5.047
14175WAT     H242768   0.309   5.353   5.131
14176WAT      O42769   8.712   8.240   1.299
14176WAT     H142770   8.642   8.217   1.368
14176WAT     H242771   8.669   8.250   1.210
14177WAT      O42772   0.663   2.057   1.262
14177WAT     H142773   0.645   2.032   1.357
14177WAT     H242774   0.701   1.979   1.213
14178WAT      O42775   7.624   1.003   3.058
14178WAT     H142776   7.589   1.007   3.152
14178WAT     H242777   7.602   0.914   3.018
14179WAT      O42778   1.738   2.760   4.215
14179WAT     H142779   1.829   2.730   4.245
14179WAT     H242780   1.747   2.838   4.154
14180WAT      O42781   3.485   2.636   3.754
14180WAT     H142782   3.472   2.735   3.750
14180WAT     H242783   3.470   2.604   3.848
14181WAT      O42784   4.592   6.922   3.325
14181WAT     H142785   4.597   6.832   3.282
14181WAT     H242786   4.496   6.949   3.334
14182WAT      O42787   4.260   4.601   7.599
14182WAT     H142788   4.287   4.515   7.642
14182WAT     H242789   4.183   4.640   7.648
14183WAT      O42790   4.280   4.313   1.417
14183WAT     H142791   4.234   4.376   1.480
14183WAT     H242792   4.362   4.276   1.462
14184WAT      O42793   3.520   8.205   7.325
14184WAT     H142794   3.584   8.157   7.386
14184WAT     H242795   3.460   8.264   7.380
14185WAT      O42796   7.807   1.228   9.891
14185WAT     H142797   7.844   1.137   9.912
14185WAT     H242798   7.841   1.258   9.802
14186WAT      O42799   7.420   3.341   2.603
14186WAT     H142800   7.448   3.383   2.689
14186WAT     H242801   7.413   3.242   2.615
14187WAT      O42802   5.937   8.184   4.715
14187WAT     H142803   5.927   8.271   4.764
14187WAT     H242804   5.849   8.157   4.677
14188WAT      O42805   2.296   5.338   0.958
14188WAT     H142806   2.340   5.422   0.990
14188WAT     H242807   2.288   5.274   1.035
14189WAT      O42808   6.481   1.610   4.709
14189WAT     H142809   6.398   1.630   4.657
14189WAT     H242810   6.542   1.553   4.654
14190WAT      O42811   2.393   5.487   6.451
14190WAT     H142812   2.466   5.516   6.513
14190WAT     H242813   2.304   5.512   6.491
14191WAT      O42814   2.186   5.654   3.405
14191WAT     H142815   2.222   5.578   3.459
14191WAT     H242816   2.132   5.714   3.463
14192WAT      O42817   1.217   0.565   4.604
14192WAT     H142818   1.273   0.528   4.530
14192WAT     H242819   1.192   0.660   4.582
14193WAT      O42820   1.748   2.097   4.152
14193WAT     H142821   1.809   2.153   4.207
14193WAT     H242822   1.689   2.156   4.097
14194WAT      O42823   6.021   6.988   4.216
14194WAT     H142824   6.105   7.041   4.198
14194WAT     H242825   5.951   7.015   4.150
14195WAT      O42826   3.893   8.248   4.583
14195WAT     H142827   3.983   8.258   4.625
14195WAT     H242828   3.849   8.337   4.577
14196WAT      O42829   9.720   6.185   0.889
14196WAT     H142830   9.789   6.115   0.907
14196WAT     H242831   9.639   6.169   0.946
14197WAT      O42832   0.199   0.293   3.622
14197WAT     H142833   0.265   0.280   3.697
14197WAT     H242834   0.244   0.343   3.548
14198WAT      O42835   2.614   0.386   1.175
14198WAT     H142836   2.641   0.310   1.234
14198WAT     H242837   2.664   0.468   1.203
14199WAT      O42838   8.228   4.081   5.614
14199WAT     H142839   8.217   3.996   5.563
14199WAT     H242840   8.217   4.064   5.712
14200WAT      O42841   5.675   0.760   7.045
14200WAT     H142842   5.762   0.720   7.015
14200WAT     H242843   5.668   0.854   7.011
14201WAT      O42844   2.432   3.002   7.074
14201WAT     H142845   2.387   2.931   7.021
14201WAT     H242846   2.522   3.022   7.034
14202WAT      O42847   4.907   3.200   4.231
14202WAT     H142848   4.887   3.104   4.213
14202WAT     H242849   4.961   3.237   4.155
14203WAT      O42850   9.003   8.284   9.496
14203WAT     H142851   9.064   8.242   9.429
14203WAT     H242852   8.995   8.224   9.576
14204WAT      O42853   1.326   8.655   8.816
14204WAT     H142854   1.266   8.611   8.749
14204WAT     H242855   1.273   8.682   8.896
14205WAT      O42856   2.310   7.449   2.436
14205WAT     H142857   2.265   7.408   2.516
14205WAT     H242858   2.258   7.427   2.354
14206WAT      O42859   2.944   9.132   5.308
14206WAT     H142860   2.932   9.065   5.234
14206WAT     H242861   2.862   9.132   5.366
14207WAT      O42862   4.931   3.341   7.461
14207WAT     H142863   5.003   3.402   7.426
14207WAT     H242864   4.919   3.356   7.559
14208WAT      O42865   8.658   9.484   6.026
14208WAT     H142866   8.645   9.560   5.962
14208WAT     H242867   8.755   9.475   6.048
14209WAT      O42868   0.482   6.031   8.012
14209WAT     H142869   0.527   6.119   7.995
14209WAT     H242870   0.438   6.000   7.928
14210WAT      O42871   6.423   9.121   7.702
14210WAT     H142872   6.324   9.131   7.697
14210WAT     H242873   6.451   9.103   7.796
14211WAT      O42874   7.924   2.801   1.206
14211WAT     H142875   7.884   2.791   1.297
14211WAT     H242876   7.860   2.848   1.145
14212WAT      O42877   1.651   4.477   1.362
14212WAT     H142878   1.662   4.483   1.263
14212WAT     H242879   1.568   4.526   1.389
14213WAT      O42880   1.400   3.503   3.948
14213WAT     H142881   1.470   3.573   3.964
14213WAT     H242882   1.444   3.421   3.910
14214WAT      O42883   9.597   3.709   5.820
14214WAT     H142884   9.672   3.696   5.884
14214WAT     H242885   9.526   3.766   5.862
14215WAT      O42886   5.385   3.250   9.862
14215WAT     H142887   5.301   3.293   9.829
14215WAT     H242888   5.463   3.308   9.840
14216WAT      O42889   3.533   8.276   0.559
14216WAT     H142890   3.490   8.187   0.573
14216WAT     H242891   3.565   8.312   0.647
14217WAT      O42892   4.973   4.234   6.878
14217WAT     H142893   5.072   4.241   6.866
14217WAT     H242894   4.954   4.166   6.949
14218WAT      O42895   4.472   5.596   2.250
14218WAT     H142896   4.377   5.627   2.250
14218WAT     H242897   4.532   5.672   2.227
14219WAT      O42898   0.532   6.004   2.001
14219WAT     H142899   0.619   5.978   2.042
14219WAT     H242900   0.481   6.062   2.064
14220WAT      O42901   8.072   6.074   0.312
14220WAT     H142902   8.114   6.142   0.371
14220WAT     H242903   7.989   6.112   0.271
14221WAT      O42904   8.680   1.114   7.407
14221WAT     H142905   8.648   1.206   7.429
14221WAT     H242906   8.701   1.108   7.310
14222WAT      O42907   6.581   2.060   9.276
14222WAT     H142908   6.651   2.113   9.229
14222WAT     H242909   6.519   2.019   9.209
14223WAT      O42910   3.701   0.487   7.023
14223WAT     H142911   3.654   0.574   7.008
14223WAT     H242912   3.800   0.502   7.017
14224WAT      O42913   2.521   9.401   9.069
14224WAT     H142914   2.495   9.384   8.974
14224WAT     H242915   2.447   9.448   9.116
14225WAT      O42916   6.634   5.088   5.005
14225WAT     H142917   6.614   5.186   4.997
14225WAT     H242918   6.572   5.047   5.073
14226WAT      O42919   6.579   1.524   5.158
14226WAT     H142920   6.492   1.573   5.161
14226WAT     H242921   6.649   1.577   5.207
14227WAT      O42922   7.619   2.168   9.043
14227WAT     H142923   7.662   2.117   8.969
14227WAT     H242924   7.633   2.120   9.129
14228WAT      O42925   2.511   2.325   1.144
14228WAT     H142926   2.583   2.306   1.078
14228WAT     H242927   2.545   2.388   1.214
14229WAT      O42928   5.705   3.590   0.825
14229WAT     H142929   5.611   3.622   0.841
14229WAT     H242930   5.759   3.665   0.786
14230WAT      O42931   2.497   1.075   7.802
14230WAT     H142932   2.452   1.049   7.888
14230WAT     H242933   2.475   1.170   7.781
14231WAT      O42934   4.348   7.616   6.241
14231WAT     H142935   4.426   7.584   6.296
14231WAT     H242936   4.363   7.712   6.216
14232WAT      O42937   8.359   8.125   0.851
14232WAT     H142938   8.322   8.058   0.787
14232WAT     H242939   8.372   8.212   0.803
14233WAT      O42940   2.585   6.760   5.508
14233WAT     H142941   2.529   6.738   5.588
14233WAT     H242942   2.614   6.676   5.463
14234WAT      O42943   6.485   0.564   9.864
14234WAT     H142944   6.534   0.555   9.777
14234WAT     H242945   6.482   0.660   9.891
14235WAT      O42946   9.243   4.176   1.588
14235WAT     H142947   9.225   4.273   1.600
14235WAT     H242948   9.340   4.162   1.568
14236WAT      O42949   7.228   6.394   2.037
14236WAT     H142950   7.296   6.326   2.010
14236WAT     H242951   7.184   6.431   1.955
14237WAT      O42952   1.332   3.089   6.984
14237WAT     H142953   1.412   3.054   6.935
14237WAT     H242954   1.362   3.146   7.060
14238WAT      O42955   0.306   8.881   3.995
14238WAT     H142956   0.321   8.813   3.924
14238WAT     H242957   0.301   8.836   4.084
14239WAT      O42958   9.291   1.998   7.606
14239WAT     H142959   9.311   1.993   7.508
14239WAT     H242960   9.325   1.915   7.651
14240WAT      O42961   0.457   0.180   3.317
14240WAT     H142962   0.539   0.237   3.329
14240WAT     H242963   0.484   0.085   3.308
14241WAT      O42964   7.864   1.352   9.204
14241WAT     H142965   7.873   1.392   9.295
14241WAT     H242966   7.787   1.393   9.156
14242WAT      O42967   4.409   8.746   0.519
14242WAT     H142968   4.452   8.808   0.584
14242WAT     H242969   4.333   8.793   0.474
14243WAT      O42970   8.875   5.865   6.979
14243WAT     H142971   8.954   5.844   6.921
14243WAT     H242972   8.866   5.796   7.050
14244WAT      O42973   3.451   6.265   9.792
14244WAT     H142974   3.351   6.264   9.793
14244WAT     H242975   3.485   6.172   9.780
14245WAT      O42976   4.598   7.129   9.112
14245WAT     H142977   4.547   7.093   9.033
14245WAT     H242978   4.575   7.225   9.125
14246WAT      O42979   6.359   8.856   8.655
14246WAT     H142980   6.348   8.801   8.737
14246WAT     H242981   6.453   8.889   8.649
14247WAT      O42982   8.554   6.419   3.606
14247WAT     H142983   8.478   6.480   3.584
14247WAT     H242984   8.527   6.324   3.588
14248WAT      O42985   8.504   1.348   9.897
14248WAT     H142986   8.467   1.411   9.829
14248WAT     H242987   8.467   1.256   9.881
14249WAT      O42988   8.323   0.947   8.264
14249WAT     H142989   8.398   0.890   8.296
14249WAT     H242990   8.309   0.932   8.166
14250WAT      O42991   9.248   5.222   7.134
14250WAT     H142992   9.279   5.131   7.162
14250WAT     H242993   9.328   5.282   7.124
14251WAT      O42994   0.891   5.024   3.611
14251WAT     H142995   0.866   5.035   3.515
14251WAT     H242996   0.934   5.108   3.645
14252WAT      O42997   7.936   6.917   9.064
14252WAT     H142998   7.898   6.937   9.154
14252WAT     H242999   7.923   6.996   9.004
14253WAT      O43000   3.949   1.785   0.857
14253WAT     H143001   3.966   1.882   0.843
14253WAT     H243002   3.851   1.769   0.868
14254WAT      O43003   9.237   0.448   6.267
14254WAT     H143004   9.226   0.437   6.168
14254WAT     H243005   9.166   0.396   6.314
14255WAT      O43006   4.662   5.634   8.183
14255WAT     H143007   4.627   5.648   8.090
14255WAT     H243008   4.741   5.694   8.197
14256WAT      O43009   9.094   2.672   9.598
14256WAT     H143010   9.092   2.611   9.519
14256WAT     H243011   9.188   2.698   9.617
14257WAT      O43012   7.867   3.773   9.749
14257WAT     H143013   7.897   3.752   9.842
14257WAT     H243014   7.834   3.690   9.705
14258WAT      O43015   0.204   5.638   9.743
14258WAT     H143016   0.178   5.679   9.656
14258WAT     H243017   0.160   5.687   9.818
14259WAT      O43018   5.588   7.004   0.220
14259WAT     H143019   5.570   7.093   0.179
14259WAT     H243020   5.554   7.003   0.315
14260WAT      O43021   6.297   1.416   5.309
14260WAT     H143022   6.215   1.467   5.281
14260WAT     H243023   6.363   1.479   5.350
14261WAT      O43024   1.926   6.737   6.028
14261WAT     H143025   1.842   6.762   5.979
14261WAT     H243026   1.972   6.820   6.060
14262WAT      O43027   5.009   5.613   2.224
14262WAT     H143028   4.971   5.618   2.317
14262WAT     H243029   5.080   5.683   2.214
14263WAT      O43030   3.271   5.452   7.630
14263WAT     H143031   3.320   5.394   7.695
14263WAT     H243032   3.284   5.548   7.655
14264WAT      O43033   8.742   8.096   4.507
14264WAT     H143034   8.712   8.080   4.413
14264WAT     H243035   8.827   8.047   4.524
14265WAT      O43036   4.044   3.844   8.541
14265WAT     H143037   4.126   3.795   8.572
14265WAT     H243038   4.024   3.820   8.446
14266WAT      O43039   5.905   8.148   4.092
14266WAT     H143040   5.817   8.195   4.095
14266WAT     H243041   5.976   8.207   4.131
14267WAT      O43042   4.599   2.692   8.268
14267WAT     H143043   4.589   2.686   8.367
14267WAT     H243044   4.545   2.621   8.223
14268WAT      O43045   5.437   3.315   5.902
14268WAT     H143046   5.434   3.314   5.802
14268WAT     H243047   5.466   3.226   5.936
14269WAT      O43048   8.147   3.402   8.502
14269WAT     H143049   8.162   3.497   8.475
14269WAT     H243050   8.236   3.358   8.516
14270WAT      O43051   7.164   9.178   8.924
14270WAT     H143052   7.213   9.215   9.003
14270WAT     H243053   7.154   9.250   8.855
14271WAT      O43054   2.605   8.258   1.691
14271WAT     H143055   2.554   8.194   1.749
14271WAT     H243056   2.702   8.257   1.717
14272WAT      O43057   2.653   2.803   7.880
14272WAT     H143058   2.557   2.775   7.874
14272WAT     H243059   2.683   2.836   7.791
14273WAT      O43060   7.754   9.668   3.802
14273WAT     H143061   7.715   9.708   3.719
14273WAT     H243062   7.779   9.573   3.783
14274WAT      O43063   8.295   2.246   3.899
14274WAT     H143064   8.320   2.328   3.950
14274WAT     H243065   8.211   2.264   3.847
14275WAT      O43066   4.448   6.931   6.768
14275WAT     H143067   4.373   6.869   6.792
14275WAT     H243068   4.415   7.000   6.703
14276WAT      O43069   2.518   4.913   6.735
14276WAT     H143070   2.503   4.935   6.638
14276WAT     H243071   2.530   4.998   6.787
14277WAT      O43072   8.440   2.088   9.840
14277WAT     H143073   8.373   2.077   9.766
14277WAT     H243074   8.451   2.001   9.889
14278WAT      O43075   1.837   1.179   4.824
14278WAT     H143076   1.794   1.212   4.908
14278WAT     H243077   1.819   1.243   4.749
14279WAT      O43078   0.735   6.084   4.467
14279WAT     H143079   0.669   6.077   4.541
14279WAT     H243080   0.705   6.028   4.390
14280WAT      O43081   2.410   1.456   1.058
14280WAT     H143082   2.501   1.490   1.032
14280WAT     H243083   2.393   1.369   1.012
14281WAT      O43084   8.964   9.080   4.890
14281WAT     H143085   8.912   9.040   4.965
14281WAT     H243086   8.924   9.051   4.803
14282WAT      O43087   5.799   4.196   9.520
14282WAT     H143088   5.702   4.174   9.513
14282WAT     H243089   5.852   4.111   9.520
14283WAT      O43090   1.219   8.625   0.674
14283WAT     H143091   1.288   8.655   0.608
14283WAT     H243092   1.207   8.526   0.668
14284WAT      O43093   7.854   5.530   4.201
14284WAT     H143094   7.898   5.607   4.248
14284WAT     H243095   7.838   5.554   4.105
14285WAT      O43096   7.487   6.240   2.804
14285WAT     H143097   7.441   6.323   2.774
14285WAT     H243098   7.573   6.264   2.850
14286WAT      O43099   3.700   5.300   4.293
14286WAT     H143100   3.769   5.357   4.338
14286WAT     H243101   3.673   5.226   4.355
14287WAT      O43102   3.428   1.264   3.555
14287WAT     H143103   3.463   1.170   3.560
14287WAT     H243104   3.370   1.282   3.634
14288WAT      O43105   4.566   3.646   3.446
14288WAT     H143106   4.513   3.584   3.503
14288WAT     H243107   4.530   3.645   3.353
14289WAT      O43108   0.919   1.166   1.063
14289WAT     H143109   0.860   1.211   1.129
14289WAT     H243110   0.874   1.083   1.030
14290WAT      O43111   5.421   9.593   0.153
14290WAT     H143112   5.392   9.500   0.131
14290WAT     H243113   5.420   9.649   0.070
14291WAT      O43114   6.837   8.241   3.253
14291WAT     H143115   6.854   8.208   3.160
14291WAT     H243116   6.915   8.294   3.285
14292WAT      O43117   1.295   4.265   9.635
14292WAT     H143118   1.274   4.266   9.732
14292WAT     H243119   1.384   4.308   9.620
14293WAT      O43120   1.792   0.653   5.341
14293WAT     H143121   1.861   0.671   5.411
14293WAT     H243122   1.826   0.583   5.278
14294WAT      O43123   7.295   8.514   4.265
14294WAT     H143124   7.308   8.533   4.168
14294WAT     H243125   7.370   8.555   4.317
14295WAT      O43126   1.568   6.261   4.776
14295WAT     H143127   1.616   6.333   4.725
14295WAT     H243128   1.472   6.288   4.789
14296WAT      O43129   6.933   0.724   9.879
14296WAT     H143130   6.948   0.626   9.866
14296WAT     H243131   7.021   0.772   9.881
14297WAT      O43132   8.325   3.085   9.357
14297WAT     H143133   8.387   3.159   9.383
14297WAT     H243134   8.373   3.020   9.298
14298WAT      O43135   5.303   7.907   3.539
14298WAT     H143136   5.328   7.875   3.448
14298WAT     H243137   5.320   7.833   3.605
14299WAT      O43138   2.152   5.033   0.974
14299WAT     H143139   2.110   4.958   1.026
14299WAT     H243140   2.145   5.014   0.876
14300WAT      O43141   4.543   0.991   1.950
14300WAT     H143142   4.457   0.950   1.980
14300WAT     H243143   4.528   1.042   1.866
14301WAT      O43144   4.701   1.959   8.792
14301WAT     H143145   4.690   1.901   8.711
14301WAT     H243146   4.797   1.984   8.802
14302WAT      O43147   3.769   4.966   5.374
14302WAT     H143148   3.804   4.877   5.344
14302WAT     H243149   3.740   4.960   5.469
14303WAT      O43150   8.863   1.606   3.687
14303WAT     H143151   8.886   1.553   3.769
14303WAT     H243152   8.822   1.693   3.714
14304WAT      O43153   7.964   7.240   9.287
14304WAT     H143154   7.886   7.180   9.266
14304WAT     H243155   7.962   7.320   9.228
14305WAT      O43156   9.706   7.805   2.519
14305WAT     H143157   9.767   7.875   2.482
14305WAT     H243158   9.750   7.715   2.513
14306WAT      O43159   7.824   4.691   1.178
14306WAT     H143160   7.804   4.783   1.214
14306WAT     H243161   7.786   4.683   1.086
14307WAT      O43162   7.518   1.679   1.771
14307WAT     H143163   7.518   1.602   1.835
14307WAT     H243164   7.463   1.753   1.809
14308WAT      O43165   1.155   2.632   8.549
14308WAT     H143166   1.105   2.548   8.531
14308WAT     H243167   1.108   2.685   8.619
14309WAT      O43168   1.409   9.167   4.806
14309WAT     H143169   1.484   9.103   4.824
14309WAT     H243170   1.364   9.189   4.892
14310WAT      O43171   6.992   5.203   7.392
14310WAT     H143172   7.019   5.256   7.473
14310WAT     H243173   7.063   5.210   7.322
14311WAT      O43174   4.762   4.486   0.488
14311WAT     H143175   4.739   4.414   0.553
14311WAT     H243176   4.752   4.576   0.531
14312WAT      O43177   2.625   6.252   3.981
14312WAT     H143178   2.594   6.261   3.887
14312WAT     H243179   2.722   6.277   3.987
14313WAT      O43180   6.840   7.959   6.978
14313WAT     H143181   6.937   7.935   6.976
14313WAT     H243182   6.799   7.939   6.889
14314WAT      O43183   5.421   8.029   5.726
14314WAT     H143184   5.511   8.003   5.759
14314WAT     H243185   5.418   8.128   5.711
14315WAT      O43186   2.154   6.098   0.731
14315WAT     H143187   2.236   6.071   0.781
14315WAT     H243188   2.174   6.180   0.677
14316WAT      O43189   7.752   6.903   7.075
14316WAT     H143190   7.781   6.856   6.992
14316WAT     H243191   7.823   6.895   7.145
14317WAT      O43192   8.017   2.474   7.533
14317WAT     H143193   7.957   2.473   7.452
14317WAT     H243194   8.107   2.508   7.507
14318WAT      O43195   2.937   4.097   3.035
14318WAT     H143196   3.000   4.020   3.021
14318WAT     H243197   2.939   4.124   3.131
14319WAT      O43198   4.422   8.415   7.808
14319WAT     H143199   4.440   8.325   7.768
14319WAT     H243200   4.492   8.480   7.777
14320WAT      O43201   7.965   4.116   2.676
14320WAT     H143202   7.905   4.056   2.623
14320WAT     H243203   8.030   4.161   2.614
14321WAT      O43204   8.499   3.187   4.962
14321WAT     H143205   8.523   3.265   5.019
14321WAT     H243206   8.452   3.118   5.018
14322WAT      O43207   8.008   9.637   4.035
14322WAT     H143208   7.930   9.644   4.097
14322WAT     H243209   8.084   9.689   4.073
14323WAT      O43210   3.327   2.668   6.727
14323WAT     H143211   3.260   2.733   6.762
14323WAT     H243212   3.292   2.575   6.735
14324WAT      O43213   8.436   0.190   9.165
14324WAT     H143214   8.432   0.284   9.130
14324WAT     H243215   8.451   0.127   9.090
14325WAT      O43216   6.837   0.524   4.976
14325WAT     H143217   6.813   0.535   4.880
14325WAT     H243218   6.771   0.573   5.033
14326WAT      O43219   8.301   4.800   2.445
14326WAT     H143220   8.321   4.706   2.469
14326WAT     H243221   8.218   4.830   2.492
14327WAT      O43222   5.023   3.046   3.836
14327WAT     H143223   5.053   3.117   3.772
14327WAT     H243224   5.100   3.018   3.893
14328WAT      O43225   0.355   6.544   4.602
14328WAT     H143226   0.397   6.459   4.571
14328WAT     H243227   0.282   6.570   4.539
14329WAT      O43228   1.302   3.278   0.168
14329WAT     H143229   1.366   3.294   0.243
14329WAT     H243230   1.258   3.364   0.142
14330WAT      O43231   3.058   7.592   1.008
14330WAT     H143232   3.067   7.592   0.908
14330WAT     H243233   2.964   7.615   1.034
14331WAT      O43234   0.746   9.630   8.051
14331WAT     H143235   0.804   9.548   8.056
14331WAT     H243236   0.655   9.608   8.086
14332WAT      O43237   5.184   4.530   5.437
14332WAT     H143238   5.269   4.492   5.473
14332WAT     H243239   5.200   4.624   5.406
14333WAT      O43240   0.970   8.097   2.231
14333WAT     H143241   1.038   8.049   2.287
14333WAT     H243242   0.898   8.033   2.204
14334WAT      O43243   2.961   1.415   2.807
14334WAT     H143244   3.058   1.437   2.821
14334WAT     H243245   2.918   1.487   2.753
14335WAT      O43246   7.747   7.120   9.682
14335WAT     H143247   7.815   7.178   9.638
14335WAT     H243248   7.726   7.156   9.773
14336WAT      O43249   5.649   8.386   7.024
14336WAT     H143250   5.697   8.345   7.101
14336WAT     H243251   5.682   8.346   6.938
14337WAT      O43252   8.023   3.290   1.051
14337WAT     H143253   8.039   3.211   0.992
14337WAT     H243254   8.092   3.360   1.032
14338WAT      O43255   2.921   8.929   0.955
14338WAT     H143256   2.936   8.837   0.992
14338WAT     H243257   2.828   8.936   0.919
14339WAT      O43258   8.487   2.211   4.505
14339WAT     H143259   8.407   2.159   4.475
14339WAT     H243260   8.485   2.302   4.463
14340WAT      O43261   5.402   5.298   0.040
14340WAT     H143262   5.398   5.377   0.101
14340WAT     H243263   5.415   5.329  -0.054
14341WAT      O43264   7.693   3.611   2.692
14341WAT     H143265   7.593   3.620   2.689
14341WAT     H243266   7.734   3.701   2.703
14342WAT      O43267   2.984   1.699   5.529
14342WAT     H143268   2.944   1.755   5.457
14342WAT     H243269   2.911   1.664   5.588
14343WAT      O43270   7.251   6.777   4.154
14343WAT     H143271   7.233   6.872   4.126
14343WAT     H243272   7.166   6.725   4.152
14344WAT      O43273   7.121   3.545   6.546
14344WAT     H143274   7.117   3.460   6.599
14344WAT     H243275   7.168   3.528   6.460
14345WAT      O43276   2.460   8.125   9.006
14345WAT     H143277   2.452   8.039   9.056
14345WAT     H243278   2.548   8.128   8.959
14346WAT      O43279   9.608   8.851   5.312
14346WAT     H143280   9.592   8.878   5.217
14346WAT     H243281   9.706   8.848   5.331
14347WAT      O43282   8.469   0.237   7.588
14347WAT     H143283   8.512   0.310   7.641
14347WAT     H243284   8.430   0.275   7.504
14348WAT      O43285   2.672   9.839   2.929
14348WAT     H143286   2.749   9.776   2.921
14348WAT     H243287   2.706   9.933   2.936
14349WAT      O43288   0.984   2.250   9.803
14349WAT     H143289   1.028   2.223   9.717
14349WAT     H243290   1.042   2.315   9.851
14350WAT      O43291   1.665   3.213   0.651
14350WAT     H143292   1.634   3.308   0.664
14350WAT     H243293   1.670   3.168   0.740
14351WAT      O43294   6.373   2.373   1.419
14351WAT     H143295   6.458   2.396   1.466
14351WAT     H243296   6.306   2.342   1.485
14352WAT      O43297   4.116   9.387   4.846
14352WAT     H143298   4.029   9.350   4.879
14352WAT     H243299   4.097   9.461   4.781
14353WAT      O43300   9.206   3.182   2.978
14353WAT     H143301   9.268   3.238   2.924
14353WAT     H243302   9.153   3.123   2.917
14354WAT      O43303   9.175   4.829   6.768
14354WAT     H143304   9.268   4.817   6.802
14354WAT     H243305   9.162   4.923   6.737
14355WAT      O43306   0.063   1.445   9.784
14355WAT     H143307   0.045   1.483   9.875
14355WAT     H243308  -0.020   1.451   9.729
14356WAT      O43309   2.447   8.327   5.229
14356WAT     H143310   2.492   8.238   5.234
14356WAT     H243311   2.429   8.361   5.322
14357WAT      O43312   7.877   0.998   3.205
14357WAT     H143313   7.957   0.965   3.156
14357WAT     H243314   7.795   0.979   3.150
14358WAT      O43315   3.289   6.854   4.426
14358WAT     H143316   3.263   6.815   4.514
14358WAT     H243317   3.381   6.823   4.401
14359WAT      O43318   0.079   8.779   1.466
14359WAT     H143319   0.041   8.787   1.558
14359WAT     H243320   0.150   8.709   1.466
14360WAT      O43321   0.826   7.060   2.884
14360WAT     H143322   0.729   7.070   2.903
14360WAT     H243323   0.848   6.965   2.864
14361WAT      O43324   0.330   4.170   5.942
14361WAT     H143325   0.252   4.119   5.906
14361WAT     H243326   0.398   4.182   5.869
14362WAT      O43327   0.335   2.455   8.167
14362WAT     H143328   0.264   2.469   8.097
14362WAT     H243329   0.414   2.410   8.126
14363WAT      O43330   7.116   1.894   2.790
14363WAT     H143331   7.094   1.913   2.885
14363WAT     H243332   7.078   1.966   2.732
14364WAT      O43333   1.104   1.259   9.614
14364WAT     H143334   1.173   1.293   9.677
14364WAT     H243335   1.149   1.209   9.540
14365WAT      O43336   6.126   0.570   7.331
14365WAT     H143337   6.120   0.649   7.392
14365WAT     H243338   6.035   0.551   7.294
14366WAT      O43339   5.302   4.507   8.859
14366WAT     H143340   5.272   4.477   8.950
14366WAT     H243341   5.395   4.541   8.865
14367WAT      O43342   8.592   2.685   9.250
14367WAT     H143343   8.683   2.691   9.291
14367WAT     H243344   8.557   2.592   9.260
14368WAT      O43345   3.676   3.360   9.051
14368WAT     H143346   3.720   3.271   9.043
14368WAT     H243347   3.731   3.429   9.003
14369WAT      O43348   0.697   2.041   1.574
14369WAT     H143349   0.762   1.968   1.594
14369WAT     H243350   0.611   2.023   1.621
14370WAT      O43351   2.988   2.212   2.884
14370WAT     H143352   2.895   2.200   2.850
14370WAT     H243353   2.984   2.237   2.981
14371WAT      O43354   2.927   3.619   8.367
14371WAT     H143355   2.836   3.580   8.376
14371WAT     H243356   2.989   3.576   8.433
14372WAT      O43357   5.576   8.612   4.198
14372WAT     H143358   5.588   8.683   4.268
14372WAT     H243359   5.543   8.655   4.113
14373WAT      O43360   0.831   6.450   5.019
14373WAT     H143361   0.914   6.444   5.074
14373WAT     H243362   0.804   6.545   5.009
14374WAT      O43363   2.957   3.335   5.885
14374WAT     H143364   3.032   3.296   5.937
14374WAT     H243365   2.987   3.421   5.842
14375WAT      O43366   7.342   0.885   1.194
14375WAT     H143367   7.335   0.788   1.169
14375WAT     H243368   7.268   0.936   1.148
14376WAT      O43369   3.142   3.111   1.381
14376WAT     H143370   3.166   3.099   1.478
14376WAT     H243371   3.226   3.116   1.327
14377WAT      O43372   3.341   9.056   6.994
14377WAT     H143373   3.338   9.130   6.927
14377WAT     H243374   3.279   9.077   7.070
14378WAT      O43375   2.621   4.172   2.315
14378WAT     H143376   2.653   4.080   2.294
14378WAT     H243377   2.699   4.234   2.326
14379WAT      O43378   9.218   9.249   0.764
14379WAT     H143379   9.282   9.248   0.687
14379WAT     H243380   9.127   9.278   0.733
14380WAT      O43381   1.343   2.177   4.557
14380WAT     H143382   1.256   2.158   4.602
14380WAT     H243383   1.400   2.095   4.559
14381WAT      O43384   3.705   0.262   1.683
14381WAT     H143385   3.662   0.179   1.718
14381WAT     H243386   3.780   0.289   1.743
14382WAT      O43387   5.544   2.806   0.414
14382WAT     H143388   5.557   2.902   0.389
14382WAT     H243389   5.477   2.800   0.488
14383WAT      O43390   7.708   2.959   9.631
14383WAT     H143391   7.773   2.951   9.706
14383WAT     H243392   7.741   2.906   9.553
14384WAT      O43393   6.923   0.918   1.289
14384WAT     H143394   6.895   0.834   1.335
14384WAT     H243395   6.912   0.996   1.351
14385WAT      O43396   1.777   6.244   1.727
14385WAT     H143397   1.769   6.182   1.649
14385WAT     H243398   1.816   6.194   1.805
14386WAT      O43399   5.474   7.162   8.652
14386WAT     H143400   5.566   7.194   8.672
14386WAT     H243401   5.464   7.148   8.553
14387WAT      O43402   7.490   1.713   4.079
14387WAT     H143403   7.394   1.734   4.063
14387WAT     H243404   7.535   1.697   3.991
14388WAT      O43405   9.268   6.848   1.891
14388WAT     H143406   9.217   6.762   1.892
14388WAT     H243407   9.355   6.835   1.845
14389WAT      O43408   6.054   8.809   4.686
14389WAT     H143409   6.117   8.877   4.649
14389WAT     H243410   5.970   8.809   4.633
14390WAT      O43411   0.662   7.637   2.000
14390WAT     H143412   0.597   7.568   1.968
14390WAT     H243413   0.628   7.728   1.977
14391WAT      O43414   7.673   8.723   7.058
14391WAT     H143415   7.725   8.722   6.972
14391WAT     H243416   7.582   8.760   7.041
14392WAT      O43417   9.599   4.648   6.176
14392WAT     H143418   9.602   4.702   6.260
14392WAT     H243419   9.657   4.692   6.107
14393WAT      O43420   5.641   9.530   5.186
14393WAT     H143421   5.571   9.558   5.121
14393WAT     H243422   5.717   9.595   5.184
14394WAT      O43423   7.929   4.370   4.404
14394WAT     H143424   7.916   4.427   4.322
14394WAT     H243425   8.026   4.367   4.427
14395WAT      O43426   8.022   7.779   2.577
14395WAT     H143427   8.036   7.856   2.515
14395WAT     H243428   8.075   7.700   2.544
14396WAT      O43429   0.017   9.404   4.000
14396WAT     H143430  -0.039   9.322   3.989
14396WAT     H243431   0.053   9.432   3.911
14397WAT      O43432   9.518   4.946   4.628
14397WAT     H143433   9.611   4.913   4.609
14397WAT     H243434   9.455   4.868   4.632
14398WAT      O43435   9.634   1.037   9.471
14398WAT     H143436   9.631   1.100   9.393
14398WAT     H243437   9.561   1.060   9.535
14399WAT      O43438   3.594   7.850   0.859
14399WAT     H143439   3.541   7.932   0.878
14399WAT     H243440   3.690   7.867   0.878
14400WAT      O43441   9.424   4.869   8.414
14400WAT     H143442   9.492   4.809   8.371
14400WAT     H243443   9.359   4.814   8.466
14401WAT      O43444   6.854   8.442   6.878
14401WAT     H143445   6.830   8.392   6.795
14401WAT     H243446   6.829   8.539   6.868
14402WAT      O43447   9.452   4.856   1.001
14402WAT     H143448   9.363   4.820   1.027
14402WAT     H243449   9.474   4.935   1.058
14403WAT      O43450   7.624   6.179   9.207
14403WAT     H143451   7.710   6.169   9.257
14403WAT     H243452   7.603   6.092   9.161
14404WAT      O43453   4.239   6.925   4.088
14404WAT     H143454   4.180   6.899   4.164
14404WAT     H243455   4.252   6.847   4.027
14405WAT      O43456   1.741   5.422   6.607
14405WAT     H143457   1.813   5.453   6.545
14405WAT     H243458   1.709   5.499   6.662
14406WAT      O43459   1.169   0.814   4.747
14406WAT     H143460   1.230   0.891   4.767
14406WAT     H243461   1.121   0.787   4.831
14407WAT      O43462   6.024   8.843   7.374
14407WAT     H143463   5.948   8.878   7.430
14407WAT     H243464   6.089   8.916   7.357
14408WAT      O43465   1.871   1.304   6.471
14408WAT     H143466   1.931   1.234   6.508
14408WAT     H243467   1.925   1.384   6.444
14409WAT      O43468   1.877   2.650   5.412
14409WAT     H143469   1.874   2.556   5.379
14409WAT     H243470   1.909   2.710   5.338
14410WAT      O43471   9.571   4.959   5.617
14410WAT     H143472   9.640   4.890   5.594
14410WAT     H243473   9.524   4.988   5.534
14411WAT      O43474   9.337   2.307   9.452
14411WAT     H143475   9.326   2.270   9.360
14411WAT     H243476   9.262   2.371   9.472
14412WAT      O43477   4.564   8.098   5.184
14412WAT     H143478   4.493   8.030   5.169
14412WAT     H243479   4.616   8.112   5.100
14413WAT      O43480   3.427   1.973   1.664
14413WAT     H143481   3.461   1.934   1.578
14413WAT     H243482   3.368   2.050   1.644
14414WAT      O43483   0.360   5.296   5.883
14414WAT     H143484   0.302   5.378   5.883
14414WAT     H243485   0.455   5.323   5.896
14415WAT      O43486   5.641   1.546   4.056
14415WAT     H143487   5.597   1.561   3.968
14415WAT     H243488   5.572   1.522   4.125
14416WAT      O43489   3.787   6.897   4.152
14416WAT     H143490   3.735   6.860   4.075
14416WAT     H243491   3.761   6.992   4.168
14417WAT      O43492   2.641   7.384   3.585
14417WAT     H143493   2.571   7.447   3.552
14417WAT     H243494   2.674   7.328   3.509
14418WAT      O43495   0.938   1.010   2.864
14418WAT     H143496   0.889   0.977   2.944
14418WAT     H243497   1.016   0.950   2.846
14419WAT      O43498   0.738   3.432   1.326
14419WAT     H143499   0.767   3.504   1.263
14419WAT     H243500   0.817   3.376   1.351
14420WAT      O43501   1.993   8.667   8.212
14420WAT     H143502   1.906   8.661   8.263
14420WAT     H243503   2.069   8.675   8.277
14421WAT      O43504   2.406   5.706   0.208
14421WAT     H143505   2.480   5.753   0.255
14421WAT     H243506   2.362   5.769   0.144
14422WAT      O43507   0.522   9.763   3.315
14422WAT     H143508   0.615   9.751   3.348
14422WAT     H243509   0.465   9.686   3.346
14423WAT      O43510   3.839   1.776   6.003
14423WAT     H143511   3.870   1.857   6.052
14423WAT     H243512   3.843   1.793   5.904
14424WAT      O43513   7.281   3.744   2.962
14424WAT     H143514   7.222   3.825   2.958
14424WAT     H243515   7.289   3.714   3.057
14425WAT      O43516   6.639   5.768   0.089
14425WAT     H143517   6.612   5.860   0.117
14425WAT     H243518   6.728   5.745   0.128
14426WAT      O43519   7.394   5.573   7.277
14426WAT     H143520   7.325   5.624   7.226
14426WAT     H243521   7.453   5.638   7.326
14427WAT      O43522   0.014   3.815   3.977
14427WAT     H143523   0.032   3.748   4.050
14427WAT     H243524  -0.054   3.778   3.914
14428WAT      O43525   1.122   2.934   5.269
14428WAT     H143526   1.037   2.988   5.271
14428WAT     H243527   1.143   2.903   5.362
14429WAT      O43528   0.409   9.708   9.588
14429WAT     H143529   0.350   9.681   9.664
14429WAT     H243530   0.500   9.671   9.602
14430WAT      O43531   2.547   0.163   3.977
14430WAT     H143532   2.467   0.104   3.964
14430WAT     H243533   2.569   0.168   4.074
14431WAT      O43534   3.290   7.369   4.014
14431WAT     H143535   3.201   7.402   4.045
14431WAT     H243536   3.283   7.272   3.989
14432WAT      O43537   6.681   5.435   4.789
14432WAT     H143538   6.686   5.337   4.773
14432WAT     H243539   6.632   5.479   4.714
14433WAT      O43540   1.726   4.481   2.997
14433WAT     H143541   1.740   4.503   2.901
14433WAT     H243542   1.804   4.513   3.050
14434WAT      O43543   7.031   1.886   5.213
14434WAT     H143544   6.979   1.910   5.131
14434WAT     H243545   6.996   1.940   5.290
14435WAT      O43546   9.507   1.265   4.407
14435WAT     H143547   9.483   1.234   4.315
14435WAT     H243548   9.432   1.319   4.445
14436WAT      O43549   8.211   2.740   6.967
14436WAT     H143550   8.229   2.794   6.884
14436WAT     H243551   8.242   2.790   7.047
14437WAT      O43552   8.782   3.644   0.438
14437WAT     H143553   8.796   3.639   0.339
14437WAT     H243554   8.757   3.554   0.473
14438WAT      O43555   8.209   1.593   8.616
14438WAT     H143556   8.126   1.566   8.664
14438WAT     H243557   8.239   1.518   8.557
14439WAT      O43558   9.812   6.395   6.677
14439WAT     H143559   9.877   6.437   6.741
14439WAT     H243560   9.728   6.372   6.726
14440WAT      O43561   9.420   4.106   8.114
14440WAT     H143562   9.392   4.187   8.062
14440WAT     H243563   9.517   4.087   8.096
14441WAT      O43564   6.271   2.841   2.543
14441WAT     H143565   6.280   2.911   2.615
14441WAT     H243566   6.198   2.867   2.481
14442WAT      O43567   8.111   2.284   5.562
14442WAT     H143568   8.207   2.279   5.590
14442WAT     H243569   8.055   2.308   5.641
14443WAT      O43570   1.763   2.986   1.062
14443WAT     H143571   1.804   3.064   1.015
14443WAT     H243572   1.668   3.006   1.084
14444WAT      O43573   4.666   0.504   5.070
14444WAT     H143574   4.695   0.594   5.037
14444WAT     H243575   4.677   0.436   4.997
14445WAT      O43576   1.233   8.742   5.350
14445WAT     H143577   1.222   8.745   5.251
14445WAT     H243578   1.261   8.649   5.377
14446WAT      O43579   6.207   5.497   7.392
14446WAT     H143580   6.278   5.494   7.321
14446WAT     H243581   6.181   5.592   7.409
14447WAT      O43582   3.566   7.439   0.297
14447WAT     H143583   3.606   7.353   0.266
14447WAT     H243584   3.557   7.501   0.219
14448WAT      O43585   6.032   7.748   7.418
14448WAT     H143586   5.978   7.709   7.493
14448WAT     H243587   6.034   7.685   7.341
14449WAT      O43588   1.014   0.441   3.341
14449WAT     H143589   0.998   0.451   3.440
14449WAT     H243590   1.108   0.469   3.320
14450WAT      O43591   0.699   3.494   4.030
14450WAT     H143592   0.642   3.465   3.954
14450WAT     H243593   0.748   3.416   4.068
14451WAT      O43594   3.252   0.689   4.691
14451WAT     H143595   3.162   0.698   4.733
14451WAT     H243596   3.241   0.673   4.592
14452WAT      O43597   9.854   3.313   2.347
14452WAT     H143598   9.896   3.234   2.391
14452WAT     H243599   9.918   3.389   2.345
14453WAT      O43600   9.118   3.813   1.574
14453WAT     H143601   9.058   3.735   1.555
14453WAT     H243602   9.141   3.859   1.489
14454WAT      O43603   0.301   6.807   1.928
14454WAT     H143604   0.323   6.815   1.830
14454WAT     H243605   0.379   6.767   1.976
14455WAT      O43606   9.735   9.603   7.823
14455WAT     H143607   9.715   9.544   7.902
14455WAT     H243608   9.717   9.552   7.739
14456WAT      O43609   3.709   3.434   6.116
14456WAT     H143610   3.697   3.500   6.042
14456WAT     H243611   3.707   3.482   6.204
14457WAT      O43612   7.010   6.743   0.586
14457WAT     H143613   7.103   6.714   0.606
14457WAT     H243614   7.008   6.795   0.501
14458WAT      O43615   2.519   6.153   8.695
14458WAT     H143616   2.608   6.184   8.727
14458WAT     H243617   2.514   6.158   8.596
14459WAT      O43618   3.287   2.756   1.142
14459WAT     H143619   3.313   2.664   1.171
14459WAT     H243620   3.222   2.751   1.066
14460WAT      O43621   9.544   1.724   9.276
14460WAT     H143622   9.453   1.724   9.235
14460WAT     H243623   9.567   1.631   9.307
14461WAT      O43624   4.384   0.302   8.220
14461WAT     H143625   4.382   0.246   8.138
14461WAT     H243626   4.369   0.398   8.196
14462WAT      O43627   6.976   8.993   8.919
14462WAT     H143628   7.041   9.069   8.929
14462WAT     H243629   6.885   9.024   8.946
14463WAT      O43630   0.024   8.258   3.810
14463WAT     H143631  -0.035   8.282   3.733
14463WAT     H243632  -0.019   8.285   3.896
14464WAT      O43633   8.892   3.174   4.666
14464WAT     H143634   8.899   3.114   4.586
14464WAT     H243635   8.958   3.248   4.658
14465WAT      O43636   2.926   5.867   9.125
14465WAT     H143637   2.998   5.870   9.056
14465WAT     H243638   2.852   5.930   9.099
14466WAT      O43639   9.670   2.589   3.272
14466WAT     H143640   9.587   2.636   3.303
14466WAT     H243641   9.742   2.656   3.254
14467WAT      O43642   5.631   1.764   8.385
14467WAT     H143643   5.628   1.833   8.457
14467WAT     H243644   5.619   1.808   8.296
14468WAT      O43645   6.609   7.313   5.664
14468WAT     H143646   6.627   7.353   5.575
14468WAT     H243647   6.663   7.229   5.675
14469WAT      O43648   5.370   8.266   1.157
14469WAT     H143649   5.460   8.241   1.123
14469WAT     H243650   5.303   8.197   1.129
14470WAT      O43651   2.679   2.556   4.335
14470WAT     H143652   2.668   2.493   4.412
14470WAT     H243653   2.641   2.646   4.360
14471WAT      O43654   5.897   4.649   1.928
14471WAT     H143655   5.928   4.715   1.860
14471WAT     H243656   5.974   4.596   1.962
14472WAT      O43657   3.683   1.455   2.824
14472WAT     H143658   3.774   1.431   2.792
14472WAT     H243659   3.661   1.401   2.905
14473WAT      O43660   8.617   7.101   1.254
14473WAT     H143661   8.600   7.008   1.287
14473WAT     H243662   8.664   7.154   1.325
14474WAT      O43663   3.404   3.534   4.582
14474WAT     H143664   3.380   3.449   4.629
14474WAT     H243665   3.454   3.594   4.644
14475WAT      O43666   3.372   4.685   5.003
14475WAT     H143667   3.311   4.677   4.924
14475WAT     H243668   3.449   4.622   4.991
14476WAT      O43669   1.312   6.401   7.691
14476WAT     H143670   1.268   6.411   7.781
14476WAT     H243671   1.241   6.390   7.621
14477WAT      O43672   7.438   2.146   8.352
14477WAT     H143673   7.476   2.141   8.259
14477WAT     H243674   7.367   2.217   8.356
14478WAT      O43675   8.552   8.195   1.517
14478WAT     H143676   8.499   8.273   1.551
14478WAT     H243677   8.494   8.113   1.517
14479WAT      O43678   1.908   0.025   1.091
14479WAT     H143679   1.840  -0.042   1.120
14479WAT     H243680   1.993  -0.022   1.069
14480WAT      O43681   8.153   6.369   0.734
14480WAT     H143682   8.133   6.360   0.832
14480WAT     H243683   8.086   6.316   0.682
14481WAT      O43684   3.854   0.007   2.878
14481WAT     H143685   3.820  -0.081   2.912
14481WAT     H243686   3.795   0.040   2.804
14482WAT      O43687   8.925   3.980   4.015
14482WAT     H143688   8.877   3.915   4.074
14482WAT     H243689   8.944   3.938   3.927
14483WAT      O43690   7.700   5.212   0.733
14483WAT     H143691   7.738   5.132   0.780
14483WAT     H243692   7.712   5.293   0.791
14484WAT      O43693   0.997   6.276   9.708
14484WAT     H143694   1.036   6.364   9.735
14484WAT     H243695   0.907   6.265   9.749
14485WAT      O43696   8.357   7.415   1.636
14485WAT     H143697   8.353   7.392   1.539
14485WAT     H243698   8.341   7.513   1.649
14486WAT      O43699   4.605   0.191   5.854
14486WAT     H143700   4.562   0.159   5.769
14486WAT     H243701   4.612   0.114   5.918
14487WAT      O43702   5.013   0.758   2.100
14487WAT     H143703   4.982   0.685   2.039
14487WAT     H243704   5.100   0.794   2.069
14488WAT      O43705   5.999   2.747   5.201
14488WAT     H143706   5.905   2.761   5.232
14488WAT     H243707   6.007   2.657   5.159
14489WAT      O43708   3.229   5.321   1.181
14489WAT     H143709   3.142   5.275   1.199
14489WAT     H243710   3.236   5.403   1.238
14490WAT      O43711   0.955   6.090   3.871
14490WAT     H143712   0.950   6.139   3.784
14490WAT     H243713   0.940   5.992   3.855
14491WAT      O43714   0.089   4.023   3.145
14491WAT     H143715   0.164   3.978   3.194
14491WAT     H243716   0.062   4.106   3.193
14492WAT      O43717   4.197   1.295   4.104
14492WAT     H143718   4.217   1.352   4.024
14492WAT     H243719   4.098   1.278   4.108
14493WAT      O43720   6.079   0.628   8.840
14493WAT     H143721   6.068   0.728   8.838
14493WAT     H243722   6.166   0.604   8.796
14494WAT      O43723   0.890   0.081   7.522
14494WAT     H143724   0.874   0.177   7.542
14494WAT     H243725   0.822   0.047   7.458
14495WAT      O43726   6.138   9.736   4.090
14495WAT     H143727   6.096   9.820   4.057
14495WAT     H243728   6.125   9.663   4.024
14496WAT      O43729   5.713   1.893   0.751
14496WAT     H143730   5.700   1.801   0.788
14496WAT     H243731   5.716   1.889   0.652
14497WAT      O43732   3.295   3.185   7.810
14497WAT     H143733   3.244   3.204   7.894
14497WAT     H243734   3.308   3.270   7.760
14498WAT      O43735   0.895   1.055   3.703
14498WAT     H143736   0.856   1.145   3.721
14498WAT     H243737   0.872   0.993   3.779
14499WAT      O43738   3.287   7.775   9.750
14499WAT     H143739   3.253   7.860   9.790
14499WAT     H243740   3.236   7.698   9.787
14500WAT      O43741   5.422   2.558   9.733
14500WAT     H143742   5.442   2.555   9.830
14500WAT     H243743   5.348   2.494   9.712
14501WAT      O43744   8.970   4.576   5.081
14501WAT     H143745   9.059   4.535   5.061
14501WAT     H243746   8.907   4.506   5.113
14502WAT      O43747   8.736   1.308   4.427
14502WAT     H143748   8.711   1.369   4.502
14502WAT     H243749   8.772   1.362   4.350
14503WAT      O43750   7.745   5.267   5.332
14503WAT     H143751   7.763   5.200   5.260
14503WAT     H243752   7.780   5.356   5.305
14504WAT      O43753   7.693   6.662   2.494
14504WAT     H143754   7.683   6.617   2.405
14504WAT     H243755   7.735   6.752   2.481
14505WAT      O43756   1.094   2.878   2.801
14505WAT     H143757   1.162   2.942   2.766
14505WAT     H243758   1.135   2.787   2.810
14506WAT      O43759   6.931   9.067   5.419
14506WAT     H143760   6.985   9.055   5.503
14506WAT     H243761   6.865   8.992   5.412
14507WAT      O43762   5.721   3.991   5.434
14507WAT     H143763   5.798   3.936   5.464
14507WAT     H243764   5.749   4.087   5.425
14508WAT      O43765   5.660   1.558   2.839
14508WAT     H143766   5.594   1.496   2.882
14508WAT     H243767   5.685   1.631   2.903
14509WAT      O43768   5.368   6.594   3.081
14509WAT     H143769   5.374   6.612   3.179
14509WAT     H243770   5.274   6.573   3.057
14510WAT      O43771   3.352   3.297   1.014
14510WAT     H143772   3.254   3.314   1.019
14510WAT     H243773   3.378   3.284   0.918
14511WAT      O43774   1.480   1.800   6.817
14511WAT     H143775   1.502   1.877   6.756
14511WAT     H243776   1.437   1.727   6.764
14512WAT      O43777   1.235   5.886   0.710
14512WAT     H143778   1.264   5.862   0.803
14512WAT     H243779   1.211   5.983   0.707
14513WAT      O43780   2.644   0.805   3.338
14513WAT     H143781   2.635   0.754   3.424
14513WAT     H243782   2.560   0.858   3.322
14514WAT      O43783   0.104   6.569   6.982
14514WAT     H143784   0.110   6.489   7.041
14514WAT     H243785   0.165   6.640   7.017
14515WAT      O43786   9.294   7.382   5.756
14515WAT     H143787   9.321   7.300   5.808
14515WAT     H243788   9.226   7.433   5.808
14516WAT      O43789   7.349   1.864   1.869
14516WAT     H143790   7.313   1.920   1.794
14516WAT     H243791   7.291   1.875   1.949
14517WAT      O43792   5.033   7.980   0.640
14517WAT     H143793   4.948   8.014   0.602
14517WAT     H243794   5.084   8.055   0.682
14518WAT      O43795   5.605   4.054   4.593
14518WAT     H143796   5.517   4.089   4.625
14518WAT     H243797   5.643   3.991   4.660
14519WAT      O43798   9.754   1.572   4.412
14519WAT     H143799   9.707   1.541   4.329
14519WAT     H243800   9.852   1.583   4.393
14520WAT      O43801   4.473   9.350   7.742
14520WAT     H143802   4.432   9.437   7.771
14520WAT     H243803   4.565   9.368   7.705
14521WAT      O43804   9.381   6.868   3.870
14521WAT     H143805   9.477   6.895   3.865
14521WAT     H243806   9.355   6.856   3.966
14522WAT      O43807   5.308   1.807   7.112
14522WAT     H143808   5.289   1.860   7.195
14522WAT     H243809   5.233   1.822   7.046
14523WAT      O43810   2.202   8.518   4.526
14523WAT     H143811   2.114   8.563   4.542
14523WAT     H243812   2.205   8.482   4.433
14524WAT      O43813   1.438   3.738   4.870
14524WAT     H143814   1.498   3.660   4.855
14524WAT     H243815   1.399   3.733   4.962
14525WAT      O43816   3.724   3.344   3.908
14525WAT     H143817   3.764   3.273   3.966
14525WAT     H243818   3.660   3.303   3.844
14526WAT      O43819   8.879   2.604   1.764
14526WAT     H143820   8.817   2.666   1.716
14526WAT     H243821   8.858   2.510   1.738
14527WAT      O43822   0.467   9.825   1.661
14527WAT     H143823   0.541   9.869   1.712
14527WAT     H243824   0.437   9.743   1.711
14528WAT      O43825   2.758   1.546   4.485
14528WAT     H143826   2.659   1.549   4.502
14528WAT     H243827   2.788   1.451   4.480
14529WAT      O43828   7.047   1.448   2.321
14529WAT     H143829   7.129   1.468   2.374
14529WAT     H243830   6.997   1.373   2.364
14530WAT      O43831   8.660   3.899   1.146
14530WAT     H143832   8.681   3.866   1.238
14530WAT     H243833   8.595   3.837   1.102
14531WAT      O43834   4.149   8.541   7.430
14531WAT     H143835   4.110   8.621   7.385
14531WAT     H243836   4.076   8.489   7.476
14532WAT      O43837   1.414   5.163   0.398
14532WAT     H143838   1.455   5.088   0.450
14532WAT     H243839   1.433   5.250   0.445
14533WAT      O43840   4.712   4.471   6.729
14533WAT     H143841   4.702   4.452   6.826
14533WAT     H243842   4.743   4.565   6.716
14534WAT      O43843   0.552   9.009   4.378
14534WAT     H143844   0.562   9.057   4.466
14534WAT     H243845   0.642   8.980   4.346
14535WAT      O43846   3.783   3.347   8.684
14535WAT     H143847   3.875   3.317   8.661
14535WAT     H243848   3.785   3.405   8.765
14536WAT      O43849   7.780   6.093   5.600
14536WAT     H143850   7.781   6.087   5.699
14536WAT     H243851   7.871   6.069   5.565
14537WAT      O43852   2.709   7.027   8.054
14537WAT     H143853   2.800   7.065   8.069
14537WAT     H243854   2.655   7.091   7.999
14538WAT      O43855   0.765   9.254   8.619
14538WAT     H143856   0.742   9.350   8.605
14538WAT     H243857   0.691   9.209   8.669
14539WAT      O43858   4.319   8.703   5.461
14539WAT     H143859   4.259   8.697   5.541
14539WAT     H243860   4.376   8.620   5.456
14540WAT      O43861   3.988   0.589   7.358
14540WAT     H143862   3.977   0.616   7.453
14540WAT     H243863   4.012   0.492   7.353
14541WAT      O43864   6.471   4.649   4.889
14541WAT     H143865   6.459   4.587   4.812
14541WAT     H243866   6.558   4.697   4.880
14542WAT      O43867   4.526   3.957   4.298
14542WAT     H143868   4.554   3.872   4.253
14542WAT     H243869   4.500   3.937   4.393
14543WAT      O43870   2.326   0.942   1.370
14543WAT     H143871   2.425   0.957   1.377
14543WAT     H243872   2.293   0.899   1.454
14544WAT      O43873   8.515   7.140   5.319
14544WAT     H143874   8.614   7.137   5.303
14544WAT     H243875   8.476   7.049   5.307
14545WAT      O43876   2.389   4.197   0.153
14545WAT     H143877   2.467   4.139   0.178
14545WAT     H243878   2.347   4.233   0.236
14546WAT      O43879   4.472   7.033   6.296
14546WAT     H143880   4.447   7.124   6.262
14546WAT     H243881   4.563   7.008   6.261
14547WAT      O43882   9.073   6.978   9.601
14547WAT     H143883   8.981   6.950   9.629
14547WAT     H243884   9.069   7.069   9.562
14548WAT      O43885   4.980   4.085   7.744
14548WAT     H143886   4.942   4.121   7.829
14548WAT     H243887   5.008   4.161   7.685
14549WAT      O43888   9.887   1.155   3.577
14549WAT     H143889   9.831   1.154   3.661
14549WAT     H243890   9.902   1.061   3.546
14550WAT      O43891   8.297   8.355   5.011
14550WAT     H143892   8.353   8.273   5.005
14550WAT     H243893   8.306   8.395   5.102
14551WAT      O43894   3.917   4.694   5.530
14551WAT     H143895   3.837   4.655   5.484
14551WAT     H243896   3.985   4.720   5.462
14552WAT      O43897   6.711   0.900   9.784
14552WAT     H143898   6.784   0.832   9.788
14552WAT     H243899   6.748   0.991   9.802
14553WAT      O43900   3.196   9.550   3.429
14553WAT     H143901   3.142   9.520   3.351
14553WAT     H243902   3.136   9.585   3.501
14554WAT      O43903   8.474   7.061   4.349
14554WAT     H143904   8.503   7.062   4.253
14554WAT     H243905   8.374   7.059   4.353
14555WAT      O43906   5.136   1.202   8.110
14555WAT     H143907   5.075   1.152   8.172
14555WAT     H243908   5.088   1.223   8.025
14556WAT      O43909   5.068   9.846   2.014
14556WAT     H143910   4.987   9.818   1.962
14556WAT     H243911   5.131   9.769   2.022
14557WAT      O43912   6.105   2.714   3.006
14557WAT     H143913   6.182   2.656   3.034
14557WAT     H243914   6.115   2.736   2.909
14558WAT      O43915   5.385   4.189   4.686
14558WAT     H143916   5.314   4.248   4.647
14558WAT     H243917   5.347   4.136   4.762
14559WAT      O43918   9.630   0.357   1.807
14559WAT     H143919   9.618   0.315   1.897
14559WAT     H243920   9.661   0.287   1.742
14560WAT      O43921   0.167   0.162   2.305
14560WAT     H143922   0.170   0.063   2.292
14560WAT     H243923   0.254   0.193   2.343
14561WAT      O43924   8.647   4.496   5.523
14561WAT     H143925   8.613   4.584   5.493
14561WAT     H243926   8.654   4.495   5.623
14562WAT      O43927   6.355   9.362   4.648
14562WAT     H143928   6.322   9.403   4.733
14562WAT     H243929   6.292   9.386   4.574
14563WAT      O43930   8.859   7.718   2.942
14563WAT     H143931   8.883   7.749   2.850
14563WAT     H243932   8.784   7.653   2.937
14564WAT      O43933   7.633   1.443   7.678
14564WAT     H143934   7.652   1.486   7.766
14564WAT     H243935   7.682   1.492   7.605
14565WAT      O43936   8.906   7.908   1.582
14565WAT     H143937   9.005   7.923   1.573
14565WAT     H243938   8.865   7.984   1.633
14566WAT      O43939   5.728   0.483   5.581
14566WAT     H143940   5.675   0.567   5.581
14566WAT     H243941   5.676   0.411   5.534
14567WAT      O43942   0.585   3.469   7.029
14567WAT     H143943   0.541   3.423   7.106
14567WAT     H243944   0.521   3.472   6.952
14568WAT      O43945   5.288   1.319   5.637
14568WAT     H143946   5.298   1.348   5.732
14568WAT     H243947   5.353   1.369   5.580
14569WAT      O43948   7.107   7.645   2.030
14569WAT     H143949   7.066   7.718   1.974
14569WAT     H243950   7.061   7.641   2.119
14570WAT      O43951   3.490   1.722   4.852
14570WAT     H143952   3.576   1.771   4.859
14570WAT     H243953   3.417   1.785   4.824
14571WAT      O43954   6.435   2.518   4.921
14571WAT     H143955   6.458   2.616   4.923
14571WAT     H243956   6.475   2.476   4.839
14572WAT      O43957   8.395   0.579   1.347
14572WAT     H143958   8.320   0.578   1.413
14572WAT     H243959   8.389   0.498   1.289
14573WAT      O43960   4.093   2.074   6.334
14573WAT     H143961   4.000   2.037   6.323
14573WAT     H243962   4.087   2.171   6.358
14574WAT      O43963   2.605   6.426   6.720
14574WAT     H143964   2.617   6.426   6.621
14574WAT     H243965   2.547   6.503   6.747
14575WAT      O43966   4.292   9.732   3.065
14575WAT     H143967   4.350   9.700   3.140
14575WAT     H243968   4.295   9.832   3.061
14576WAT      O43969   7.503   0.992   3.356
14576WAT     H143970   7.408   1.022   3.354
14576WAT     H243971   7.550   1.035   3.434
14577WAT      O43972   8.959   2.842   2.043
14577WAT     H143973   8.900   2.761   2.041
14577WAT     H243974   9.046   2.821   1.999
14578WAT      O43975   2.425   1.775   7.066
14578WAT     H143976   2.424   1.839   7.143
14578WAT     H243977   2.478   1.814   6.991
14579WAT      O43978   0.231   2.637   4.377
14579WAT     H143979   0.317   2.630   4.428
14579WAT     H243980   0.191   2.546   4.367
14580WAT      O43981   2.649   0.816   5.087
14580WAT     H143982   2.673   0.834   5.182
14580WAT     H243983   2.733   0.810   5.032
14581WAT      O43984   2.187   1.333   8.082
14581WAT     H143985   2.126   1.336   8.003
14581WAT     H243986   2.133   1.322   8.165
14582WAT      O43987   7.267   7.715   1.083
14582WAT     H143988   7.177   7.710   1.126
14582WAT     H243989   7.258   7.699   0.985
14583WAT      O43990   5.089   2.343   1.971
14583WAT     H143991   5.101   2.440   1.993
14583WAT     H243992   5.093   2.289   2.055
14584WAT      O43993   0.344   5.908   5.544
14584WAT     H143994   0.428   5.878   5.589
14584WAT     H243995   0.266   5.889   5.603
14585WAT      O43996   0.297   2.285   5.730
14585WAT     H143997   0.358   2.324   5.660
14585WAT     H243998   0.350   2.231   5.794
14586WAT      O43999   2.606   9.402   4.652
14586WAT     H144000   2.595   9.335   4.726
14586WAT     H244001   2.698   9.441   4.656
14587WAT      O44002   6.287   8.803   6.101
14587WAT     H144003   6.355   8.871   6.128
14587WAT     H244004   6.234   8.837   6.024
14588WAT      O44005   8.355   6.819   1.886
14588WAT     H144006   8.391   6.813   1.978
14588WAT     H244007   8.386   6.905   1.843
14589WAT      O44008   8.691   3.317   8.815
14589WAT     H144009   8.646   3.332   8.903
14589WAT     H244010   8.643   3.246   8.764
14590WAT      O44011   7.332   0.513   9.179
14590WAT     H144012   7.238   0.545   9.164
14590WAT     H244013   7.396   0.588   9.164
14591WAT      O44014   6.637   7.982   8.301
14591WAT     H144015   6.684   8.003   8.215
14591WAT     H244016   6.600   7.890   8.297
14592WAT      O44017   8.747   5.089   8.542
14592WAT     H144018   8.670   5.150   8.561
14592WAT     H244019   8.811   5.135   8.480
14593WAT      O44020   0.142   7.077   9.101
14593WAT     H144021   0.220   7.020   9.122
14593WAT     H244022   0.145   7.104   9.004
14594WAT      O44023   0.519   2.933   5.955
14594WAT     H144024   0.433   2.954   5.908
14594WAT     H244025   0.501   2.911   6.050
14595WAT      O44026   5.526   8.037   7.901
14595WAT     H144027   5.478   8.018   7.987
14595WAT     H244028   5.571   7.954   7.869
14596WAT      O44029   1.045   6.497  -0.001
14596WAT     H144030   1.013   6.478   0.093
14596WAT     H244031   1.144   6.491  -0.004
14597WAT      O44032   2.510   9.433   2.412
14597WAT     H144033   2.558   9.365   2.357
14597WAT     H244034   2.565   9.458   2.491
14598WAT      O44035   7.574   2.251   1.524
14598WAT     H144036   7.601   2.330   1.469
14598WAT     H244037   7.475   2.252   1.537
14599WAT      O44038   7.327   0.322   4.126
14599WAT     H144039   7.393   0.255   4.093
14599WAT     H244040   7.235   0.296   4.095
14600WAT      O44041   2.521   7.588   9.396
14600WAT     H144042   2.560   7.620   9.309
14600WAT     H244043   2.452   7.518   9.377
14601WAT      O44044   5.309   6.474   3.338
14601WAT     H144045   5.212   6.452   3.346
14601WAT     H244046   5.335   6.541   3.408
14602WAT      O44047   9.549   5.382   4.947
14602WAT     H144048   9.593   5.385   5.036
14602WAT     H244049   9.589   5.310   4.891
14603WAT      O44050   6.234   1.705   4.926
14603WAT     H144051   6.268   1.749   4.843
14603WAT     H244052   6.277   1.616   4.936
14604WAT      O44053   7.628   1.028   4.512
14604WAT     H144054   7.542   0.979   4.525
14604WAT     H244055   7.659   1.017   4.418
14605WAT      O44056   1.823   1.521   0.768
14605WAT     H144057   1.825   1.562   0.677
14605WAT     H244058   1.850   1.425   0.761
14606WAT      O44059   2.726   1.209   8.789
14606WAT     H144060   2.682   1.177   8.706
14606WAT     H244061   2.662   1.204   8.865
14607WAT      O44062   4.899   7.455   7.087
14607WAT     H144063   4.959   7.500   7.153
14607WAT     H244064   4.941   7.370   7.057
14608WAT      O44065   6.910   4.120   0.770
14608WAT     H144066   7.006   4.104   0.750
14608WAT     H244067   6.901   4.180   0.850
14609WAT      O44068   6.559   1.428   2.847
14609WAT     H144069   6.584   1.516   2.807
14609WAT     H244070   6.555   1.359   2.774
14610WAT      O44071   3.388   3.487   2.991
14610WAT     H144072   3.406   3.410   3.052
14610WAT     H244073   3.334   3.456   2.913
14611WAT      O44074   4.232   7.053   6.025
14611WAT     H144075   4.230   6.956   6.002
14611WAT     H244076   4.291   7.102   5.961
14612WAT      O44077   5.770   6.039   7.816
14612WAT     H144078   5.712   5.973   7.864
14612WAT     H244079   5.751   6.033   7.718
14613WAT      O44080   4.875   6.323   4.488
14613WAT     H144081   4.832   6.274   4.564
14613WAT     H244082   4.806   6.348   4.421
14614WAT      O44083   5.371   9.671   1.523
14614WAT     H144084   5.351   9.759   1.479
14614WAT     H244085   5.355   9.597   1.459
14615WAT      O44086   4.446   8.983   9.736
14615WAT     H144087   4.396   8.915   9.789
14615WAT     H244088   4.436   8.964   9.638
14616WAT      O44089   3.531   7.367   3.749
14616WAT     H144090   3.579   7.392   3.665
14616WAT     H244091   3.451   7.426   3.761
14617WAT      O44092   3.849   5.791   2.333
14617WAT     H144093   3.829   5.775   2.430
14617WAT     H244094   3.859   5.890   2.318
14618WAT      O44095   9.343   4.390   4.245
14618WAT     H144096   9.393   4.459   4.298
14618WAT     H244097   9.406   4.317   4.217
14619WAT      O44098   3.253   7.548   9.342
14619WAT     H144099   3.346   7.513   9.334
14619WAT     H244100   3.248   7.613   9.418
14620WAT      O44101   0.434   4.229   9.346
14620WAT     H144102   0.374   4.233   9.426
14620WAT     H244103   0.496   4.151   9.354
14621WAT      O44104   0.115   4.294   1.996
14621WAT     H144105   0.134   4.391   1.982
14621WAT     H244106   0.197   4.248   2.030
14622WAT      O44107   2.412   9.761   8.470
14622WAT     H144108   2.315   9.781   8.453
14622WAT     H244109   2.421   9.673   8.515
14623WAT      O44110   4.713   2.641   2.318
14623WAT     H144111   4.725   2.612   2.223
14623WAT     H244112   4.616   2.636   2.343
14624WAT      O44113   7.395   6.514   2.827
14624WAT     H144114   7.494   6.523   2.816
14624WAT     H244115   7.348   6.580   2.768
14625WAT      O44116   2.518   0.748   4.090
14625WAT     H144117   2.505   0.683   4.165
14625WAT     H244118   2.433   0.755   4.037
14626WAT      O44119   4.535   4.416   5.285
14626WAT     H144120   4.633   4.416   5.262
14626WAT     H244121   4.524   4.424   5.384
14627WAT      O44122   8.927   3.727   4.630
14627WAT     H144123   8.987   3.753   4.705
14627WAT     H244124   8.961   3.766   4.545
14628WAT      O44125   3.708   6.388   7.001
14628WAT     H144126   3.668   6.305   7.038
14628WAT     H244127   3.798   6.403   7.041
14629WAT      O44128   3.902   6.681   8.474
14629WAT     H144129   3.892   6.780   8.471
14629WAT     H244130   3.817   6.638   8.447
14630WAT      O44131   1.076   5.179   8.210
14630WAT     H144132   1.020   5.253   8.247
14630WAT     H244133   1.132   5.214   8.135
14631WAT      O44134   9.027   2.692   3.644
14631WAT     H144135   9.050   2.706   3.740
14631WAT     H244136   9.107   2.711   3.587
14632WAT      O44137   0.247   8.622   2.269
14632WAT     H144138   0.184   8.545   2.258
14632WAT     H244139   0.342   8.589   2.265
14633WAT      O44140   3.052   3.169   0.293
14633WAT     H144141   3.030   3.222   0.375
14633WAT     H244142   3.109   3.091   0.319
14634WAT      O44143   6.431   1.145   7.548
14634WAT     H144144   6.346   1.147   7.601
14634WAT     H244145   6.416   1.187   7.459
14635WAT      O44146   7.980   2.704   9.658
14635WAT     H144147   8.053   2.736   9.718
14635WAT     H244148   7.910   2.657   9.712
14636WAT      O44149   0.032   2.326   2.629
14636WAT     H144150   0.026   2.281   2.540
14636WAT     H244151  -0.042   2.392   2.639
14637WAT      O44152   8.550   7.569   4.819
14637WAT     H144153   8.454   7.583   4.841
14637WAT     H244154   8.600   7.545   4.902
14638WAT      O44155   7.287   8.915   2.328
14638WAT     H144156   7.224   8.914   2.405
14638WAT     H244157   7.339   8.829   2.327
14639WAT      O44158   2.486   3.871   3.432
14639WAT     H144159   2.483   3.867   3.532
14639WAT     H244160   2.554   3.938   3.402
14640WAT      O44161   6.627   9.139   9.569
14640WAT     H144162   6.604   9.058   9.621
14640WAT     H244163   6.698   9.117   9.501
14641WAT      O44164   3.086   3.753   5.457
14641WAT     H144165   3.113   3.786   5.366
14641WAT     H244166   3.142   3.798   5.526
14642WAT      O44167   6.937   1.824   1.170
14642WAT     H144168   6.991   1.902   1.203
14642WAT     H244169   6.846   1.855   1.143
14643WAT      O44170   0.004   1.278   4.044
14643WAT     H144171   0.071   1.207   4.063
14643WAT     H244172  -0.071   1.273   4.111
14644WAT      O44173   5.561   6.767   1.298
14644WAT     H144174   5.613   6.709   1.236
14644WAT     H244175   5.494   6.820   1.246
14645WAT      O44176   2.829   6.902   5.533
14645WAT     H144177   2.739   6.861   5.516
14645WAT     H244178   2.858   6.882   5.626
14646WAT      O44179   4.672   1.477   8.945
14646WAT     H144180   4.647   1.387   8.912
14646WAT     H244181   4.592   1.537   8.944
14647WAT      O44182   1.999   9.250   4.209
14647WAT     H144183   1.946   9.219   4.130
14647WAT     H244184   2.064   9.320   4.179
14648WAT      O44185   7.349   3.801   9.522
14648WAT     H144186   7.444   3.834   9.522
14648WAT     H244187   7.316   3.795   9.428
14649WAT      O44188   8.265   6.059   5.665
14649WAT     H144189   8.284   6.146   5.620
14649WAT     H244190   8.351   6.007   5.674
14650WAT      O44191   2.460   5.440   2.324
14650WAT     H144192   2.487   5.363   2.382
14650WAT     H244193   2.531   5.456   2.255
14651WAT      O44194   8.190   5.380   8.998
14651WAT     H144195   8.102   5.426   8.992
14651WAT     H244196   8.193   5.306   8.931
14652WAT      O44197   6.544   0.639   6.769
14652WAT     H144198   6.453   0.602   6.752
14652WAT     H244199   6.602   0.622   6.689
14653WAT      O44200   8.159   4.001   5.916
14653WAT     H144201   8.207   3.918   5.886
14653WAT     H244202   8.089   3.975   5.983
14654WAT      O44203   8.210   5.678   7.946
14654WAT     H144204   8.277   5.720   8.007
14654WAT     H244205   8.227   5.580   7.941
14655WAT      O44206   2.071   1.080   4.475
14655WAT     H144207   2.161   1.045   4.500
14655WAT     H244208   2.006   1.060   4.548
14656WAT      O44209   2.102   9.130   9.551
14656WAT     H144210   2.200   9.134   9.531
14656WAT     H244211   2.088   9.122   9.650
14657WAT      O44212   0.998   5.658   7.608
14657WAT     H144213   1.009   5.591   7.534
14657WAT     H244214   0.949   5.616   7.684
14658WAT      O44215   2.518   3.151   4.099
14658WAT     H144216   2.570   3.089   4.158
14658WAT     H244217   2.547   3.138   4.004
14659WAT      O44218   2.663   0.006   1.502
14659WAT     H144219   2.712   0.057   1.431
14659WAT     H244220   2.593  -0.051   1.459
14660WAT      O44221   6.781   3.468   6.756
14660WAT     H144222   6.747   3.475   6.662
14660WAT     H244223   6.806   3.558   6.790
14661WAT      O44224   0.086   4.702   3.695
14661WAT     H144225   0.159   4.664   3.752
14661WAT     H244226   0.015   4.742   3.754
14662WAT      O44227   2.245   8.373   7.339
14662WAT     H144228   2.268   8.304   7.270
14662WAT     H244229   2.329   8.409   7.380
14663WAT      O44230   0.677   6.776   7.637
14663WAT     H144231   0.742   6.773   7.562
14663WAT     H244232   0.721   6.745   7.721
14664WAT      O44233   8.499   7.805   7.286
14664WAT     H144234   8.572   7.762   7.339
14664WAT     H244235   8.537   7.877   7.228
14665WAT      O44236   7.617   3.479   5.569
14665WAT     H144237   7.566   3.563   5.548
14665WAT     H244238   7.691   3.468   5.503
14666WAT      O44239   6.101   2.882   7.597
14666WAT     H144240   6.008   2.849   7.609
14666WAT     H244241   6.121   2.890   7.499
14667WAT      O44242   5.818   4.034   7.277
14667WAT     H144243   5.722   4.045   7.251
14667WAT     H244244   5.871   4.010   7.196
14668WAT      O44245   6.598   7.395   9.608
14668WAT     H144246   6.499   7.403   9.596
14668WAT     H244247   6.622   7.298   9.621
14669WAT      O44248   0.997   7.746   2.584
14669WAT     H144249   1.020   7.708   2.674
14669WAT     H244250   0.899   7.763   2.580
14670WAT      O44251   8.372   6.889   5.910
14670WAT     H144252   8.300   6.820   5.919
14670WAT     H244253   8.453   6.846   5.870
14671WAT      O44254   2.025   3.261   8.095
14671WAT     H144255   2.105   3.243   8.152
14671WAT     H244256   1.943   3.261   8.152
14672WAT      O44257   4.411   5.047   1.981
14672WAT     H144258   4.357   4.995   1.915
14672WAT     H244259   4.430   5.138   1.944
14673WAT      O44260   0.911   3.301   6.578
14673WAT     H144261   0.955   3.388   6.602
14673WAT     H244262   0.976   3.226   6.588
14674WAT      O44263   5.353   4.619   7.903
14674WAT     H144264   5.395   4.529   7.893
14674WAT     H244265   5.404   4.686   7.850
14675WAT      O44266   2.617   6.345   1.722
14675WAT     H144267   2.551   6.391   1.662
14675WAT     H244268   2.610   6.246   1.710
14676WAT      O44269   6.982   7.723   0.446
14676WAT     H144270   6.948   7.698   0.355
14676WAT     H244271   7.068   7.772   0.437
14677WAT      O44272   7.967   9.236   2.903
14677WAT     H144273   7.884   9.207   2.854
14677WAT     H244274   7.988   9.169   2.975
14678WAT      O44275   8.345   4.074   6.770
14678WAT     H144276   8.263   4.103   6.720
14678WAT     H244277   8.318   4.025   6.853
14679WAT      O44278   1.357   4.703   3.528
14679WAT     H144279   1.282   4.758   3.563
14679WAT     H244280   1.324   4.612   3.505
14680WAT      O44281   4.591   1.638   0.196
14680WAT     H144282   4.688   1.646   0.177
14680WAT     H244283   4.540   1.634   0.110
14681WAT      O44284   8.824   6.782   3.540
14681WAT     H144285   8.756   6.828   3.597
14681WAT     H244286   8.891   6.849   3.508
14682WAT      O44287   4.738   8.610   5.706
14682WAT     H144288   4.720   8.670   5.628
14682WAT     H244289   4.724   8.515   5.679
14683WAT      O44290   1.179   0.699   2.467
14683WAT     H144291   1.217   0.618   2.512
14683WAT     H244292   1.114   0.670   2.397
14684WAT      O44293   3.831   3.128   5.970
14684WAT     H144294   3.736   3.142   5.943
14684WAT     H244295   3.853   3.185   6.049
14685WAT      O44296   2.432   1.604   0.099
14685WAT     H144297   2.420   1.544   0.020
14685WAT     H244298   2.519   1.654   0.089
14686WAT      O44299   1.851   8.479   9.785
14686WAT     H144300   1.856   8.541   9.863
14686WAT     H244301   1.836   8.532   9.701
14687WAT      O44302   8.869   7.133   9.821
14687WAT     H144303   8.902   7.212   9.769
14687WAT     H244304   8.779   7.106   9.787
14688WAT      O44305   1.215   1.807   4.638
14688WAT     H144306   1.134   1.863   4.623
14688WAT     H244307   1.295   1.853   4.599
14689WAT      O44308   3.117   4.185   1.804
14689WAT     H144309   3.117   4.121   1.880
14689WAT     H244310   3.160   4.271   1.832
14690WAT      O44311   9.485   3.907   4.116
14690WAT     H144312   9.501   3.932   4.020
14690WAT     H244313   9.494   3.808   4.127
14691WAT      O44314   9.523   0.417   6.868
14691WAT     H144315   9.607   0.365   6.855
14691WAT     H244316   9.543   0.515   6.861
14692WAT      O44317   2.031   6.819   1.713
14692WAT     H144318   2.073   6.878   1.782
14692WAT     H244319   2.074   6.838   1.624
14693WAT      O44320   4.318   6.703   1.225
14693WAT     H144321   4.225   6.711   1.260
14693WAT     H244322   4.378   6.668   1.298
14694WAT      O44323   3.099   4.930   3.830
14694WAT     H144324   3.045   4.921   3.746
14694WAT     H244325   3.037   4.934   3.908
14695WAT      O44326   0.005   7.838   7.916
14695WAT     H144327  -0.045   7.918   7.950
14695WAT     H244328   0.072   7.868   7.848
14696WAT      O44329   8.620   7.864   0.778
14696WAT     H144330   8.645   7.832   0.869
14696WAT     H244331   8.623   7.787   0.714
14697WAT      O44332   0.644   5.926   4.239
14697WAT     H144333   0.551   5.927   4.201
14697WAT     H244334   0.695   6.003   4.201
14698WAT      O44335   9.192   6.705   3.449
14698WAT     H144336   9.265   6.640   3.467
14698WAT     H244337   9.189   6.773   3.522
14699WAT      O44338   8.074   2.231   8.093
14699WAT     H144339   8.050   2.318   8.136
14699WAT     H244340   7.997   2.198   8.038
14700WAT      O44341   3.354   2.378   0.727
14700WAT     H144342   3.445   2.414   0.745
14700WAT     H244343   3.347   2.350   0.631
14701WAT      O44344   2.662   7.911   6.832
14701WAT     H144345   2.644   7.813   6.840
14701WAT     H244346   2.576   7.961   6.836
14702WAT      O44347   0.073   6.691   7.436
14702WAT     H144348   0.008   6.669   7.508
14702WAT     H244349   0.098   6.608   7.386
14703WAT      O44350   7.055   5.554   4.715
14703WAT     H144351   7.033   5.473   4.769
14703WAT     H244352   6.988   5.626   4.733
14704WAT      O44353   7.163   5.499   4.214
14704WAT     H144354   7.261   5.502   4.231
14704WAT     H244355   7.114   5.521   4.298
14705WAT      O44356   4.163   5.569   1.386
14705WAT     H144357   4.241   5.596   1.443
14705WAT     H244358   4.123   5.485   1.422
14706WAT      O44359   0.839   5.492   8.569
14706WAT     H144360   0.871   5.409   8.616
14706WAT     H244361   0.832   5.567   8.635
14707WAT      O44362   3.791   0.844   3.011
14707WAT     H144363   3.819   0.940   3.011
14707WAT     H244364   3.827   0.799   3.093
14708WAT      O44365   4.780   3.048   3.215
14708WAT     H144366   4.860   3.021   3.162
14708WAT     H244367   4.807   3.114   3.285
14709WAT      O44368   4.860   4.093   1.239
14709WAT     H144369   4.943   4.148   1.248
14709WAT     H244370   4.795   4.140   1.179
14710WAT      O44371   9.593   3.789   2.995
14710WAT     H144372   9.640   3.812   3.080
14710WAT     H244373   9.540   3.705   3.008
14711WAT      O44374   9.170   6.069   5.071
14711WAT     H144375   9.201   6.146   5.125
14711WAT     H244376   9.239   6.045   5.003
14712WAT      O44377   8.037   8.302   0.495
14712WAT     H144378   8.135   8.322   0.504
14712WAT     H244379   7.988   8.339   0.574
14713WAT      O44380   7.724   9.612   7.078
14713WAT     H144381   7.816   9.646   7.059
14713WAT     H244382   7.710   9.609   7.177
14714WAT      O44383   4.580   7.541   6.400
14714WAT     H144384   4.665   7.497   6.429
14714WAT     H244385   4.572   7.630   6.446
14715WAT      O44386   5.509   0.292   8.399
14715WAT     H144387   5.426   0.264   8.448
14715WAT     H244388   5.588   0.245   8.439
14716WAT      O44389   9.413   8.619   1.761
14716WAT     H144390   9.404   8.650   1.855
14716WAT     H244391   9.338   8.556   1.740
14717WAT      O44392   3.834   1.627   8.713
14717WAT     H144393   3.901   1.665   8.776
14717WAT     H244394   3.862   1.535   8.685
14718WAT      O44395   0.782   4.160   6.384
14718WAT     H144396   0.773   4.084   6.448
14718WAT     H244397   0.827   4.237   6.429
14719WAT      O44398   7.198   6.757   0.156
14719WAT     H144399   7.282   6.790   0.114
14719WAT     H244400   7.201   6.658   0.164
14720WAT      O44401   5.662   4.633   1.216
14720WAT     H144402   5.751   4.595   1.191
14720WAT     H244403   5.596   4.616   1.143
14721WAT      O44404   0.338   6.664   6.201
14721WAT     H144405   0.393   6.687   6.121
14721WAT     H244406   0.241   6.675   6.179
14722WAT      O44407   4.864   5.281   9.678
14722WAT     H144408   4.944   5.323   9.720
14722WAT     H244409   4.793   5.350   9.665
14723WAT      O44410   8.537   6.750   6.468
14723WAT     H144411   8.457   6.707   6.426
14723WAT     H244412   8.575   6.818   6.406
14724WAT      O44413   9.711   3.357   5.028
14724WAT     H144414   9.765   3.276   5.004
14724WAT     H244415   9.623   3.328   5.066
14725WAT      O44416   0.680   5.399   1.006
14725WAT     H144417   0.633   5.336   1.067
14725WAT     H244418   0.724   5.348   0.932
14726WAT      O44419   3.825   2.037   4.434
14726WAT     H144420   3.818   1.946   4.476
14726WAT     H244421   3.754   2.046   4.364
14727WAT      O44422   8.185   1.426   2.492
14727WAT     H144423   8.281   1.396   2.496
14727WAT     H244424   8.152   1.418   2.398
14728WAT      O44425   0.234   9.689   5.956
14728WAT     H144426   0.136   9.668   5.961
14728WAT     H244427   0.282   9.610   5.918
14729WAT      O44428   4.108   6.503   7.616
14729WAT     H144429   4.024   6.513   7.563
14729WAT     H244430   4.184   6.545   7.566
14730WAT      O44431   9.702   4.214   2.366
14730WAT     H144432   9.670   4.230   2.273
14730WAT     H244433   9.633   4.248   2.431
14731WAT      O44434   5.537   6.005   5.948
14731WAT     H144435   5.545   5.948   5.866
14731WAT     H244436   5.557   6.100   5.925
14732WAT      O44437   6.930   3.107   1.056
14732WAT     H144438   6.918   3.015   1.092
14732WAT     H244439   7.007   3.151   1.103
14733WAT      O44440   0.750   0.006   5.827
14733WAT     H144441   0.814  -0.000   5.751
14733WAT     H244442   0.751  -0.080   5.878
14734WAT      O44443   9.294   7.256   6.000
14734WAT     H144444   9.333   7.199   6.073
14734WAT     H244445   9.194   7.251   6.003
14735WAT      O44446   3.599   4.187   5.922
14735WAT     H144447   3.529   4.121   5.951
14735WAT     H244448   3.680   4.138   5.892
14736WAT      O44449   4.135   3.671   9.689
14736WAT     H144450   4.091   3.739   9.748
14736WAT     H244451   4.172   3.597   9.746
14737WAT      O44452   0.773   3.679   3.395
14737WAT     H144453   0.763   3.601   3.457
14737WAT     H244454   0.751   3.651   3.301
14738WAT      O44455   2.567   9.664   5.960
14738WAT     H144456   2.514   9.583   5.984
14738WAT     H244457   2.654   9.663   6.009
14739WAT      O44458   1.313   7.473   1.397
14739WAT     H144459   1.239   7.476   1.464
14739WAT     H244460   1.390   7.528   1.429
14740WAT      O44461   5.850   9.106   7.380
14740WAT     H144462   5.883   9.200   7.386
14740WAT     H244463   5.797   9.084   7.462
14741WAT      O44464   9.452   3.734   6.905
14741WAT     H144465   9.517   3.808   6.889
14741WAT     H244466   9.359   3.766   6.888
14742WAT      O44467   2.713   3.059   7.006
14742WAT     H144468   2.798   3.039   7.055
14742WAT     H244469   2.727   3.047   6.908
14743WAT      O44470   9.482   9.069   7.163
14743WAT     H144471   9.416   9.136   7.197
14743WAT     H244472   9.497   9.084   7.066
14744WAT      O44473   5.136   1.292   3.978
14744WAT     H144474   5.049   1.314   4.022
14744WAT     H244475   5.185   1.376   3.956
14745WAT      O44476   2.945   2.116   6.861
14745WAT     H144477   2.916   2.147   6.952
14745WAT     H244478   2.895   2.033   6.837
14746WAT      O44479   6.733   3.494   4.932
14746WAT     H144480   6.752   3.591   4.919
14746WAT     H244481   6.815   3.448   4.966
14747WAT      O44482   5.607   1.008   3.106
14747WAT     H144483   5.657   1.065   3.171
14747WAT     H244484   5.668   0.936   3.072
14748WAT      O44485   8.156   4.130   9.662
14748WAT     H144486   8.098   4.051   9.642
14748WAT     H244487   8.251   4.109   9.639
14749WAT      O44488   5.949   6.030   7.353
14749WAT     H144489   6.003   6.099   7.402
14749WAT     H244490   6.010   5.966   7.307
14750WAT      O44491   9.501   6.593   4.112
14750WAT     H144492   9.568   6.594   4.038
14750WAT     H244493   9.515   6.512   4.169
14751WAT      O44494   7.194   2.404   2.485
14751WAT     H144495   7.216   2.307   2.498
14751WAT     H244496   7.261   2.446   2.424
14752WAT      O44497   0.629   2.458   3.683
14752WAT     H144498   0.716   2.485   3.642
14752WAT     H244499   0.597   2.373   3.641
14753WAT      O44500   5.541   0.855   8.503
14753WAT     H144501   5.558   0.815   8.413
14753WAT     H244502   5.550   0.954   8.498
14754WAT      O44503   5.302   4.111   7.389
14754WAT     H144504   5.329   4.206   7.370
14754WAT     H244505   5.303   4.096   7.488
14755WAT      O44506   0.359   7.723   8.401
14755WAT     H144507   0.413   7.731   8.317
14755WAT     H244508   0.409   7.667   8.467
14756WAT      O44509   8.493   6.499   3.990
14756WAT     H144510   8.580   6.453   3.974
14756WAT     H244511   8.510   6.583   4.042
14757WAT      O44512   7.196   9.047   2.821
14757WAT     H144513   7.097   9.044   2.810
14757WAT     H244514   7.218   9.064   2.917
14758WAT      O44515   9.142   6.647   3.192
14758WAT     H144516   9.154   6.654   3.291
14758WAT     H244517   9.208   6.705   3.145
14759WAT      O44518   4.643   2.519   5.873
14759WAT     H144519   4.566   2.534   5.935
14759WAT     H244520   4.704   2.598   5.875
14760WAT      O44521   9.837   6.912   6.878
14760WAT     H144522   9.835   6.975   6.800
14760WAT     H244523   9.814   6.820   6.847
14761WAT      O44524   5.422   8.149   6.432
14761WAT     H144525   5.419   8.239   6.475
14761WAT     H244526   5.474   8.155   6.347
14762WAT      O44527   9.073   2.038   3.722
14762WAT     H144528   9.036   2.044   3.815
14762WAT     H244529   9.005   1.995   3.662
14763WAT      O44530   5.755   7.577   8.872
14763WAT     H144531   5.668   7.540   8.840
14763WAT     H244532   5.756   7.577   8.972
14764WAT      O44533   8.633   7.322   5.885
14764WAT     H144534   8.605   7.355   5.795
14764WAT     H244535   8.668   7.228   5.877
14765WAT      O44536   2.601   4.816   0.223
14765WAT     H144537   2.569   4.845   0.132
14765WAT     H244538   2.688   4.767   0.213
14766WAT      O44539   9.061   5.768   0.173
14766WAT     H144540   9.133   5.774   0.104
14766WAT     H244541   9.070   5.844   0.237
14767WAT      O44542   8.196   5.099   0.391
14767WAT     H144543   8.127   5.037   0.428
14767WAT     H244544   8.162   5.193   0.395
14768WAT      O44545   5.484   2.046   9.137
14768WAT     H144546   5.480   1.964   9.079
14768WAT     H244547   5.579   2.072   9.151
14769WAT      O44548   6.436   1.708   7.786
14769WAT     H144549   6.396   1.735   7.699
14769WAT     H244550   6.395   1.763   7.859
14770WAT      O44551   4.299   9.781   5.775
14770WAT     H144552   4.360   9.801   5.698
14770WAT     H244553   4.212   9.829   5.763
14771WAT      O44554   2.879   5.464   1.411
14771WAT     H144555   2.904   5.369   1.431
14771WAT     H244556   2.958   5.512   1.371
14772WAT      O44557   8.685   8.857   5.827
14772WAT     H144558   8.653   8.929   5.889
14772WAT     H244559   8.717   8.779   5.882
14773WAT      O44560   8.870   6.347   0.873
14773WAT     H144561   8.870   6.412   0.948
14773WAT     H244562   8.794   6.283   0.883
14774WAT      O44563   9.572   2.684   0.584
14774WAT     H144564   9.586   2.638   0.672
14774WAT     H244565   9.559   2.616   0.512
14775WAT      O44566   0.169   1.112   7.984
14775WAT     H144567   0.086   1.156   7.950
14775WAT     H244568   0.247   1.171   7.968
14776WAT      O44569   0.436   6.762   9.571
14776WAT     H144570   0.490   6.678   9.579
14776WAT     H244571   0.445   6.816   9.655
14777WAT      O44572   0.302   3.959   9.726
14777WAT     H144573   0.255   4.021   9.789
14777WAT     H244574   0.391   3.999   9.701
14778WAT      O44575   3.815   8.526   0.354
14778WAT     H144576   3.910   8.554   0.344
14778WAT     H244577   3.776   8.567   0.436
14779WAT      O44578   9.785   2.058   8.422
14779WAT     H144579   9.752   2.077   8.514
14779WAT     H244580   9.884   2.060   8.420
14780WAT      O44581   6.642   0.507   9.648
14780WAT     H144582   6.621   0.523   9.552
14780WAT     H244583   6.636   0.410   9.668
14781WAT      O44584   6.444   6.866   9.794
14781WAT     H144585   6.375   6.844   9.724
14781WAT     H244586   6.524   6.907   9.750
14782WAT      O44587   7.118   6.126   6.938
14782WAT     H144588   7.141   6.063   7.012
14782WAT     H244589   7.099   6.216   6.976
14783WAT      O44590   2.164   1.604   0.162
14783WAT     H144591   2.132   1.694   0.130
14783WAT     H244592   2.262   1.595   0.143
14784WAT      O44593   0.538   0.025   8.913
14784WAT     H144594   0.470   0.094   8.890
14784WAT     H244595   0.494  -0.064   8.921
14785WAT      O44596   6.419   3.263   2.750
14785WAT     H144597   6.412   3.320   2.669
14785WAT     H244598   6.515   3.242   2.769
14786WAT      O44599   3.258   8.511   8.267
14786WAT     H144600   3.214   8.565   8.338
14786WAT     H244601   3.222   8.538   8.177
14787WAT      O44602   7.964   1.062   3.952
14787WAT     H144603   8.000   0.978   3.913
14787WAT     H244604   8.031   1.101   4.015
14788WAT      O44605   0.950   9.532   2.764
14788WAT     H144606   0.851   9.524   2.762
14788WAT     H244607   0.990   9.443   2.782
14789WAT      O44608   0.160   3.288   3.643
14789WAT     H144609   0.106   3.230   3.703
14789WAT     H244610   0.222   3.345   3.698
14790WAT      O44611   6.677   9.170   6.623
14790WAT     H144612   6.641   9.106   6.555
14790WAT     H244613   6.643   9.262   6.603
14791WAT      O44614   7.028   5.748   7.823
14791WAT     H144615   6.971   5.804   7.883
14791WAT     H244616   7.123   5.777   7.830
14792WAT      O44617   2.147   3.152   1.084
14792WAT     H144618   2.078   3.083   1.063
14792WAT     H244619   2.216   3.112   1.145
14793WAT      O44620   9.363   4.065   1.879
14793WAT     H144621   9.378   3.991   1.814
14793WAT     H244622   9.451   4.103   1.908
14794WAT      O44623   3.027   2.272   4.033
14794WAT     H144624   2.963   2.289   4.109
14794WAT     H244625   3.055   2.359   3.993
14795WAT      O44626   0.898   8.117   8.058
14795WAT     H144627   0.892   8.131   8.156
14795WAT     H244628   0.837   8.042   8.031
14796WAT      O44629   3.444   4.465   4.025
14796WAT     H144630   3.371   4.442   3.960
14796WAT     H244631   3.517   4.513   3.976
14797WAT      O44632   1.213   8.869   9.854
14797WAT     H144633   1.220   8.771   9.876
14797WAT     H244634   1.255   8.886   9.765
14798WAT      O44635   7.175   9.400   4.599
14798WAT     H144636   7.256   9.458   4.604
14798WAT     H244637   7.093   9.458   4.602
14799WAT      O44638   3.600   5.173   1.041
14799WAT     H144639   3.619   5.148   0.946
14799WAT     H244640   3.674   5.139   1.099
14800WAT      O44641   4.324   7.865   8.888
14800WAT     H144642   4.387   7.942   8.882
14800WAT     H244643   4.339   7.815   8.973
14801WAT      O44644   7.937   2.180   6.669
14801WAT     H144645   8.016   2.227   6.707
14801WAT     H244646   7.905   2.110   6.733
14802WAT      O44647   2.071   4.337   5.551
14802WAT     H144648   1.994   4.273   5.556
14802WAT     H244649   2.051   4.416   5.608
14803WAT      O44650   5.461   5.470   9.272
14803WAT     H144651   5.363   5.489   9.274
14803WAT     H244652   5.510   5.553   9.246
14804WAT      O44653   0.362   4.732   2.934
14804WAT     H144654   0.286   4.770   2.987
14804WAT     H244655   0.328   4.695   2.848
14805WAT      O44656   7.931   0.835   0.619
14805WAT     H144657   7.989   0.872   0.692
14805WAT     H244658   7.876   0.760   0.656
14806WAT      O44659   2.403   5.754   8.642
14806WAT     H144660   2.396   5.771   8.543
14806WAT     H244661   2.367   5.833   8.692
14807WAT      O44662   9.384   5.687   6.235
14807WAT     H144663   9.294   5.644   6.233
14807WAT     H244664   9.392   5.750   6.157
14808WAT      O44665   6.848   9.540   0.566
14808WAT     H144666   6.752   9.558   0.543
14808WAT     H244667   6.883   9.467   0.508
14809WAT      O44668   4.035   5.149   3.677
14809WAT     H144669   4.063   5.145   3.581
14809WAT     H244670   4.074   5.072   3.727
14810WAT      O44671   0.336   4.325   0.152
14810WAT     H144672   0.362   4.398   0.088
14810WAT     H244673   0.418   4.282   0.189
14811WAT      O44674   2.419   7.951   5.697
14811WAT     H144675   2.500   7.905   5.733
14811WAT     H244676   2.422   8.048   5.722
14812WAT      O44677   2.746   6.651   0.237
14812WAT     H144678   2.720   6.668   0.142
14812WAT     H244679   2.816   6.717   0.265
14813WAT      O44680   1.899   4.968   3.399
14813WAT     H144681   1.953   4.995   3.319
14813WAT     H244682   1.949   4.899   3.451
14814WAT      O44683   5.890   6.015   6.924
14814WAT     H144684   5.831   5.969   6.990
14814WAT     H244685   5.978   5.968   6.918
14815WAT      O44686   6.095   1.507   2.470
14815WAT     H144687   6.057   1.597   2.491
14815WAT     H244688   6.148   1.512   2.385
14816WAT      O44689   6.457   5.487   1.219
14816WAT     H144690   6.440   5.446   1.309
14816WAT     H244691   6.546   5.532   1.219
14817WAT      O44692   5.045   1.410   5.846
14817WAT     H144693   5.048   1.467   5.764
14817WAT     H244694   5.000   1.324   5.826
14818WAT      O44695   5.918   4.631   9.420
14818WAT     H144696   6.010   4.593   9.411
14818WAT     H244697   5.906   4.668   9.512
14819WAT      O44698   1.448   6.416   3.275
14819WAT     H144699   1.422   6.454   3.363
14819WAT     H244700   1.484   6.490   3.217
14820WAT      O44701   2.505   5.810   1.745
14820WAT     H144702   2.526   5.744   1.673
14820WAT     H244703   2.410   5.841   1.736
14821WAT      O44704   2.900   6.099   8.536
14821WAT     H144705   2.846   6.014   8.538
14821WAT     H244706   2.854   6.168   8.591
14822WAT      O44707   6.902   3.102   5.151
14822WAT     H144708   6.948   3.142   5.072
14822WAT     H244709   6.956   3.118   5.233
14823WAT      O44710   3.034   0.235   0.859
14823WAT     H144711   3.003   0.243   0.954
14823WAT     H244712   3.132   0.254   0.855
14824WAT      O44713   3.142   6.316   1.210
14824WAT     H144714   3.153   6.234   1.154
14824WAT     H244715   3.175   6.298   1.303
14825WAT      O44716   0.766   9.587   7.488
14825WAT     H144717   0.751   9.669   7.433
14825WAT     H244718   0.787   9.510   7.427
14826WAT      O44719   6.181   0.657   2.873
14826WAT     H144720   6.240   0.577   2.890
14826WAT     H244721   6.227   0.739   2.906
14827WAT      O44722   6.323   3.284   8.371
14827WAT     H144723   6.285   3.252   8.458
14827WAT     H244724   6.257   3.344   8.327
14828WAT      O44725   2.023   4.635   3.762
14828WAT     H144726   2.060   4.567   3.825
14828WAT     H244727   1.926   4.616   3.746
14829WAT      O44728   2.930   2.840   0.673
14829WAT     H144729   2.852   2.826   0.734
14829WAT     H244730   2.906   2.810   0.580
14830WAT      O44731   0.649   0.744   5.816
14830WAT     H144732   0.671   0.831   5.861
14830WAT     H244733   0.570   0.702   5.860
14831WAT      O44734   1.619   0.212   0.988
14831WAT     H144735   1.676   0.198   0.907
14831WAT     H244736   1.664   0.278   1.049
14832WAT      O44737   0.349   9.719   7.076
14832WAT     H144738   0.411   9.792   7.047
14832WAT     H244739   0.381   9.631   7.040
14833WAT      O44740   7.928   3.365   3.263
14833WAT     H144741   7.870   3.284   3.278
14833WAT     H244742   8.023   3.342   3.284
14834WAT      O44743   3.255   5.353   5.217
14834WAT     H144744   3.352   5.327   5.218
14834WAT     H244745   3.231   5.393   5.305
14835WAT      O44746   3.475   3.071   3.335
14835WAT     H144747   3.385   3.081   3.291
14835WAT     H244748   3.489   2.976   3.362
14836WAT      O44749   8.147   8.523   8.031
14836WAT     H144750   8.110   8.557   7.944
14836WAT     H244751   8.220   8.583   8.061
14837WAT      O44752   9.530   7.482   1.057
14837WAT     H144753   9.458   7.456   1.122
14837WAT     H244754   9.581   7.559   1.093
14838WAT      O44755   6.796   6.243   0.984
14838WAT     H144756   6.894   6.260   0.977
14838WAT     H244757   6.766   6.189   0.905
14839WAT      O44758   6.916   4.280   1.088
14839WAT     H144759   6.975   4.209   1.051
14839WAT     H244760   6.939   4.295   1.184
14840WAT      O44761   4.536   1.949   2.421
14840WAT     H144762   4.501   1.895   2.343
14840WAT     H244763   4.503   1.908   2.506
14841WAT      O44764   6.008   8.780   0.293
14841WAT     H144765   6.084   8.731   0.250
14841WAT     H244766   5.929   8.719   0.300
14842WAT      O44767   7.920   3.733   4.074
14842WAT     H144768   8.005   3.697   4.112
14842WAT     H244769   7.844   3.710   4.135
14843WAT      O44770   7.644   4.052   5.094
14843WAT     H144771   7.663   4.010   5.005
14843WAT     H244772   7.553   4.024   5.126
14844WAT      O44773   1.715   8.307   4.519
14844WAT     H144774   1.734   8.221   4.471
14844WAT     H244775   1.795   8.334   4.571
14845WAT      O44776   6.939   9.532   4.537
14845WAT     H144777   6.921   9.630   4.539
14845WAT     H244778   6.873   9.484   4.594
14846WAT      O44779   9.434   9.444   8.046
14846WAT     H144780   9.418   9.409   7.953
14846WAT     H244781   9.362   9.510   8.069
14847WAT      O44782   3.788   3.591   4.447
14847WAT     H144783   3.865   3.655   4.439
14847WAT     H244784   3.728   3.601   4.367
14848WAT      O44785   0.132   9.304   0.996
14848WAT     H144786   0.219   9.256   0.996
14848WAT     H244787   0.138   9.385   0.938
14849WAT      O44788   3.893   0.341   2.895
14849WAT     H144789   3.903   0.390   2.808
14849WAT     H244790   3.983   0.308   2.925
14850WAT      O44791   5.363   4.705   6.112
14850WAT     H144792   5.265   4.717   6.096
14850WAT     H244793   5.377   4.634   6.181
14851WAT      O44794   3.657   8.696   3.128
14851WAT     H144795   3.679   8.704   3.226
14851WAT     H244796   3.561   8.670   3.118
14852WAT      O44797   1.466   3.997   4.257
14852WAT     H144798   1.500   4.090   4.266
14852WAT     H244799   1.543   3.933   4.262
14853WAT      O44800   5.371   7.387   5.548
14853WAT     H144801   5.287   7.413   5.502
14853WAT     H244802   5.398   7.458   5.613
14854WAT      O44803   2.420   5.900   4.861
14854WAT     H144804   2.376   5.979   4.904
14854WAT     H244805   2.379   5.884   4.771
14855WAT      O44806   9.146   4.446   7.638
14855WAT     H144807   9.150   4.450   7.738
14855WAT     H244808   9.051   4.429   7.610
14856WAT      O44809   3.897   4.701   7.088
14856WAT     H144810   3.897   4.726   7.185
14856WAT     H244811   3.807   4.664   7.063
14857WAT      O44812   4.402   0.511   9.773
14857WAT     H144813   4.344   0.499   9.692
14857WAT     H244814   4.475   0.443   9.772
14858WAT      O44815   1.958   3.859   7.139
14858WAT     H144816   2.041   3.823   7.095
14858WAT     H244817   1.928   3.941   7.089
14859WAT      O44818   5.458   0.503   4.745
14859WAT     H144819   5.406   0.438   4.800
14859WAT     H244820   5.398   0.579   4.717
14860WAT      O44821   2.826   4.855   2.024
14860WAT     H144822   2.804   4.845   2.121
14860WAT     H244823   2.907   4.801   2.003
14861WAT      O44824   2.809   9.065   5.672
14861WAT     H144825   2.781   9.131   5.603
14861WAT     H244826   2.899   9.090   5.708
14862WAT      O44827   2.470   5.292   0.276
14862WAT     H144828   2.507   5.205   0.308
14862WAT     H244829   2.377   5.278   0.242
14863WAT      O44830   6.818   9.657   1.100
14863WAT     H144831   6.745   9.636   1.165
14863WAT     H244832   6.785   9.722   1.032
14864WAT      O44833   2.181   3.758   7.027
14864WAT     H144834   2.278   3.772   7.050
14864WAT     H244835   2.160   3.661   7.032
14865WAT      O44836   7.397   7.700   1.848
14865WAT     H144837   7.311   7.708   1.798
14865WAT     H244838   7.390   7.625   1.913
14866WAT      O44839   1.144   5.028   1.347
14866WAT     H144840   1.076   4.997   1.413
14866WAT     H244841   1.181   4.949   1.298
14867WAT      O44842   5.817   8.843   4.177
14867WAT     H144843   5.835   8.905   4.101
14867WAT     H244844   5.903   8.816   4.220
14868WAT      O44845   6.491   2.713   7.825
14868WAT     H144846   6.423   2.785   7.833
14868WAT     H244847   6.527   2.712   7.732
14869WAT      O44848   8.931   1.993   7.511
14869WAT     H144849   8.991   2.066   7.545
14869WAT     H244850   8.984   1.929   7.455
14870WAT      O44851   8.578   2.367   7.895
14870WAT     H144852   8.578   2.386   7.797
14870WAT     H244853   8.484   2.357   7.928
14871WAT      O44854   8.967   8.390   4.314
14871WAT     H144855   8.922   8.367   4.401
14871WAT     H244856   8.988   8.306   4.264
14872WAT      O44857   8.379   2.181   0.955
14872WAT     H144858   8.317   2.213   0.884
14872WAT     H244859   8.376   2.244   1.033
14873WAT      O44860   0.132   7.156   8.469
14873WAT     H144861   0.139   7.070   8.519
14873WAT     H244862   0.036   7.185   8.466
14874WAT      O44863   5.307   7.967   5.330
14874WAT     H144864   5.346   8.059   5.329
14874WAT     H244865   5.269   7.948   5.421
14875WAT      O44866   1.935   0.484   7.775
14875WAT     H144867   1.865   0.543   7.735
14875WAT     H244868   1.976   0.530   7.854
14876WAT      O44869   4.941   9.193   5.072
14876WAT     H144870   5.019   9.219   5.128
14876WAT     H244871   4.888   9.275   5.050
14877WAT      O44872   3.674   5.958   0.866
14877WAT     H144873   3.680   5.859   0.865
14877WAT     H244874   3.690   5.992   0.958
14878WAT      O44875   4.317   3.494   4.716
14878WAT     H144876   4.397   3.489   4.776
14878WAT     H244877   4.293   3.402   4.685
14879WAT      O44878   1.659   7.218   5.466
14879WAT     H144879   1.589   7.268   5.517
14879WAT     H244880   1.729   7.184   5.529
14880WAT      O44881   6.443   3.560   4.006
14880WAT     H144882   6.385   3.479   4.021
14880WAT     H244883   6.451   3.577   3.908
14881WAT      O44884   1.772   1.158   8.264
14881WAT     H144885   1.844   1.093   8.240
14881WAT     H244886   1.766   1.229   8.193
14882WAT      O44887   5.208   3.707   4.508
14882WAT     H144888   5.123   3.684   4.461
14882WAT     H244889   5.286   3.670   4.457
14883WAT      O44890   9.215   5.300   1.366
14883WAT     H144891   9.158   5.287   1.286
14883WAT     H244892   9.201   5.391   1.405
14884WAT      O44893   4.355   2.465   6.566
14884WAT     H144894   4.271   2.410   6.568
14884WAT     H244895   4.333   2.558   6.534
14885WAT      O44896   0.106   6.922   5.044
14885WAT     H144897   0.190   6.903   4.995
14885WAT     H244898   0.123   6.992   5.114
14886WAT      O44899   7.110   1.783   0.476
14886WAT     H144900   7.127   1.815   0.569
14886WAT     H244901   7.116   1.683   0.474
14887WAT      O44902   4.778   9.462   0.071
14887WAT     H144903   4.679   9.470   0.061
14887WAT     H244904   4.807   9.371   0.041
14888WAT      O44905   0.095   4.689   6.099
14888WAT     H144906   0.078   4.603   6.148
14888WAT     H244907   0.102   4.670   6.001
14889WAT      O44908   3.363   2.066   3.171
14889WAT     H144909   3.308   2.033   3.094
14889WAT     H244910   3.310   2.131   3.225
14890WAT      O44911   2.588   4.256   7.272
14890WAT     H144912   2.635   4.285   7.356
14890WAT     H244913   2.493   4.286   7.276
14891WAT      O44914   2.575   6.805   0.635
14891WAT     H144915   2.619   6.878   0.688
14891WAT     H244916   2.606   6.716   0.670
14892WAT      O44917   6.701   6.905   7.703
14892WAT     H144918   6.668   6.922   7.796
14892WAT     H244919   6.664   6.974   7.641
14893WAT      O44920   9.650   6.261   5.947
14893WAT     H144921   9.677   6.233   5.855
14893WAT     H244922   9.650   6.181   6.007
14894WAT      O44923   9.033   0.735   8.876
14894WAT     H144924   8.958   0.678   8.842
14894WAT     H244925   9.003   0.784   8.958
14895WAT      O44926   6.283   3.393   4.457
14895WAT     H144927   6.231   3.349   4.530
14895WAT     H244928   6.230   3.389   4.372
14896WAT      O44929   9.749   4.488   0.430
14896WAT     H144930   9.682   4.562   0.423
14896WAT     H244931   9.828   4.508   0.371
14897WAT      O44932   4.882   6.115   3.120
14897WAT     H144933   4.881   6.142   3.217
14897WAT     H244934   4.954   6.048   3.105
14898WAT      O44935   6.057   5.076   4.460
14898WAT     H144936   6.147   5.089   4.419
14898WAT     H244937   6.047   5.137   4.539
14899WAT      O44938   6.252   3.187   5.276
14899WAT     H144939   6.310   3.169   5.197
14899WAT     H244940   6.215   3.280   5.270
14900WAT      O44941   0.329   4.152   8.112
14900WAT     H144942   0.254   4.183   8.054
14900WAT     H244943   0.296   4.136   8.204
14901WAT      O44944   5.356   0.567   1.934
14901WAT     H144945   5.432   0.541   1.875
14901WAT     H244946   5.320   0.485   1.980
14902WAT      O44947   8.017   1.516   2.898
14902WAT     H144948   8.039   1.445   2.966
14902WAT     H244949   7.983   1.472   2.815
14903WAT      O44950   3.891   4.736   7.391
14903WAT     H144951   3.954   4.813   7.397
14903WAT     H244952   3.800   4.765   7.423
14904WAT      O44953   5.271   9.116   6.294
14904WAT     H144954   5.206   9.162   6.233
14904WAT     H244955   5.356   9.169   6.298
14905WAT      O44956   6.175   9.053   7.296
14905WAT     H144957   6.249   9.110   7.261
14905WAT     H244958   6.091   9.074   7.246
14906WAT      O44959   6.544   3.409   0.351
14906WAT     H144960   6.576   3.503   0.343
14906WAT     H244961   6.448   3.409   0.378
14907WAT      O44962   1.383   5.741   5.939
14907WAT     H144963   1.401   5.730   6.037
14907WAT     H244964   1.312   5.811   5.926
14908WAT      O44965   5.741   5.386   0.945
14908WAT     H144966   5.646   5.384   0.913
14908WAT     H244967   5.757   5.309   1.005
14909WAT      O44968   9.223   4.462   2.383
14909WAT     H144969   9.167   4.446   2.464
14909WAT     H244970   9.198   4.395   2.312
14910WAT      O44971   6.002   3.304   8.854
14910WAT     H144972   6.096   3.273   8.865
14910WAT     H244973   5.953   3.244   8.792
14911WAT      O44974   9.633   4.594   7.283
14911WAT     H144975   9.677   4.682   7.266
14911WAT     H244976   9.543   4.592   7.240
14912WAT      O44977   6.236   1.369   0.441
14912WAT     H144978   6.303   1.440   0.461
14912WAT     H244979   6.256   1.289   0.497
14913WAT      O44980   8.134   6.773   5.259
14913WAT     H144981   8.147   6.680   5.295
14913WAT     H244982   8.066   6.821   5.314
14914WAT      O44983   1.600   6.928   8.127
14914WAT     H144984   1.546   6.887   8.201
14914WAT     H244985   1.696   6.906   8.140
14915WAT      O44986   0.367   8.476   1.871
14915WAT     H144987   0.423   8.559   1.876
14915WAT     H244988   0.291   8.490   1.808
14916WAT      O44989   9.777   9.427   7.331
14916WAT     H144990   9.735   9.487   7.263
14916WAT     H244991   9.763   9.332   7.305
14917WAT      O44992   2.980   5.535   5.299
14917WAT     H144993   2.978   5.598   5.221
14917WAT     H244994   3.052   5.563   5.362
14918WAT      O44995   7.823   4.998   1.053
14918WAT     H144996   7.806   5.003   0.955
14918WAT     H244997   7.887   5.070   1.080
14919WAT      O44998   7.652   4.095   3.473
14919WAT     H144999   7.580   4.163   3.488
14919WAT     H245000   7.737   4.126   3.515
14920WAT      O45001   6.835   9.523   5.451
14920WAT     H145002   6.748   9.573   5.446
14920WAT     H245003   6.870   9.528   5.545
14921WAT      O45004   4.363   7.107   6.603
14921WAT     H145005   4.264   7.099   6.605
14921WAT     H245006   4.389   7.175   6.534
14922WAT      O45007   0.229   4.739   3.243
14922WAT     H145008   0.299   4.674   3.273
14922WAT     H245009   0.177   4.699   3.167
14923WAT      O45010   3.716   9.545   9.749
14923WAT     H145011   3.696   9.495   9.665
14923WAT     H245012   3.631   9.580   9.789
14924WAT      O45013   6.392   9.447   3.948
14924WAT     H145014   6.450   9.528   3.942
14924WAT     H245015   6.321   9.451   3.877
14925WAT      O45016   6.338   4.697   9.202
14925WAT     H145017   6.363   4.793   9.201
14925WAT     H245018   6.411   4.644   9.247
14926WAT      O45019   7.403   8.119   0.769
14926WAT     H145020   7.413   8.091   0.864
14926WAT     H245021   7.373   8.214   0.764
14927WAT      O45022   5.004   8.901   7.614
14927WAT     H145023   5.040   8.946   7.533
14927WAT     H245024   5.035   8.806   7.616
14928WAT      O45025   8.710   0.396   2.873
14928WAT     H145026   8.689   0.386   2.776
14928WAT     H245027   8.757   0.314   2.906
14929WAT      O45028   6.383   1.590   9.408
14929WAT     H145029   6.427   1.644   9.481
14929WAT     H245030   6.382   1.643   9.324
14930WAT      O45031   8.558   0.657   6.755
14930WAT     H145032   8.636   0.713   6.784
14930WAT     H245033   8.548   0.579   6.817
14931WAT      O45034   3.634   1.202   0.258
14931WAT     H145035   3.728   1.178   0.278
14931WAT     H245036   3.575   1.121   0.268
14932WAT      O45037   5.147   0.216   3.441
14932WAT     H145038   5.193   0.245   3.357
14932WAT     H245039   5.214   0.203   3.513
14933WAT      O45040   7.581   2.690   8.237
14933WAT     H145041   7.549   2.784   8.247
14933WAT     H245042   7.559   2.637   8.319
14934WAT      O45043   2.176   3.638   6.683
14934WAT     H145044   2.230   3.688   6.616
14934WAT     H245045   2.102   3.590   6.636
14935WAT      O45046   7.019   4.043   3.756
14935WAT     H145047   7.016   4.053   3.856
14935WAT     H245048   7.114   4.037   3.727
14936WAT      O45049   8.878   8.372   0.604
14936WAT     H145050   8.880   8.462   0.561
14936WAT     H245051   8.810   8.314   0.559
14937WAT      O45052   0.434   4.612   0.322
14937WAT     H145053   0.486   4.698   0.319
14937WAT     H245054   0.346   4.625   0.277
14938WAT      O45055   3.507   7.675   0.649
14938WAT     H145056   3.526   7.589   0.698
14938WAT     H245057   3.543   7.752   0.702
14939WAT      O45058   4.359   1.333   2.413
14939WAT     H145059   4.289   1.404   2.425
14939WAT     H245060   4.372   1.284   2.499
14940WAT      O45061   2.286   7.651   2.788
14940WAT     H145062   2.201   7.678   2.743
14940WAT     H245063   2.361   7.707   2.753
14941WAT      O45064   7.763   3.983   4.877
14941WAT     H145065   7.840   3.921   4.894
14941WAT     H245066   7.794   4.078   4.882
14942WAT      O45067   6.981   5.187   4.546
14942WAT     H145068   7.017   5.093   4.551
14942WAT     H245069   7.057   5.252   4.554
14943WAT      O45070   6.985   7.809   9.421
14943WAT     H145071   6.933   7.879   9.470
14943WAT     H245072   6.951   7.719   9.446
14944WAT      O45073   9.780   0.858   2.327
14944WAT     H145074   9.706   0.869   2.261
14944WAT     H245075   9.866   0.889   2.286
14945WAT      O45076   5.037   9.257   7.645
14945WAT     H145077   4.985   9.242   7.561
14945WAT     H245078   5.014   9.188   7.713
14946WAT      O45079   6.098   5.251   0.171
14946WAT     H145080   6.147   5.235   0.256
14946WAT     H245081   6.035   5.328   0.183
14947WAT      O45082   1.569   5.975   0.660
14947WAT     H145083   1.589   6.009   0.568
14947WAT     H245084   1.568   5.875   0.659
14948WAT      O45085   4.024   1.637   3.174
14948WAT     H145086   4.087   1.693   3.119
14948WAT     H245087   4.007   1.683   3.261
14949WAT      O45088   3.989   3.588   2.749
14949WAT     H145089   3.948   3.675   2.776
14949WAT     H245090   4.023   3.540   2.830
14950WAT      O45091   0.719   7.482   1.318
14950WAT     H145092   0.637   7.428   1.337
14950WAT     H245093   0.746   7.468   1.223
14951WAT      O45094   1.577   6.107   7.791
14951WAT     H145095   1.537   6.141   7.706
14951WAT     H245096   1.517   6.131   7.868
14952WAT      O45097   1.274   7.597   9.506
14952WAT     H145098   1.369   7.620   9.527
14952WAT     H245099   1.270   7.544   9.421
14953WAT      O45100   4.903   3.812   7.747
14953WAT     H145101   4.909   3.910   7.765
14953WAT     H245102   4.854   3.768   7.822
14954WAT      O45103   0.275   3.583   8.088
14954WAT     H145104   0.184   3.606   8.122
14954WAT     H245105   0.313   3.661   8.037
14955WAT      O45106   1.573   2.163   1.411
14955WAT     H145107   1.634   2.242   1.410
14955WAT     H245108   1.478   2.194   1.411
14956WAT      O45109   9.856   1.839   6.496
14956WAT     H145110   9.905   1.885   6.570
14956WAT     H245111   9.854   1.741   6.514
14957WAT      O45112   3.398   6.856   8.355
14957WAT     H145113   3.344   6.899   8.426
14957WAT     H245114   3.478   6.912   8.334
14958WAT      O45115   8.856   2.932   4.239
14958WAT     H145116   8.928   2.951   4.172
14958WAT     H245117   8.885   2.856   4.297
14959WAT      O45118   4.746   4.724   1.937
14959WAT     H145119   4.756   4.777   1.853
14959WAT     H245120   4.837   4.710   1.978
14960WAT      O45121   3.181   9.481   6.688
14960WAT     H145122   3.175   9.579   6.668
14960WAT     H245123   3.104   9.434   6.646
14961WAT      O45124   7.316   0.455   9.469
14961WAT     H145125   7.322   0.471   9.370
14961WAT     H245126   7.268   0.531   9.512
14962WAT      O45127   5.846   6.781   8.903
14962WAT     H145128   5.911   6.823   8.966
14962WAT     H245129   5.754   6.815   8.923
14963WAT      O45130   0.261   8.541   1.474
14963WAT     H145131   0.228   8.519   1.382
14963WAT     H245132   0.356   8.511   1.483
14964WAT      O45133   5.929   0.684   4.823
14964WAT     H145134   6.012   0.738   4.816
14964WAT     H245135   5.882   0.705   4.909
14965WAT      O45136   7.377   7.938   8.505
14965WAT     H145137   7.474   7.945   8.480
14965WAT     H245138   7.368   7.942   8.604
14966WAT      O45139   6.671   3.835   7.588
14966WAT     H145140   6.658   3.737   7.577
14966WAT     H245141   6.716   3.872   7.506
14967WAT      O45142   5.818   3.775   3.750
14967WAT     H145143   5.835   3.873   3.753
14967WAT     H245144   5.780   3.744   3.838
14968WAT      O45145   4.648   9.164   4.700
14968WAT     H145146   4.649   9.201   4.793
14968WAT     H245147   4.555   9.144   4.673
14969WAT      O45148   7.966   5.408   9.288
14969WAT     H145149   7.892   5.471   9.307
14969WAT     H245150   7.976   5.397   9.189
14970WAT      O45151   6.916   0.149   4.657
14970WAT     H145152   6.946   0.161   4.752
14970WAT     H245153   6.911   0.238   4.612
14971WAT      O45154   1.921   8.268   1.016
14971WAT     H145155   1.948   8.320   0.934
14971WAT     H245156   1.871   8.328   1.078
14972WAT      O45157   4.682   5.424   2.312
14972WAT     H145158   4.601   5.481   2.323
14972WAT     H245159   4.665   5.333   2.351
14973WAT      O45160   0.290   9.090   8.087
14973WAT     H145161   0.264   9.084   7.991
14973WAT     H245162   0.274   9.183   8.120
14974WAT      O45163   8.542   2.524   8.915
14974WAT     H145164   8.605   2.455   8.952
14974WAT     H245165   8.557   2.533   8.816
14975WAT      O45166   4.801   8.090   6.102
14975WAT     H145167   4.730   8.118   6.038
14975WAT     H245168   4.848   8.009   6.067
14976WAT      O45169   1.587   8.361   7.017
14976WAT     H145170   1.538   8.406   7.092
14976WAT     H245171   1.669   8.316   7.053
14977WAT      O45172   6.676   1.100   5.356
14977WAT     H145173   6.733   1.182   5.362
14977WAT     H245174   6.591   1.116   5.406
14978WAT      O45175   7.460   8.667   8.168
14978WAT     H145176   7.486   8.579   8.129
14978WAT     H245177   7.504   8.679   8.257
14979WAT      O45178   8.643   2.197   5.883
14979WAT     H145179   8.698   2.138   5.944
14979WAT     H245180   8.575   2.246   5.937
14980WAT      O45181   6.968   8.001   8.209
14980WAT     H145182   7.066   8.022   8.211
14980WAT     H245183   6.916   8.081   8.237
14981WAT      O45184   0.197   5.401   2.808
14981WAT     H145185   0.178   5.376   2.903
14981WAT     H245186   0.287   5.367   2.781
14982WAT      O45187   6.874   0.747   8.292
14982WAT     H145188   6.846   0.840   8.270
14982WAT     H245189   6.849   0.726   8.386
14983WAT      O45190   5.569   2.782   5.006
14983WAT     H145191   5.483   2.742   4.973
14983WAT     H245192   5.625   2.710   5.048
14984WAT      O45193   6.863   4.217   7.851
14984WAT     H145194   6.811   4.136   7.879
14984WAT     H245195   6.816   4.299   7.883
14985WAT      O45196   0.753   1.335   4.677
14985WAT     H145197   0.819   1.396   4.633
14985WAT     H245198   0.755   1.246   4.631
14986WAT      O45199   4.714   8.804   5.454
14986WAT     H145200   4.791   8.868   5.451
14986WAT     H245201   4.628   8.855   5.451
14987WAT      O45202   3.826   4.300   0.395
14987WAT     H145203   3.853   4.224   0.335
14987WAT     H245204   3.748   4.271   0.452
14988WAT      O45205   0.001   3.330   8.271
14988WAT     H145206   0.037   3.324   8.365
14988WAT     H245207  -0.006   3.426   8.245
14989WAT      O45208   3.275   1.247   2.130
14989WAT     H145209   3.200   1.181   2.124
14989WAT     H245210   3.352   1.205   2.178
14990WAT      O45211   0.260   7.776   7.501
14990WAT     H145212   0.239   7.679   7.486
14990WAT     H245213   0.318   7.785   7.582
14991WAT      O45214   3.425   8.009   8.801
14991WAT     H145215   3.451   8.037   8.709
14991WAT     H245216   3.413   8.090   8.859
14992WAT      O45217   2.477   3.631   3.299
14992WAT     H145218   2.485   3.722   3.339
14992WAT     H245219   2.435   3.569   3.366
14993WAT      O45220   7.566   6.327   9.554
14993WAT     H145221   7.609   6.395   9.615
14993WAT     H245222   7.564   6.238   9.599
14994WAT      O45223   1.938   5.839   0.986
14994WAT     H145224   1.978   5.760   1.034
14994WAT     H245225   1.841   5.847   1.010
14995WAT      O45226   5.986   5.185   5.278
14995WAT     H145227   6.073   5.184   5.326
14995WAT     H245228   5.987   5.115   5.206
14996WAT      O45229   6.097   4.453   2.084
14996WAT     H145230   6.044   4.370   2.069
14996WAT     H245231   6.194   4.436   2.066
14997WAT      O45232   3.651   8.990   1.269
14997WAT     H145233   3.605   9.025   1.188
14997WAT     H245234   3.699   8.905   1.246
14998WAT      O45235   0.517   3.605   6.007
14998WAT     H145236   0.467   3.629   5.924
14998WAT     H245237   0.493   3.512   6.036
14999WAT      O45238   1.516   0.124   0.546
14999WAT     H145239   1.498   0.142   0.642
14999WAT     H245240   1.430   0.132   0.494
15000WAT      O45241   1.653   4.978   7.941
15000WAT     H145242   1.665   4.924   8.024
15000WAT     H245243   1.643   5.075   7.966
15001WAT      O45244   8.286   2.616   4.685
15001WAT     H145245   8.345   2.697   4.675
15001WAT     H245246   8.244   2.595   4.597
15002WAT      O45247   2.684   3.557   8.738
15002WAT     H145248   2.664   3.655   8.741
15002WAT     H245249   2.602   3.506   8.761
15003WAT      O45250   8.448   2.316   6.005
15003WAT     H145251   8.367   2.326   5.946
15003WAT     H245252   8.423   2.338   6.099
15004WAT      O45253   1.205   0.683   5.788
15004WAT     H145254   1.300   0.653   5.788
15004WAT     H245255   1.202   0.781   5.808
15005WAT      O45256   9.215   2.707   8.486
15005WAT     H145257   9.153   2.679   8.559
15005WAT     H245258   9.276   2.631   8.464
15006WAT      O45259   4.335   5.194   2.526
15006WAT     H145260   4.381   5.173   2.612
15006WAT     H245261   4.364   5.128   2.456
15007WAT      O45262   8.383   2.111   1.302
15007WAT     H145263   8.368   2.204   1.267
15007WAT     H245264   8.350   2.044   1.236
15008WAT      O45265   9.123   4.662   1.817
15008WAT     H145266   9.138   4.723   1.739
15008WAT     H245267   9.085   4.714   1.894
15009WAT      O45268   3.262   4.021   9.874
15009WAT     H145269   3.341   4.082   9.869
15009WAT     H245270   3.221   4.012   9.783
15010WAT      O45271   0.958   8.561   4.897
15010WAT     H145272   0.991   8.500   4.969
15010WAT     H245273   0.980   8.656   4.922
15011WAT      O45274   6.939   1.945   9.749
15011WAT     H145275   6.964   2.030   9.704
15011WAT     H245276   6.995   1.870   9.712
15012WAT      O45277   0.391   7.674   3.753
15012WAT     H145278   0.382   7.732   3.672
15012WAT     H245279   0.329   7.596   3.746
15013WAT      O45280   9.165   6.502   2.891
15013WAT     H145281   9.122   6.592   2.895
15013WAT     H245282   9.123   6.442   2.959
15014WAT      O45283   6.531   3.424   1.528
15014WAT     H145284   6.552   3.400   1.623
15014WAT     H245285   6.443   3.472   1.525
15015WAT      O45286   7.079   5.901   0.780
15015WAT     H145287   7.012   5.956   0.829
15015WAT     H245288   7.109   5.826   0.838
15016WAT      O45289   6.523   8.367   2.656
15016WAT     H145290   6.618   8.363   2.624
15016WAT     H245291   6.487   8.459   2.640
15017WAT      O45292   0.053   8.940   7.338
15017WAT     H145293   0.099   9.025   7.313
15017WAT     H245294   0.086   8.909   7.428
15018WAT      O45295   7.139   7.429   6.796
15018WAT     H145296   7.211   7.487   6.834
15018WAT     H245297   7.149   7.424   6.697
15019WAT      O45298   5.335   1.962   1.968
15019WAT     H145299   5.391   1.919   2.039
15019WAT     H245300   5.238   1.948   1.988
15020WAT      O45301   7.892   3.602   7.514
15020WAT     H145302   7.906   3.651   7.601
15020WAT     H245303   7.882   3.669   7.440
15021WAT      O45304   3.239   0.319   5.266
15021WAT     H145305   3.290   0.321   5.352
15021WAT     H245306   3.230   0.412   5.231
15022WAT      O45307   7.051   7.784   6.746
15022WAT     H145308   7.009   7.694   6.740
15022WAT     H245309   7.068   7.807   6.842
15023WAT      O45310   6.209   2.855   9.340
15023WAT     H145311   6.300   2.826   9.367
15023WAT     H245312   6.144   2.780   9.352
15024WAT      O45313   6.118   0.777   4.178
15024WAT     H145314   6.093   0.841   4.250
15024WAT     H245315   6.056   0.698   4.180
15025WAT      O45316   3.136   0.909   5.094
15025WAT     H145317   3.203   0.838   5.111
15025WAT     H245318   3.182   0.997   5.082
15026WAT      O45319   8.504   1.780   7.606
15026WAT     H145320   8.468   1.849   7.542
15026WAT     H245321   8.429   1.745   7.662
15027WAT      O45322   3.894   0.568   6.126
15027WAT     H145323   3.917   0.608   6.037
15027WAT     H245324   3.813   0.510   6.116
15028WAT      O45325   0.738   5.012   4.045
15028WAT     H145326   0.785   5.093   4.080
15028WAT     H245327   0.669   4.983   4.112
15029WAT      O45328   2.153   5.012   0.690
15029WAT     H145329   2.090   4.958   0.635
15029WAT     H245330   2.130   5.109   0.681
15030WAT      O45331   9.261   8.700   1.297
15030WAT     H145332   9.321   8.626   1.331
15030WAT     H245333   9.201   8.730   1.371
15031WAT      O45334   9.699   2.824   1.419
15031WAT     H145335   9.633   2.804   1.347
15031WAT     H245336   9.653   2.821   1.508
15032WAT      O45337   6.346   4.221   0.086
15032WAT     H145338   6.391   4.162   0.153
15032WAT     H245339   6.385   4.313   0.091
15033WAT      O45340   7.885   0.301   7.783
15033WAT     H145341   7.833   0.385   7.769
15033WAT     H245342   7.834   0.223   7.747
15034WAT      O45343   5.080   9.623   8.174
15034WAT     H145344   5.083   9.715   8.212
15034WAT     H245345   5.094   9.556   8.248
15035WAT      O45346   9.767   1.145   7.358
15035WAT     H145347   9.726   1.057   7.336
15035WAT     H245348   9.757   1.207   7.280
15036WAT      O45349   8.643   9.498   1.595
15036WAT     H145350   8.586   9.471   1.673
15036WAT     H245351   8.655   9.597   1.595
15037WAT      O45352   1.512   8.654   1.507
15037WAT     H145353   1.470   8.734   1.464
15037WAT     H245354   1.516   8.579   1.441
15038WAT      O45355   8.645   6.211   0.962
15038WAT     H145356   8.672   6.133   1.019
15038WAT     H245357   8.583   6.180   0.890
15039WAT      O45358   6.464   3.310   9.315
15039WAT     H145359   6.462   3.401   9.357
15039WAT     H245360   6.370   3.276   9.308
15040WAT      O45361   0.409   9.530   4.757
15040WAT     H145362   0.504   9.555   4.739
15040WAT     H245363   0.361   9.608   4.797
15041WAT      O45364   2.679   0.525   4.806
15041WAT     H145365   2.778   0.508   4.806
15041WAT     H245366   2.633   0.450   4.854
15042WAT      O45367   2.274   7.767   9.071
15042WAT     H145368   2.246   7.688   9.127
15042WAT     H245369   2.222   7.767   8.985
15043WAT      O45370   5.421   8.052   6.029
15043WAT     H145371   5.321   8.048   6.026
15043WAT     H245372   5.458   8.034   5.938
15044WAT      O45373   3.820   9.392   3.685
15044WAT     H145374   3.813   9.309   3.630
15044WAT     H245375   3.729   9.418   3.719
15045WAT      O45376   6.686   0.494   8.179
15045WAT     H145377   6.629   0.478   8.259
15045WAT     H245378   6.735   0.580   8.189
15046WAT      O45379   8.856   9.269   5.414
15046WAT     H145380   8.794   9.208   5.364
15046WAT     H245381   8.934   9.291   5.355
15047WAT      O45382   4.065   8.058   9.164
15047WAT     H145383   4.014   7.993   9.107
15047WAT     H245384   4.009   8.139   9.179
15048WAT      O45385   4.911   4.072   0.255
15048WAT     H145386   4.855   4.000   0.215
15048WAT     H245387   5.006   4.059   0.228
15049WAT      O45388   4.754   8.101   8.766
15049WAT     H145389   4.819   8.048   8.819
15049WAT     H245390   4.753   8.068   8.672
15050WAT      O45391   8.001   6.786   0.209
15050WAT     H145392   7.977   6.738   0.125
15050WAT     H245393   7.924   6.843   0.239
15051WAT      O45394   0.169   8.338   8.237
15051WAT     H145395   0.199   8.412   8.176
15051WAT     H245396   0.086   8.366   8.285
15052WAT      O45397   4.234   6.801   3.522
15052WAT     H145398   4.275   6.874   3.466
15052WAT     H245399   4.146   6.832   3.558
15053WAT      O45400   0.270   1.778   8.025
15053WAT     H145401   0.267   1.836   7.943
15053WAT     H245402   0.212   1.818   8.096
15054WAT      O45403   8.460   8.703   1.018
15054WAT     H145404   8.483   8.663   1.107
15054WAT     H245405   8.475   8.635   0.946
15055WAT      O45406   4.325   3.449   2.705
15055WAT     H145407   4.421   3.479   2.706
15055WAT     H245408   4.279   3.483   2.788
15056WAT      O45409   9.536   3.391   4.616
15056WAT     H145410   9.537   3.295   4.644
15056WAT     H245411   9.515   3.397   4.519
15057WAT      O45412   9.646   5.331   5.203
15057WAT     H145413   9.571   5.301   5.262
15057WAT     H245414   9.715   5.379   5.257
15058WAT      O45415   5.434   2.760   2.406
15058WAT     H145416   5.358   2.804   2.359
15058WAT     H245417   5.507   2.828   2.422
15059WAT      O45418   7.321   1.715   6.034
15059WAT     H145419   7.299   1.746   5.942
15059WAT     H245420   7.330   1.615   6.035
15060WAT      O45421   5.803   3.269   5.879
15060WAT     H145422   5.768   3.248   5.970
15060WAT     H245423   5.757   3.211   5.812
15061WAT      O45424   9.395   2.676   9.326
15061WAT     H145425   9.491   2.656   9.341
15061WAT     H245426   9.372   2.763   9.369
15062WAT      O45427   9.042   3.563   0.974
15062WAT     H145428   9.105   3.496   0.935
15062WAT     H245429   9.028   3.638   0.910
15063WAT      O45430   8.350   5.267   2.597
15063WAT     H145431   8.372   5.356   2.557
15063WAT     H245432   8.293   5.281   2.679
15064WAT      O45433   4.066   2.333   7.383
15064WAT     H145434   4.094   2.262   7.317
15064WAT     H245435   4.044   2.417   7.334
15065WAT      O45436   8.639   1.189   5.277
15065WAT     H145437   8.567   1.119   5.277
15065WAT     H245438   8.722   1.152   5.238
15066WAT      O45439   9.023   1.236   1.889
15066WAT     H145440   8.994   1.218   1.983
15066WAT     H245441   9.123   1.239   1.885
15067WAT      O45442   0.090   9.372   7.073
15067WAT     H145443   0.079   9.273   7.062
15067WAT     H245444   0.126   9.392   7.164
15068WAT      O45445   5.397   6.711   3.508
15068WAT     H145446   5.395   6.768   3.426
15068WAT     H245447   5.325   6.741   3.571
15069WAT      O45448   1.961   3.653   1.471
15069WAT     H145449   1.886   3.628   1.410
15069WAT     H245450   1.966   3.589   1.548
15070WAT      O45451   7.847   2.253   1.919
15070WAT     H145452   7.769   2.298   1.875
15070WAT     H245453   7.841   2.154   1.904
15071WAT      O45454   0.949   6.716   1.783
15071WAT     H145455   0.857   6.748   1.802
15071WAT     H245456   0.994   6.779   1.720
15072WAT      O45457   8.462   6.843   2.527
15072WAT     H145458   8.412   6.921   2.564
15072WAT     H245459   8.511   6.870   2.444
15073WAT      O45460   7.679   0.485   5.329
15073WAT     H145461   7.660   0.399   5.378
15073WAT     H245462   7.646   0.562   5.384
15074WAT      O45463   4.167   3.298   1.865
15074WAT     H145464   4.131   3.224   1.808
15074WAT     H245465   4.248   3.337   1.821
15075WAT      O45466   0.815   6.188   6.867
15075WAT     H145467   0.818   6.105   6.923
15075WAT     H245468   0.743   6.180   6.799
15076WAT      O45469   1.786   4.670   1.821
15076WAT     H145470   1.724   4.741   1.787
15076WAT     H245471   1.831   4.625   1.743
15077WAT      O45472   8.932   7.465   8.061
15077WAT     H145473   8.870   7.392   8.031
15077WAT     H245474   8.901   7.552   8.024
15078WAT      O45475   2.229   3.434   6.282
15078WAT     H145476   2.233   3.410   6.185
15078WAT     H245477   2.136   3.421   6.316
15079WAT      O45478   3.451   5.638   5.358
15079WAT     H145479   3.535   5.663   5.407
15079WAT     H245480   3.454   5.674   5.265
15080WAT      O45481   3.207   2.978   4.537
15080WAT     H145482   3.212   2.879   4.552
15080WAT     H245483   3.130   3.015   4.588
15081WAT      O45484   8.041   2.041   3.100
15081WAT     H145485   8.019   2.043   3.197
15081WAT     H245486   8.044   1.946   3.068
15082WAT      O45487   9.223   0.717   4.902
15082WAT     H145488   9.283   0.706   4.823
15082WAT     H245489   9.128   0.708   4.873
15083WAT      O45490   2.701   9.237   9.200
15083WAT     H145491   2.677   9.141   9.182
15083WAT     H245492   2.632   9.296   9.158
15084WAT      O45493   9.663   2.842   1.046
15084WAT     H145494   9.730   2.910   1.076
15084WAT     H245495   9.619   2.875   0.962
15085WAT      O45496   9.163   4.689   9.193
15085WAT     H145497   9.204   4.719   9.278
15085WAT     H245498   9.215   4.612   9.155
15086WAT      O45499   8.704   8.071   5.562
15086WAT     H145500   8.736   8.098   5.653
15086WAT     H245501   8.614   8.112   5.545
15087WAT      O45502   9.448   2.192   6.675
15087WAT     H145503   9.491   2.102   6.679
15087WAT     H245504   9.472   2.236   6.588
15088WAT      O45505   0.181   6.272   5.726
15088WAT     H145506   0.220   6.286   5.636
15088WAT     H245507   0.120   6.349   5.748
15089WAT      O45508   4.266   3.440   4.199
15089WAT     H145509   4.282   3.341   4.193
15089WAT     H245510   4.241   3.465   4.292
15090WAT      O45511   0.177   6.745   9.541
15090WAT     H145512   0.135   6.823   9.587
15090WAT     H245513   0.276   6.755   9.543
15091WAT      O45514   4.543   1.947   4.497
15091WAT     H145515   4.538   1.851   4.525
15091WAT     H245516   4.590   1.954   4.409
15092WAT      O45517   7.108   8.653   7.176
15092WAT     H145518   7.015   8.671   7.209
15092WAT     H245519   7.170   8.722   7.214
15093WAT      O45520   1.556   6.203   3.606
15093WAT     H145521   1.647   6.216   3.646
15093WAT     H245522   1.490   6.262   3.651
15094WAT      O45523   8.171   1.901   7.366
15094WAT     H145524   8.072   1.916   7.365
15094WAT     H245525   8.207   1.907   7.273
15095WAT      O45526   5.799   7.086   5.986
15095WAT     H145527   5.732   7.103   6.058
15095WAT     H245528   5.753   7.054   5.904
15096WAT      O45529   0.099   6.448   3.482
15096WAT     H145530   0.169   6.492   3.426
15096WAT     H245531   0.008   6.474   3.448
15097WAT      O45532   7.025   0.337   0.129
15097WAT     H145533   7.041   0.403   0.201
15097WAT     H245534   6.969   0.378   0.057
15098WAT      O45535   4.279   7.766   9.865
15098WAT     H145536   4.304   7.862   9.880
15098WAT     H245537   4.186   7.761   9.829
15099WAT      O45538   7.187   9.770   1.707
15099WAT     H145539   7.262   9.709   1.732
15099WAT     H245540   7.153   9.746   1.616
15100WAT      O45541   0.592   5.751   6.882
15100WAT     H145542   0.681   5.735   6.839
15100WAT     H245543   0.542   5.665   6.888
15101WAT      O45544   3.501   0.906   5.045
15101WAT     H145545   3.451   0.980   5.088
15101WAT     H245546   3.594   0.936   5.025
15102WAT      O45547   2.809   5.743   8.293
15102WAT     H145548   2.815   5.841   8.274
15102WAT     H245549   2.901   5.707   8.310
15103WAT      O45550   4.211   7.346   4.003
15103WAT     H145551   4.206   7.366   3.905
15103WAT     H245552   4.119   7.331   4.039
15104WAT      O45553   2.924   8.719   3.756
15104WAT     H145554   2.965   8.809   3.738
15104WAT     H245555   2.949   8.656   3.683
15105WAT      O45556   4.635   6.077   5.196
15105WAT     H145557   4.537   6.066   5.177
15105WAT     H245558   4.678   5.987   5.205
15106WAT      O45559   3.580   5.104   7.787
15106WAT     H145560   3.639   5.053   7.725
15106WAT     H245561   3.621   5.106   7.878
15107WAT      O45562   1.188   3.644   6.873
15107WAT     H145563   1.182   3.733   6.829
15107WAT     H245564   1.280   3.607   6.862
15108WAT      O45565   8.760   6.329   6.139
15108WAT     H145566   8.762   6.250   6.077
15108WAT     H245567   8.835   6.322   6.204
15109WAT      O45568   7.455   0.497   2.643
15109WAT     H145569   7.403   0.538   2.568
15109WAT     H245570   7.553   0.509   2.625
15110WAT      O45571   7.765   1.638   3.246
15110WAT     H145572   7.860   1.632   3.217
15110WAT     H245573   7.736   1.549   3.282
15111WAT      O45574   7.763   0.148   9.051
15111WAT     H145575   7.717   0.237   9.049
15111WAT     H245576   7.699   0.077   9.020
15112WAT      O45577   1.378   7.087   2.620
15112WAT     H145578   1.358   7.116   2.526
15112WAT     H245579   1.376   7.167   2.680
15113WAT      O45580   1.188   9.366   3.119
15113WAT     H145581   1.138   9.317   3.190
15113WAT     H245582   1.135   9.445   3.088
15114WAT      O45583   3.134   9.747   4.591
15114WAT     H145584   3.172   9.837   4.568
15114WAT     H245585   3.203   9.677   4.573
15115WAT      O45586   1.740   3.983   4.685
15115WAT     H145587   1.693   4.010   4.769
15115WAT     H245588   1.776   4.064   4.640
15116WAT      O45589   6.710   6.129   0.746
15116WAT     H145590   6.666   6.040   0.755
15116WAT     H245591   6.641   6.199   0.728
15117WAT      O45592   7.538   4.723   6.253
15117WAT     H145593   7.443   4.751   6.248
15117WAT     H245594   7.598   4.800   6.232
15118WAT      O45595   9.278   1.897   6.053
15118WAT     H145596   9.338   1.970   6.021
15118WAT     H245597   9.231   1.855   5.975
15119WAT      O45598   9.575   1.345   6.317
15119WAT     H145599   9.506   1.409   6.352
15119WAT     H245600   9.549   1.314   6.226
15120WAT      O45601   8.682   5.287   3.311
15120WAT     H145602   8.753   5.357   3.303
15120WAT     H245603   8.640   5.273   3.222
15121WAT      O45604   5.718   1.729   3.015
15121WAT     H145605   5.701   1.826   3.031
15121WAT     H245606   5.751   1.686   3.099
15122WAT      O45607   3.134   2.820   5.508
15122WAT     H145608   3.109   2.838   5.603
15122WAT     H245609   3.233   2.832   5.496
15123WAT      O45610   6.469   1.602   7.169
15123WAT     H145611   6.546   1.538   7.175
15123WAT     H245612   6.502   1.694   7.188
15124WAT      O45613   9.518   3.621   5.216
15124WAT     H145614   9.485   3.542   5.268
15124WAT     H245615   9.561   3.686   5.278
15125WAT      O45616   8.066   9.102   1.106
15125WAT     H145617   8.015   9.164   1.046
15125WAT     H245618   8.018   9.014   1.112
15126WAT      O45619   7.063   3.784   7.275
15126WAT     H145620   7.075   3.709   7.210
15126WAT     H245621   7.121   3.768   7.355
15127WAT      O45622   6.160   9.198   6.071
15127WAT     H145623   6.164   9.285   6.120
15127WAT     H245624   6.139   9.125   6.136
15128WAT      O45625   7.821   6.715   8.885
15128WAT     H145626   7.877   6.789   8.924
15128WAT     H245627   7.814   6.728   8.786
15129WAT      O45628   2.597   6.659   9.860
15129WAT     H145629   2.509   6.699   9.835
15129WAT     H245630   2.618   6.583   9.798
15130WAT      O45631   0.616   7.332   4.464
15130WAT     H145632   0.682   7.267   4.501
15130WAT     H245633   0.525   7.309   4.499
15131WAT      O45634   4.885   4.393   1.866
15131WAT     H145635   4.946   4.469   1.841
15131WAT     H245636   4.929   4.337   1.936
15132WAT      O45637   1.192   4.173   8.490
15132WAT     H145638   1.138   4.216   8.562
15132WAT     H245639   1.210   4.240   8.418
15133WAT      O45640   5.630   0.174   4.769
15133WAT     H145641   5.670   0.166   4.860
15133WAT     H245642   5.620   0.271   4.746
15134WAT      O45643   5.227   9.624   1.990
15134WAT     H145644   5.224   9.525   1.999
15134WAT     H245645   5.316   9.658   2.019
15135WAT      O45646   7.270   6.216   5.058
15135WAT     H145647   7.208   6.192   5.133
15135WAT     H245648   7.357   6.247   5.096
15136WAT      O45649   5.642   3.479   4.030
15136WAT     H145650   5.701   3.463   4.109
15136WAT     H245651   5.621   3.391   3.987
15137WAT      O45652   3.649   6.674   5.019
15137WAT     H145653   3.727   6.641   5.071
15137WAT     H245654   3.676   6.753   4.963
15138WAT      O45655   6.742   6.592   0.318
15138WAT     H145656   6.811   6.537   0.271
15138WAT     H245657   6.764   6.689   0.308
15139WAT      O45658   0.603   4.429   3.387
15139WAT     H145659   0.632   4.336   3.367
15139WAT     H245660   0.677   4.477   3.435
15140WAT      O45661   0.252   5.046   3.000
15140WAT     H145662   0.221   5.063   3.093
15140WAT     H245663   0.346   5.081   2.990
15141WAT      O45664   8.793   2.495   2.712
15141WAT     H145665   8.780   2.454   2.803
15141WAT     H245666   8.786   2.424   2.642
15142WAT      O45667   2.895   0.360   2.207
15142WAT     H145668   2.822   0.311   2.255
15142WAT     H245669   2.905   0.451   2.248
15143WAT      O45670   6.952   3.359   8.885
15143WAT     H145671   7.036   3.304   8.889
15143WAT     H245672   6.966   3.435   8.821
15144WAT      O45673   5.698   3.797   1.345
15144WAT     H145674   5.757   3.835   1.417
15144WAT     H245675   5.602   3.808   1.371
15145WAT      O45676   1.441   6.172   9.161
15145WAT     H145677   1.382   6.097   9.130
15145WAT     H245678   1.432   6.250   9.099
15146WAT      O45679   2.730   5.773   1.086
15146WAT     H145680   2.670   5.747   1.162
15146WAT     H245681   2.805   5.708   1.079
15147WAT      O45682   3.144   2.035   2.089
15147WAT     H145683   3.068   2.024   2.025
15147WAT     H245684   3.230   2.013   2.043
15148WAT      O45685   3.483   0.447   8.921
15148WAT     H145686   3.579   0.441   8.894
15148WAT     H245687   3.448   0.356   8.942
15149WAT      O45688   0.724   7.972   1.779
15149WAT     H145689   0.663   8.044   1.746
15149WAT     H245690   0.788   8.011   1.846
15150WAT      O45691   6.186   8.235   3.913
15150WAT     H145692   6.246   8.156   3.912
15150WAT     H245693   6.181   8.272   4.006
15151WAT      O45694   2.216   1.233   2.539
15151WAT     H145695   2.275   1.153   2.546
15151WAT     H245696   2.242   1.287   2.460
15152WAT      O45697   1.515   7.057   6.225
15152WAT     H145698   1.610   7.086   6.239
15152WAT     H245699   1.488   7.075   6.130
15153WAT      O45700   6.270   0.064   9.701
15153WAT     H145701   6.316   0.021   9.779
15153WAT     H245702   6.338   0.115   9.647
15154WAT      O45703   0.759   1.865   8.728
15154WAT     H145704   0.753   1.786   8.789
15154WAT     H245705   0.680   1.867   8.667
15155WAT      O45706   3.309   5.972   0.823
15155WAT     H145707   3.398   5.930   0.839
15155WAT     H245708   3.321   6.056   0.770
15156WAT      O45709   1.442   3.413   4.894
15156WAT     H145710   1.519   3.415   4.958
15156WAT     H245711   1.366   3.364   4.936
15157WAT      O45712   8.542   1.190   1.737
15157WAT     H145713   8.523   1.246   1.817
15157WAT     H245714   8.589   1.245   1.668
15158WAT      O45715   6.438   6.540   9.854
15158WAT     H145716   6.400   6.599   9.925
15158WAT     H245717   6.478   6.458   9.897
15159WAT      O45718   7.620   9.767   4.942
15159WAT     H145719   7.568   9.688   4.910
15159WAT     H245720   7.557   9.838   4.973
15160WAT      O45721   5.099   8.737   3.861
15160WAT     H145722   5.057   8.673   3.926
15160WAT     H245723   5.180   8.695   3.820
15161WAT      O45724   0.168   0.628   7.255
15161WAT     H145725   0.118   0.543   7.269
15161WAT     H245726   0.176   0.677   7.342
15162WAT      O45727   1.915   6.572   1.749
15162WAT     H145728   1.979   6.640   1.715
15162WAT     H245729   1.851   6.547   1.676
15163WAT      O45730   4.158   7.219   4.703
15163WAT     H145731   4.242   7.203   4.650
15163WAT     H245732   4.180   7.270   4.786
15164WAT      O45733   6.110   4.984   8.058
15164WAT     H145734   6.061   5.071   8.065
15164WAT     H245735   6.191   4.995   8.000
15165WAT      O45736   1.264   3.329   8.407
15165WAT     H145737   1.311   3.340   8.320
15165WAT     H245738   1.330   3.306   8.478
15166WAT      O45739   9.291   9.268   2.640
15166WAT     H145740   9.347   9.249   2.559
15166WAT     H245741   9.322   9.210   2.716
15167WAT      O45742   1.780   1.588   6.285
15167WAT     H145743   1.869   1.563   6.323
15167WAT     H245744   1.771   1.551   6.193
15168WAT      O45745   8.047   5.848   7.830
15168WAT     H145746   8.110   5.780   7.866
15168WAT     H245747   8.098   5.927   7.795
15169WAT      O45748   6.915   6.056   2.075
15169WAT     H145749   6.942   6.029   1.982
15169WAT     H245750   6.903   5.974   2.131
15170WAT      O45751   5.143   2.608   2.058
15170WAT     H145752   5.099   2.664   2.129
15170WAT     H245753   5.232   2.577   2.090
15171WAT      O45754   1.354   4.216   7.582
15171WAT     H145755   1.271   4.249   7.537
15171WAT     H245756   1.434   4.258   7.539
15172WAT      O45757   6.639   9.585   7.554
15172WAT     H145758   6.549   9.627   7.565
15172WAT     H245759   6.631   9.486   7.567
15173WAT      O45760   7.909   5.137   8.942
15173WAT     H145761   7.832   5.104   8.888
15173WAT     H245762   7.925   5.075   9.019
15174WAT      O45763   3.687   8.624   2.779
15174WAT     H145764   3.594   8.643   2.747
15174WAT     H245765   3.731   8.710   2.805
15175WAT      O45766   1.590   6.593   6.664
15175WAT     H145767   1.624   6.643   6.585
15175WAT     H245768   1.662   6.585   6.733
15176WAT      O45769   4.692   6.748   0.178
15176WAT     H145770   4.650   6.782   0.094
15176WAT     H245771   4.762   6.813   0.209
15177WAT      O45772   9.472   3.649   7.161
15177WAT     H145773   9.462   3.663   7.063
15177WAT     H245774   9.560   3.603   7.179
15178WAT      O45775   9.039   8.552   8.348
15178WAT     H145776   8.958   8.589   8.303
15178WAT     H245777   9.119   8.604   8.321
15179WAT      O45778   2.003   9.074   9.814
15179WAT     H145779   2.016   9.097   9.911
15179WAT     H245780   1.906   9.070   9.793
15180WAT      O45781   1.162   0.134   9.454
15180WAT     H145782   1.064   0.147   9.446
15180WAT     H245783   1.209   0.177   9.376
15181WAT      O45784   2.872   5.960   2.596
15181WAT     H145785   2.926   6.039   2.570
15181WAT     H245786   2.775   5.984   2.593
15182WAT      O45787   4.194   6.563   8.210
15182WAT     H145788   4.247   6.499   8.153
15182WAT     H245789   4.247   6.586   8.291
15183WAT      O45790   1.794   5.459   1.580
15183WAT     H145791   1.748   5.370   1.581
15183WAT     H245792   1.825   5.479   1.487
15184WAT      O45793   6.853   2.912   8.410
15184WAT     H145794   6.756   2.932   8.424
15184WAT     H245795   6.869   2.892   8.313
15185WAT      O45796   3.892   0.128   9.063
15185WAT     H145797   3.940   0.151   8.978
15185WAT     H245798   3.813   0.188   9.074
15186WAT      O45799   7.596   3.891   1.194
15186WAT     H145800   7.611   3.917   1.099
15186WAT     H245801   7.534   3.957   1.238
15187WAT      O45802   0.307   4.935   1.572
15187WAT     H145803   0.388   4.988   1.596
15187WAT     H245804   0.259   4.907   1.655
15188WAT      O45805   1.364   1.153   7.222
15188WAT     H145806   1.335   1.215   7.149
15188WAT     H245807   1.414   1.204   7.292
15189WAT      O45808   1.147   1.386   0.707
15189WAT     H145809   1.122   1.388   0.610
15189WAT     H245810   1.097   1.312   0.752
15190WAT      O45811   8.148   7.923   2.184
15190WAT     H145812   8.082   7.976   2.237
15190WAT     H245813   8.113   7.830   2.172
15191WAT      O45814   7.885   3.639   3.259
15191WAT     H145815   7.894   3.541   3.273
15191WAT     H245816   7.874   3.658   3.162
15192WAT      O45817   1.864   4.515   5.157
15192WAT     H145818   1.838   4.540   5.250
15192WAT     H245819   1.858   4.416   5.145
15193WAT      O45820   8.966   7.561   6.196
15193WAT     H145821   8.912   7.490   6.242
15193WAT     H245822   8.983   7.637   6.259
15194WAT      O45823   8.767   3.195   1.197
15194WAT     H145824   8.815   3.113   1.230
15194WAT     H245825   8.670   3.174   1.184
15195WAT      O45826   1.414   7.640   3.062
15195WAT     H145827   1.435   7.573   3.133
15195WAT     H245828   1.446   7.730   3.090
15196WAT      O45829   9.290   0.739   3.705
15196WAT     H145830   9.207   0.793   3.691
15196WAT     H245831   9.337   0.769   3.787
15197WAT      O45832   4.906   6.916   7.903
15197WAT     H145833   4.891   6.965   7.818
15197WAT     H245834   4.872   6.971   7.980
15198WAT      O45835   0.569   2.069   5.079
15198WAT     H145836   0.482   2.020   5.074
15198WAT     H245837   0.576   2.133   5.002
15199WAT      O45838   0.753   9.376   2.359
15199WAT     H145839   0.834   9.346   2.410
15199WAT     H245840   0.676   9.317   2.381
15200WAT      O45841   9.013   5.565   5.818
15200WAT     H145842   9.069   5.645   5.839
15200WAT     H245843   9.059   5.511   5.747
15201WAT      O45844   1.533   5.955   6.619
15201WAT     H145845   1.551   5.865   6.661
15201WAT     H245846   1.436   5.964   6.601
15202WAT      O45847   7.704   6.282   5.412
15202WAT     H145848   7.739   6.373   5.436
15202WAT     H245849   7.727   6.218   5.485
15203WAT      O45850   5.154   2.276   6.341
15203WAT     H145851   5.120   2.364   6.307
15203WAT     H245852   5.254   2.275   6.339
15204WAT      O45853   2.660   2.035   1.494
15204WAT     H145854   2.682   1.940   1.517
15204WAT     H245855   2.674   2.093   1.574
15205WAT      O45856   3.502   5.677   1.560
15205WAT     H145857   3.575   5.723   1.610
15205WAT     H245858   3.414   5.715   1.588
15206WAT      O45859   5.120   0.991   8.706
15206WAT     H145860   5.164   0.909   8.742
15206WAT     H245861   5.051   1.024   8.771
15207WAT      O45862   9.307   6.762   9.396
15207WAT     H145863   9.388   6.731   9.446
15207WAT     H245864   9.335   6.823   9.322
15208WAT      O45865   1.367   9.805   6.808
15208WAT     H145866   1.419   9.844   6.885
15208WAT     H245867   1.431   9.764   6.743
15209WAT      O45868   2.470   0.624   2.991
15209WAT     H145869   2.553   0.627   3.046
15209WAT     H245870   2.415   0.706   3.009
15210WAT      O45871   4.973   4.328   5.955
15210WAT     H145872   5.034   4.376   6.017
15210WAT     H245873   5.027   4.276   5.888
15211WAT      O45874   6.773   1.104   7.763
15211WAT     H145875   6.687   1.118   7.812
15211WAT     H245876   6.850   1.110   7.826
15212WAT      O45877   5.776   6.569   7.240
15212WAT     H145878   5.836   6.501   7.197
15212WAT     H245879   5.716   6.609   7.171
15213WAT      O45880   7.915   3.682   7.812
15213WAT     H145881   7.839   3.681   7.878
15213WAT     H245882   7.999   3.651   7.858
15214WAT      O45883   8.964   0.413   7.010
15214WAT     H145884   9.017   0.344   7.059
15214WAT     H245885   8.973   0.399   6.912
15215WAT      O45886   4.699   1.720   8.014
15215WAT     H145887   4.745   1.718   7.926
15215WAT     H245888   4.603   1.746   8.002
15216WAT      O45889   0.536   4.050   5.334
15216WAT     H145890   0.590   4.121   5.289
15216WAT     H245891   0.537   3.967   5.279
15217WAT      O45892   2.485   3.329   4.731
15217WAT     H145893   2.483   3.238   4.689
15217WAT     H245894   2.545   3.327   4.812
15218WAT      O45895   8.504   8.844   5.286
15218WAT     H145896   8.424   8.857   5.344
15218WAT     H245897   8.572   8.787   5.333
15219WAT      O45898   9.020   8.009   6.325
15219WAT     H145899   8.989   8.090   6.375
15219WAT     H245900   8.950   7.983   6.258
15220WAT      O45901   9.739   2.411   5.255
15220WAT     H145902   9.711   2.475   5.184
15220WAT     H245903   9.683   2.328   5.251
15221WAT      O45904   5.462   5.040   8.420
15221WAT     H145905   5.525   4.963   8.411
15221WAT     H245906   5.406   5.029   8.502
15222WAT      O45907   3.058   7.638   2.999
15222WAT     H145908   3.111   7.650   2.915
15222WAT     H245909   3.053   7.540   3.021
15223WAT      O45910   3.187   4.467   4.401
15223WAT     H145911   3.094   4.435   4.417
15223WAT     H245912   3.251   4.395   4.431
15224WAT      O45913   5.187   8.224   0.274
15224WAT     H145914   5.267   8.251   0.221
15224WAT     H245915   5.210   8.223   0.371
15225WAT      O45916   0.615   8.265   2.149
15225WAT     H145917   0.670   8.340   2.113
15225WAT     H245918   0.518   8.287   2.137
15226WAT      O45919   2.761   1.876   1.252
15226WAT     H145920   2.767   1.974   1.273
15226WAT     H245921   2.811   1.824   1.320
15227WAT      O45922   1.139   8.782   1.960
15227WAT     H145923   1.215   8.844   1.938
15227WAT     H245924   1.058   8.835   1.983
15228WAT      O45925   5.923   8.991   2.974
15228WAT     H145926   5.993   8.920   2.968
15228WAT     H245927   5.843   8.956   3.023
15229WAT      O45928   3.227   3.250   5.405
15229WAT     H145929   3.183   3.164   5.381
15229WAT     H245930   3.159   3.312   5.445
15230WAT      O45931   7.459   1.349   6.388
15230WAT     H145932   7.454   1.271   6.326
15230WAT     H245933   7.545   1.346   6.439
15231WAT      O45934   5.339   0.418   2.609
15231WAT     H145935   5.240   0.415   2.619
15231WAT     H245936   5.366   0.376   2.523
15232WAT      O45937   9.222   2.696   7.459
15232WAT     H145938   9.210   2.610   7.407
15232WAT     H245939   9.172   2.769   7.413
15233WAT      O45940   0.129   3.128   3.027
15233WAT     H145941   0.031   3.144   3.019
15233WAT     H245942   0.153   3.121   3.124
15234WAT      O45943   9.237   5.059   2.883
15234WAT     H145944   9.244   5.007   2.968
15234WAT     H245945   9.279   5.149   2.894
15235WAT      O45946   3.271   6.457   2.537
15235WAT     H145947   3.319   6.526   2.591
15235WAT     H245948   3.307   6.456   2.444
15236WAT      O45949   1.298   1.433   0.317
15236WAT     H145950   1.331   1.521   0.282
15236WAT     H245951   1.211   1.446   0.363
15237WAT      O45952   6.953   5.399   6.533
15237WAT     H145953   6.942   5.459   6.613
15237WAT     H245954   6.981   5.308   6.564
15238WAT      O45955   3.239   7.770   9.487
15238WAT     H145956   3.268   7.768   9.582
15238WAT     H245957   3.250   7.862   9.450
15239WAT      O45958   3.146   4.977   4.670
15239WAT     H145959   3.142   4.992   4.769
15239WAT     H245960   3.229   4.926   4.647
15240WAT      O45961   5.353   9.326   5.360
15240WAT     H145962   5.414   9.370   5.426
15240WAT     H245963   5.284   9.273   5.410
15241WAT      O45964   6.344   0.175   2.447
15241WAT     H145965   6.300   0.264   2.457
15241WAT     H245966   6.392   0.151   2.531
15242WAT      O45967   4.060   0.851   5.700
15242WAT     H145968   4.003   0.887   5.625
15242WAT     H245969   4.153   0.836   5.667
15243WAT      O45970   6.753   6.547   5.888
15243WAT     H145971   6.717   6.490   5.961
15243WAT     H245972   6.705   6.634   5.887
15244WAT      O45973   3.619   0.624   1.057
15244WAT     H145974   3.710   0.626   1.098
15244WAT     H245975   3.555   0.676   1.113
15245WAT      O45976   2.935   8.583   8.186
15245WAT     H145977   2.967   8.666   8.143
15245WAT     H245978   2.927   8.510   8.118
15246WAT      O45979   5.133   2.893   2.365
15246WAT     H145980   5.066   2.911   2.437
15246WAT     H245981   5.154   2.977   2.316
15247WAT      O45982   9.550   0.106   5.780
15247WAT     H145983   9.624   0.064   5.727
15247WAT     H245984   9.589   0.155   5.858
15248WAT      O45985   1.300   8.850   3.056
15248WAT     H145986   1.264   8.846   3.149
15248WAT     H245987   1.362   8.772   3.041
15249WAT      O45988   6.746   0.816   0.356
15249WAT     H145989   6.738   0.801   0.455
15249WAT     H245990   6.745   0.728   0.309
15250WAT      O45991   6.460   9.799   1.047
15250WAT     H145992   6.398   9.829   0.975
15250WAT     H245993   6.409   9.785   1.131
15251WAT      O45994   3.982   4.011   4.933
15251WAT     H145995   3.946   4.055   4.850
15251WAT     H245996   4.002   3.915   4.914
15252WAT      O45997   5.035   0.643   9.881
15252WAT     H145998   4.943   0.615   9.909
15252WAT     H245999   5.097   0.565   9.889
15253WAT      O46000   3.090   4.500   9.448
15253WAT     H146001   3.124   4.420   9.399
15253WAT     H246002   3.039   4.471   9.529
15254WAT      O46003   4.930   5.023   2.217
15254WAT     H146004   4.953   5.028   2.120
15254WAT     H246005   4.987   5.087   2.268
15255WAT      O46006   6.372   8.431   0.981
15255WAT     H146007   6.331   8.342   0.961
15255WAT     H246008   6.425   8.461   0.902
15256WAT      O46009   6.398   2.257   0.653
15256WAT     H146010   6.440   2.190   0.593
15256WAT     H246011   6.403   2.226   0.748
15257WAT      O46012   0.652   6.898   1.275
15257WAT     H146013   0.601   6.812   1.271
15257WAT     H246014   0.748   6.880   1.252
15258WAT      O46015   5.747   8.537   8.188
15258WAT     H146016   5.708   8.446   8.196
15258WAT     H246017   5.698   8.589   8.117
15259WAT      O46018   2.550   6.624   4.669
15259WAT     H146019   2.455   6.595   4.682
15259WAT     H246020   2.611   6.562   4.720
15260WAT      O46021   7.569   7.818   4.263
15260WAT     H146022   7.626   7.822   4.345
15260WAT     H246023   7.537   7.724   4.249
15261WAT      O46024   7.632   6.489   0.729
15261WAT     H146025   7.619   6.587   0.741
15261WAT     H246026   7.614   6.442   0.815
15262WAT      O46027   6.375   4.480   6.604
15262WAT     H146028   6.465   4.439   6.587
15262WAT     H246029   6.386   4.576   6.629
15263WAT      O46030   2.959   3.084   0.043
15263WAT     H146031   2.968   3.100   0.141
15263WAT     H246032   2.986   2.990   0.022
15264WAT      O46033   6.517   3.418   8.564
15264WAT     H146034   6.466   3.417   8.478
15264WAT     H246035   6.550   3.326   8.584
15265WAT      O46036   3.089   5.721   9.328
15265WAT     H146037   3.089   5.730   9.428
15265WAT     H246038   3.018   5.779   9.290
15266WAT      O46039   4.325   5.451   2.812
15266WAT     H146040   4.259   5.377   2.830
15266WAT     H246041   4.309   5.489   2.721
15267WAT      O46042   1.125   4.135   6.018
15267WAT     H146043   1.169   4.222   6.040
15267WAT     H246044   1.031   4.135   6.051
15268WAT      O46045   9.423   9.704   0.971
15268WAT     H146046   9.435   9.607   0.991
15268WAT     H246047   9.331   9.719   0.935
15269WAT      O46048   6.188   2.920   4.496
15269WAT     H146049   6.185   2.846   4.429
15269WAT     H246050   6.251   2.896   4.570
15270WAT      O46051   1.740   8.781   0.310
15270WAT     H146052   1.695   8.833   0.237
15270WAT     H246053   1.697   8.804   0.397
15271WAT      O46054   6.787   4.538   3.063
15271WAT     H146055   6.841   4.546   2.980
15271WAT     H246056   6.807   4.450   3.107
15272WAT      O46057   6.115   5.622   3.296
15272WAT     H146058   6.099   5.701   3.355
15272WAT     H246059   6.116   5.651   3.201
15273WAT      O46060   5.353   1.433   6.389
15273WAT     H146061   5.269   1.486   6.386
15273WAT     H246062   5.367   1.398   6.482
15274WAT      O46063   2.191   0.143   5.168
15274WAT     H146064   2.144   0.155   5.256
15274WAT     H246065   2.151   0.065   5.120
15275WAT      O46066   5.533   1.737   1.010
15275WAT     H146067   5.615   1.691   0.976
15275WAT     H246068   5.555   1.790   1.092
15276WAT      O46069   6.757   8.483   2.976
15276WAT     H146070   6.775   8.501   3.073
15276WAT     H246071   6.669   8.436   2.967
15277WAT      O46072   4.145   5.886   8.463
15277WAT     H146073   4.178   5.948   8.392
15277WAT     H246074   4.213   5.880   8.536
15278WAT      O46075   7.179   5.127   8.393
15278WAT     H146076   7.121   5.052   8.362
15278WAT     H246077   7.271   5.117   8.355
15279WAT      O46078   7.915   9.460   1.217
15279WAT     H146079   8.011   9.454   1.243
15279WAT     H246080   7.864   9.384   1.259
15280WAT      O46081   0.035   0.604   1.562
15280WAT     H146082   0.106   0.644   1.620
15280WAT     H246083   0.063   0.610   1.466
15281WAT      O46084   2.785   0.063   0.470
15281WAT     H146085   2.813   0.158   0.453
15281WAT     H246086   2.702   0.044   0.418
15282WAT      O46087   4.741   9.107   1.224
15282WAT     H146088   4.711   9.078   1.315
15282WAT     H246089   4.834   9.073   1.208
15283WAT      O46090   6.876   5.905   7.645
15283WAT     H146091   6.812   5.844   7.598
15283WAT     H246092   6.930   5.852   7.710
15284WAT      O46093   4.328   8.243   1.415
15284WAT     H146094   4.327   8.261   1.514
15284WAT     H246095   4.233   8.233   1.383
15285WAT      O46096   5.811   3.246   1.691
15285WAT     H146097   5.910   3.251   1.678
15285WAT     H246098   5.790   3.191   1.772
15286WAT      O46099   3.323   1.053   4.006
15286WAT     H146100   3.288   1.062   4.099
15286WAT     H246101   3.301   0.962   3.971
15287WAT      O46102   5.560   6.782   2.696
15287WAT     H146103   5.600   6.865   2.736
15287WAT     H246104   5.605   6.762   2.609
15288WAT      O46105   6.068   4.013   4.874
15288WAT     H146106   6.157   3.977   4.902
15288WAT     H246107   6.019   3.943   4.822
15289WAT      O46108   4.543   2.103   5.865
15289WAT     H146109   4.514   2.075   5.774
15289WAT     H246110   4.614   2.174   5.857
15290WAT      O46111   6.931   1.297   9.279
15290WAT     H146112   6.846   1.293   9.331
15290WAT     H246113   6.913   1.275   9.183
15291WAT      O46114   8.495   8.784   0.596
15291WAT     H146115   8.526   8.750   0.507
15291WAT     H246116   8.396   8.774   0.603
15292WAT      O46117   2.067   6.779   7.924
15292WAT     H146118   1.984   6.790   7.871
15292WAT     H246119   2.145   6.815   7.873
15293WAT      O46120   6.038   4.180   2.005
15293WAT     H146121   5.990   4.099   2.040
15293WAT     H246122   5.989   4.217   1.927
15294WAT      O46123   4.439   7.340   6.830
15294WAT     H146124   4.372   7.291   6.887
15294WAT     H246125   4.457   7.287   6.747
15295WAT      O46126   8.504   3.839   3.254
15295WAT     H146127   8.479   3.764   3.193
15295WAT     H246128   8.426   3.864   3.311
15296WAT      O46129   2.546   8.771   4.804
15296WAT     H146130   2.531   8.822   4.889
15296WAT     H246131   2.473   8.704   4.792
15297WAT      O46132   9.710   7.731   8.604
15297WAT     H146133   9.789   7.685   8.563
15297WAT     H246134   9.731   7.828   8.618
15298WAT      O46135   8.470   9.100   8.101
15298WAT     H146136   8.523   9.164   8.044
15298WAT     H246137   8.427   9.032   8.042
15299WAT      O46138   8.078   4.516   3.270
15299WAT     H146139   7.992   4.565   3.278
15299WAT     H246140   8.118   4.532   3.180
15300WAT      O46141   8.178   4.014   2.819
15300WAT     H146142   8.190   3.917   2.802
15300WAT     H246143   8.096   4.046   2.771
15301WAT      O46144   6.117   2.131   4.066
15301WAT     H146145   6.153   2.103   3.977
15301WAT     H246146   6.099   2.229   4.065
15302WAT      O46147   1.246   9.821   5.578
15302WAT     H146148   1.342   9.847   5.563
15302WAT     H246149   1.196   9.830   5.491
15303WAT      O46150   0.400   4.159   4.353
15303WAT     H146151   0.371   4.086   4.292
15303WAT     H246152   0.348   4.155   4.438
15304WAT      O46153   1.521   4.011   4.843
15304WAT     H146154   1.511   4.093   4.899
15304WAT     H246155   1.481   3.932   4.891
15305WAT      O46156   3.306   1.898   3.455
15305WAT     H146157   3.316   1.922   3.358
15305WAT     H246158   3.345   1.808   3.471
15306WAT      O46159   1.681   0.722   9.231
15306WAT     H146160   1.611   0.677   9.176
15306WAT     H246161   1.767   0.671   9.225
15307WAT      O46162   2.175   0.667   3.554
15307WAT     H146163   2.267   0.704   3.541
15307WAT     H246164   2.178   0.593   3.620
15308WAT      O46165   7.980   6.808   2.416
15308WAT     H146166   8.072   6.771   2.408
15308WAT     H246167   7.985   6.903   2.448
15309WAT      O46168   3.265   6.765   3.015
15309WAT     H146169   3.346   6.796   3.066
15309WAT     H246170   3.214   6.699   3.069
15310WAT      O46171   7.548   7.709   7.469
15310WAT     H146172   7.603   7.687   7.549
15310WAT     H246173   7.502   7.797   7.483
15311WAT      O46174   2.983   0.254   4.843
15311WAT     H146175   3.033   0.201   4.911
15311WAT     H246176   2.917   0.194   4.796
15312WAT      O46177   9.230   4.981   5.469
15312WAT     H146178   9.192   5.057   5.416
15312WAT     H246179   9.185   4.896   5.443
15313WAT      O46180   2.207   4.402   2.535
15313WAT     H146181   2.146   4.366   2.606
15313WAT     H246182   2.239   4.327   2.478
15314WAT      O46183   2.972   9.840   8.224
15314WAT     H146184   2.926   9.928   8.230
15314WAT     H246185   2.923   9.773   8.280
15315WAT      O46186   6.715   4.271   9.011
15315WAT     H146187   6.699   4.351   8.952
15315WAT     H246188   6.757   4.198   8.957
15316WAT      O46189   3.762   8.942   3.568
15316WAT     H146190   3.773   8.884   3.487
15316WAT     H246191   3.780   8.887   3.650
15317WAT      O46192   8.481   3.993   9.282
15317WAT     H146193   8.579   3.981   9.272
15317WAT     H246194   8.433   3.925   9.226
15318WAT      O46195   1.115   5.653   1.848
15318WAT     H146196   1.089   5.606   1.764
15318WAT     H246197   1.206   5.623   1.877
15319WAT      O46198   3.025   7.439   4.144
15319WAT     H146199   3.014   7.504   4.219
15319WAT     H246200   3.056   7.351   4.181
15320WAT      O46201   2.237   4.227   7.038
15320WAT     H146202   2.195   4.269   7.118
15320WAT     H246203   2.323   4.183   7.064
15321WAT      O46204   3.212   5.130   3.599
15321WAT     H146205   3.250   5.220   3.619
15321WAT     H246206   3.124   5.140   3.553
15322WAT      O46207   2.950   6.105   3.325
15322WAT     H146208   2.967   6.012   3.356
15322WAT     H246209   3.034   6.145   3.289
15323WAT      O46210   3.581   7.677   5.118
15323WAT     H146211   3.648   7.638   5.182
15323WAT     H246212   3.580   7.777   5.127
15324WAT      O46213   2.858   2.949   9.107
15324WAT     H146214   2.781   2.988   9.056
15324WAT     H246215   2.924   2.911   9.043
15325WAT      O46216   3.792   0.709   2.126
15325WAT     H146217   3.851   0.669   2.196
15325WAT     H246218   3.805   0.809   2.125
15326WAT      O46219   5.504   5.652   3.384
15326WAT     H146220   5.473   5.557   3.373
15326WAT     H246221   5.516   5.694   3.294
15327WAT      O46222   6.832   8.201   6.705
15327WAT     H146223   6.791   8.115   6.737
15327WAT     H246224   6.932   8.191   6.705
15328WAT      O46225   1.035   0.674   1.580
15328WAT     H146226   0.986   0.756   1.611
15328WAT     H246227   1.069   0.624   1.660
15329WAT      O46228   2.637   2.525   1.402
15329WAT     H146229   2.601   2.472   1.479
15329WAT     H246230   2.576   2.602   1.384
15330WAT      O46231   3.033   8.625   7.695
15330WAT     H146232   3.018   8.634   7.597
15330WAT     H246233   3.090   8.701   7.727
15331WAT      O46234   6.984   6.093   5.663
15331WAT     H146235   6.956   6.017   5.603
15331WAT     H246236   6.929   6.092   5.746
15332WAT      O46237   2.737   7.698   0.198
15332WAT     H146238   2.696   7.781   0.159
15332WAT     H246239   2.836   7.701   0.182
15333WAT      O46240   3.135   8.756   8.750
15333WAT     H146241   3.210   8.802   8.799
15333WAT     H246242   3.090   8.822   8.690
15334WAT      O46243   9.088   1.977   9.620
15334WAT     H146244   9.170   1.984   9.562
15334WAT     H246245   9.062   2.069   9.651
15335WAT      O46246   2.424   6.850   3.974
15335WAT     H146247   2.357   6.893   3.913
15335WAT     H246248   2.393   6.859   4.069
15336WAT      O46249   6.371   6.399   3.842
15336WAT     H146250   6.390   6.381   3.746
15336WAT     H246251   6.297   6.466   3.849
15337WAT      O46252   8.256   1.015   4.612
15337WAT     H146253   8.284   0.944   4.678
15337WAT     H246254   8.276   0.983   4.519
15338WAT      O46255   1.664   6.027   6.197
15338WAT     H146256   1.712   5.954   6.246
15338WAT     H246257   1.653   6.106   6.257
15339WAT      O46258   2.078   6.554   6.322
15339WAT     H146259   2.135   6.635   6.308
15339WAT     H246260   2.024   6.565   6.405
15340WAT      O46261   8.768   6.569   3.726
15340WAT     H146262   8.796   6.636   3.657
15340WAT     H246263   8.688   6.519   3.692
15341WAT      O46264   2.378   9.559   4.625
15341WAT     H146265   2.452   9.492   4.632
15341WAT     H246266   2.407   9.645   4.668
15342WAT      O46267   4.332   2.539   9.678
15342WAT     H146268   4.310   2.442   9.668
15342WAT     H246269   4.264   2.582   9.737
15343WAT      O46270   5.241   7.159   3.770
15343WAT     H146271   5.297   7.214   3.832
15343WAT     H246272   5.147   7.193   3.771
15344WAT      O46273   5.209   8.519   9.281
15344WAT     H146274   5.119   8.479   9.300
15344WAT     H246275   5.198   8.617   9.263
15345WAT      O46276   4.470   0.896   6.789
15345WAT     H146277   4.514   0.815   6.827
15345WAT     H246278   4.372   0.893   6.808
15346WAT      O46279   0.907   8.986   6.329
15346WAT     H146280   0.812   8.975   6.357
15346WAT     H246281   0.950   9.058   6.383
15347WAT      O46282   3.627   4.231   7.909
15347WAT     H146283   3.571   4.191   7.981
15347WAT     H246284   3.606   4.188   7.822
15348WAT      O46285   3.848   5.478   2.947
15348WAT     H146286   3.772   5.519   2.997
15348WAT     H246287   3.900   5.550   2.901
15349WAT      O46288   4.316   6.557   7.455
15349WAT     H146289   4.408   6.573   7.491
15349WAT     H246290   4.316   6.477   7.396
15350WAT      O46291   5.577   6.621   7.498
15350WAT     H146292   5.677   6.619   7.503
15350WAT     H246293   5.549   6.647   7.405
15351WAT      O46294   0.541   0.295   1.694
15351WAT     H146295   0.609   0.243   1.744
15351WAT     H246296   0.553   0.281   1.596
15352WAT      O46297   0.684   8.118   3.687
15352WAT     H146298   0.642   8.173   3.759
15352WAT     H246299   0.620   8.109   3.611
15353WAT      O46300   2.957   9.577   1.638
15353WAT     H146301   3.053   9.603   1.631
15353WAT     H246302   2.910   9.639   1.701
15354WAT      O46303   4.543   1.149   0.149
15354WAT     H146304   4.523   1.228   0.208
15354WAT     H246305   4.642   1.142   0.136
15355WAT      O46306   1.568   1.413   3.140
15355WAT     H146307   1.641   1.448   3.198
15355WAT     H246308   1.484   1.464   3.159
15356WAT      O46309   3.589   6.612   6.818
15356WAT     H146310   3.494   6.603   6.787
15356WAT     H246311   3.597   6.692   6.876
15357WAT      O46312   7.713   0.280   3.944
15357WAT     H146313   7.687   0.342   3.870
15357WAT     H246314   7.776   0.327   4.006
15358WAT      O46315   9.111   2.783   4.181
15358WAT     H146316   9.196   2.834   4.166
15358WAT     H246317   9.131   2.700   4.233
15359WAT      O46318   9.393   2.638   2.666
15359WAT     H146319   9.349   2.618   2.754
15359WAT     H246320   9.391   2.557   2.608
15360WAT      O46321   1.290   5.480   5.664
15360WAT     H146322   1.223   5.554   5.677
15360WAT     H246323   1.367   5.494   5.725
15361WAT      O46324   8.004   1.808   1.429
15361WAT     H146325   7.984   1.759   1.513
15361WAT     H246326   7.967   1.901   1.435
15362WAT      O46327   6.883   7.557   9.482
15362WAT     H146328   6.804   7.574   9.542
15362WAT     H246329   6.882   7.461   9.454
15363WAT      O46330   9.435   0.174   6.929
15363WAT     H146331   9.392   0.139   6.846
15363WAT     H246332   9.475   0.264   6.910
15364WAT      O46333   2.427   5.206   8.048
15364WAT     H146334   2.377   5.139   7.994
15364WAT     H246335   2.510   5.165   8.085
15365WAT      O46336   4.999   5.222   3.160
15365WAT     H146337   5.094   5.238   3.133
15365WAT     H246338   4.995   5.201   3.258
15366WAT      O46339   1.447   8.724   7.354
15366WAT     H146340   1.350   8.743   7.372
15366WAT     H246341   1.486   8.800   7.301
15367WAT      O46342   3.063   9.221   3.965
15367WAT     H146343   3.091   9.299   3.908
15367WAT     H246344   2.973   9.240   4.005
15368WAT      O46345   0.762   7.975   7.607
15368WAT     H146346   0.821   8.054   7.623
15368WAT     H246347   0.714   7.986   7.520
15369WAT      O46348   7.773   4.431   9.533
15369WAT     H146349   7.816   4.476   9.611
15369WAT     H246350   7.805   4.336   9.528
15370WAT      O46351   4.611   8.034   3.254
15370WAT     H146352   4.531   8.087   3.226
15370WAT     H246353   4.582   7.945   3.287
15371WAT      O46354   9.205   4.016   5.874
15371WAT     H146355   9.171   4.066   5.954
15371WAT     H246356   9.191   4.071   5.792
15372WAT      O46357   6.131   3.895   7.071
15372WAT     H146358   6.079   3.846   7.141
15372WAT     H246359   6.111   3.993   7.076
15373WAT      O46360   4.662   9.318   7.099
15373WAT     H146361   4.749   9.365   7.111
15373WAT     H246362   4.606   9.330   7.181
15374WAT      O46363   5.978   8.341   6.816
15374WAT     H146364   5.993   8.432   6.856
15374WAT     H246365   5.884   8.336   6.781
15375WAT      O46366   1.229   3.248   3.544
15375WAT     H146367   1.187   3.193   3.616
15375WAT     H246368   1.318   3.281   3.575
15376WAT      O46369   2.721   9.566   7.581
15376WAT     H146370   2.684   9.630   7.648
15376WAT     H246371   2.649   9.506   7.548
15377WAT      O46372   7.243   6.639   2.652
15377WAT     H146373   7.150   6.620   2.683
15377WAT     H246374   7.241   6.665   2.555
15378WAT      O46375   2.015   5.691   1.453
15378WAT     H146376   2.081   5.678   1.527
15378WAT     H246377   2.054   5.655   1.368
15379WAT      O46378   6.035   7.881   6.930
15379WAT     H146379   6.029   7.886   7.030
15379WAT     H246380   5.947   7.852   6.893
15380WAT      O46381   1.146   0.055   6.651
15380WAT     H146382   1.233   0.038   6.696
15380WAT     H246383   1.073   0.006   6.698
15381WAT      O46384   6.647   2.480   9.470
15381WAT     H146385   6.636   2.509   9.565
15381WAT     H246386   6.739   2.505   9.438
15382WAT      O46387   5.490   9.067   8.184
15382WAT     H146388   5.572   9.039   8.135
15382WAT     H246389   5.409   9.035   8.136
15383WAT      O46390   2.820   1.291   2.147
15383WAT     H146391   2.744   1.259   2.204
15383WAT     H246392   2.829   1.390   2.156
15384WAT      O46393   6.342   4.633   2.857
15384WAT     H146394   6.402   4.603   2.931
15384WAT     H246395   6.302   4.553   2.812
15385WAT      O46396   0.137   2.608   9.095
15385WAT     H146397   0.055   2.665   9.086
15385WAT     H246398   0.219   2.664   9.086
15386WAT      O46399   0.975   1.892   5.448
15386WAT     H146400   0.924   1.938   5.521
15386WAT     H246401   0.910   1.852   5.382
15387WAT      O46402   8.954   1.405   2.427
15387WAT     H146403   8.857   1.424   2.410
15387WAT     H246404   8.996   1.371   2.343
15388WAT      O46405   5.587   3.957   6.336
15388WAT     H146406   5.565   4.054   6.331
15388WAT     H246407   5.672   3.944   6.388
15389WAT      O46408   1.343   6.012   3.887
15389WAT     H146409   1.296   6.042   3.804
15389WAT     H246410   1.280   6.013   3.964
15390WAT      O46411   1.618   0.616   7.303
15390WAT     H146412   1.610   0.516   7.311
15390WAT     H246413   1.701   0.646   7.350
15391WAT      O46414   4.412   4.010   3.090
15391WAT     H146415   4.328   4.057   3.062
15391WAT     H246416   4.486   4.033   3.027
15392WAT      O46417   4.037   0.025   2.233
15392WAT     H146418   4.109   0.093   2.250
15392WAT     H246419   4.068  -0.038   2.161
15393WAT      O46420   1.819   5.636   6.893
15393WAT     H146421   1.871   5.683   6.964
15393WAT     H246422   1.869   5.639   6.807
15394WAT      O46423   9.736   9.379   2.486
15394WAT     H146424   9.758   9.409   2.393
15394WAT     H246425   9.650   9.421   2.515
15395WAT      O46426   1.644   7.122   4.971
15395WAT     H146427   1.546   7.138   4.980
15395WAT     H246428   1.661   7.065   4.891
15396WAT      O46429   3.932   4.267   1.065
15396WAT     H146430   3.905   4.268   0.969
15396WAT     H246431   3.855   4.234   1.121
15397WAT      O46432   5.391   5.388   2.666
15397WAT     H146433   5.320   5.446   2.626
15397WAT     H246434   5.480   5.412   2.628
15398WAT      O46435   3.067   1.115   2.840
15398WAT     H146436   3.029   1.107   2.932
15398WAT     H246437   2.997   1.150   2.778
15399WAT      O46438   8.562   3.784   0.109
15399WAT     H146439   8.574   3.688   0.086
15399WAT     H246440   8.529   3.792   0.203
15400WAT      O46441   3.213   8.811   5.023
15400WAT     H146442   3.296   8.767   4.989
15400WAT     H246443   3.134   8.758   4.995
15401WAT      O46444   1.616   2.731   4.445
15401WAT     H146445   1.648   2.797   4.377
15401WAT     H246446   1.672   2.738   4.528
15402WAT      O46447   9.632   8.866   9.589
15402WAT     H146448   9.730   8.849   9.584
15402WAT     H246449   9.611   8.915   9.674
15403WAT      O46450   0.667   3.387   3.216
15403WAT     H146451   0.591   3.452   3.209
15403WAT     H246452   0.651   3.326   3.293
15404WAT      O46453   4.188   2.881   7.324
15404WAT     H146454   4.229   2.907   7.236
15404WAT     H246455   4.225   2.939   7.396
15405WAT      O46456   4.665   2.524   1.033
15405WAT     H146457   4.729   2.594   1.064
15405WAT     H246458   4.635   2.469   1.110
15406WAT      O46459   7.347   9.228   5.813
15406WAT     H146460   7.274   9.284   5.775
15406WAT     H246461   7.352   9.242   5.912
15407WAT      O46462   1.551   6.059   5.952
15407WAT     H146463   1.583   6.062   6.047
15407WAT     H246464   1.478   5.992   5.944
15408WAT      O46465   4.640   7.173   8.787
15408WAT     H146466   4.571   7.122   8.837
15408WAT     H246467   4.597   7.227   8.715
15409WAT      O46468   2.346   6.419   4.985
15409WAT     H146469   2.414   6.352   5.016
15409WAT     H246470   2.341   6.494   5.051
15410WAT      O46471   8.098   4.922   3.441
15410WAT     H146472   8.088   4.838   3.494
15410WAT     H246473   8.123   4.900   3.347
15411WAT      O46474   1.214   9.087   3.271
15411WAT     H146475   1.306   9.125   3.259
15411WAT     H246476   1.180   9.054   3.183
15412WAT      O46477   9.881   3.364   7.161
15412WAT     H146478   9.816   3.397   7.093
15412WAT     H246479   9.972   3.400   7.140
15413WAT      O46480   3.288   4.630   8.749
15413WAT     H146481   3.274   4.640   8.847
15413WAT     H246482   3.352   4.555   8.732
15414WAT      O46483   6.792   5.241   3.200
15414WAT     H146484   6.709   5.228   3.145
15414WAT     H246485   6.807   5.338   3.216
15415WAT      O46486   5.266   4.313   6.867
15415WAT     H146487   5.342   4.329   6.930
15415WAT     H246488   5.283   4.230   6.813
15416WAT      O46489   3.781   5.809   7.680
15416WAT     H146490   3.845   5.755   7.733
15416WAT     H246491   3.709   5.844   7.740
15417WAT      O46492   4.821   8.393   3.817
15417WAT     H146493   4.800   8.307   3.771
15417WAT     H246494   4.740   8.425   3.868
15418WAT      O46495   2.925   7.548   8.590
15418WAT     H146496   2.842   7.594   8.621
15418WAT     H246497   2.926   7.545   8.490
15419WAT      O46498   4.967   4.315   3.617
15419WAT     H146499   4.925   4.231   3.653
15419WAT     H246500   4.905   4.392   3.631
15420WAT      O46501   5.688   8.138   2.456
15420WAT     H146502   5.767   8.197   2.473
15420WAT     H246503   5.610   8.169   2.511
15421WAT      O46504   2.597   9.602   0.974
15421WAT     H146505   2.669   9.569   0.913
15421WAT     H246506   2.625   9.587   1.069
15422WAT      O46507   7.321   8.156   3.444
15422WAT     H146508   7.366   8.233   3.399
15422WAT     H246509   7.379   8.123   3.519
15423WAT      O46510   0.211   4.650   0.148
15423WAT     H146511   0.246   4.609   0.064
15423WAT     H246512   0.154   4.729   0.125
15424WAT      O46513   0.676   2.676   9.698
15424WAT     H146514   0.677   2.582   9.732
15424WAT     H246515   0.582   2.702   9.674
15425WAT      O46516   3.143   8.950   5.624
15425WAT     H146517   3.081   8.895   5.568
15425WAT     H246518   3.149   8.910   5.716
15426WAT      O46519   6.864   3.279   6.427
15426WAT     H146520   6.829   3.346   6.362
15426WAT     H246521   6.813   3.194   6.419
15427WAT      O46522   5.394   2.129   6.916
15427WAT     H146523   5.403   2.029   6.914
15427WAT     H246524   5.333   2.158   6.843
15428WAT      O46525   6.808   8.869   1.684
15428WAT     H146526   6.810   8.890   1.781
15428WAT     H246527   6.719   8.892   1.645
15429WAT      O46528   1.549   7.205   9.146
15429WAT     H146529   1.634   7.203   9.093
15429WAT     H246530   1.569   7.186   9.242
15430WAT      O46531   5.010   2.387   3.121
15430WAT     H146532   5.025   2.469   3.176
15430WAT     H246533   5.076   2.384   3.046
15431WAT      O46534   8.016   9.131   7.569
15431WAT     H146535   7.923   9.113   7.601
15431WAT     H246536   8.016   9.209   7.507
15432WAT      O46537   7.977   5.264   6.021
15432WAT     H146538   7.924   5.191   5.979
15432WAT     H246539   7.961   5.350   5.973
15433WAT      O46540   0.093   0.232   4.456
15433WAT     H146541   0.192   0.240   4.451
15433WAT     H246542   0.050   0.317   4.426
15434WAT      O46543   0.600   4.546   0.636
15434WAT     H146544   0.561   4.504   0.554
15434WAT     H246545   0.655   4.479   0.685
15435WAT      O46546   2.707   3.136   0.951
15435WAT     H146547   2.680   3.214   0.894
15435WAT     H246548   2.646   3.129   1.029
15436WAT      O46549   4.680   5.114   9.123
15436WAT     H146550   4.775   5.133   9.148
15436WAT     H246551   4.646   5.187   9.064
15437WAT      O46552   3.644   0.426   6.138
15437WAT     H146553   3.632   0.365   6.059
15437WAT     H246554   3.662   0.371   6.219
15438WAT      O46555   1.024   0.874   0.754
15438WAT     H146556   1.007   0.926   0.671
15438WAT     H246557   0.945   0.882   0.815
15439WAT      O46558   8.320   3.979   7.998
15439WAT     H146559   8.313   3.918   7.920
15439WAT     H246560   8.301   4.073   7.970
15440WAT      O46561   1.243   9.701   4.862
15440WAT     H146562   1.254   9.800   4.861
15440WAT     H246563   1.202   9.671   4.776
15441WAT      O46564   8.152   5.804   4.044
15441WAT     H146565   8.145   5.826   4.141
15441WAT     H246566   8.175   5.887   3.992
15442WAT      O46567   8.315   1.671   7.807
15442WAT     H146568   8.280   1.764   7.802
15442WAT     H246569   8.253   1.614   7.861
15443WAT      O46570   8.198   4.927   4.706
15443WAT     H146571   8.137   4.977   4.643
15443WAT     H246572   8.290   4.965   4.699
15444WAT      O46573   8.339   1.408   8.467
15444WAT     H146574   8.335   1.375   8.372
15444WAT     H246575   8.408   1.480   8.474
15445WAT      O46576   0.966   9.455   1.461
15445WAT     H146577   1.025   9.528   1.425
15445WAT     H246578   0.874   9.466   1.425
15446WAT      O46579   8.848   4.222   0.175
15446WAT     H146580   8.846   4.154   0.101
15446WAT     H246581   8.897   4.303   0.144
15447WAT      O46582   0.497   0.595   4.016
15447WAT     H146583   0.490   0.652   3.935
15447WAT     H246584   0.561   0.520   4.000
15448WAT      O46585   7.257   8.200   0.422
15448WAT     H146586   7.227   8.219   0.329
15448WAT     H246587   7.236   8.104   0.445
15449WAT      O46588   0.488   7.705   8.133
15449WAT     H146589   0.521   7.623   8.086
15449WAT     H246590   0.390   7.716   8.116
15450WAT      O46591   3.211   8.480   2.889
15450WAT     H146592   3.233   8.568   2.848
15450WAT     H246593   3.279   8.412   2.861
15451WAT      O46594   4.473   9.480   1.893
15451WAT     H146595   4.449   9.427   1.812
15451WAT     H246596   4.451   9.576   1.878
15452WAT      O46597   3.128   2.464   9.211
15452WAT     H146598   3.096   2.490   9.302
15452WAT     H246599   3.198   2.393   9.220
15453WAT      O46600   1.279   0.286   8.492
15453WAT     H146601   1.376   0.311   8.492
15453WAT     H246602   1.235   0.322   8.574
15454WAT      O46603   4.898   2.876   2.869
15454WAT     H146604   4.939   2.885   2.959
15454WAT     H246605   4.830   2.949   2.856
15455WAT      O46606   1.383   8.934   1.085
15455WAT     H146607   1.375   8.885   0.998
15455WAT     H246608   1.348   9.027   1.074
15456WAT      O46609   3.368   2.858   9.003
15456WAT     H146610   3.336   2.763   9.005
15456WAT     H246611   3.436   2.868   8.930
15457WAT      O46612   4.584   5.015   4.233
15457WAT     H146613   4.516   4.942   4.236
15457WAT     H246614   4.539   5.104   4.236
15458WAT      O46615   1.621   5.455   5.348
15458WAT     H146616   1.562   5.425   5.422
15458WAT     H246617   1.654   5.548   5.367
15459WAT      O46618   6.321   3.734   3.537
15459WAT     H146619   6.282   3.642   3.548
15459WAT     H246620   6.271   3.798   3.594
15460WAT      O46621   0.847   8.903   0.299
15460WAT     H146622   0.842   8.905   0.398
15460WAT     H246623   0.790   8.829   0.264
15461WAT      O46624   6.115   4.111   8.649
15461WAT     H146625   6.177   4.187   8.631
15461WAT     H246626   6.069   4.085   8.563
15462WAT      O46627   5.867   0.907   9.567
15462WAT     H146628   5.825   0.936   9.481
15462WAT     H246629   5.875   0.807   9.569
15463WAT      O46630   1.728   2.380   1.034
15463WAT     H146631   1.630   2.365   1.049
15463WAT     H246632   1.771   2.294   1.008
15464WAT      O46633   5.484   6.170   7.314
15464WAT     H146634   5.501   6.097   7.380
15464WAT     H246635   5.566   6.225   7.302
15465WAT      O46636   1.375   7.510   4.515
15465WAT     H146637   1.366   7.489   4.613
15465WAT     H246638   1.327   7.596   4.496
15466WAT      O46639   7.910   2.172   0.447
15466WAT     H146640   7.958   2.086   0.461
15466WAT     H246641   7.893   2.216   0.535
15467WAT      O46642   1.197   0.336   1.066
15467WAT     H146643   1.288   0.369   1.092
15467WAT     H246644   1.193   0.237   1.080
15468WAT      O46645   1.421   1.178   2.757
15468WAT     H146646   1.354   1.215   2.693
15468WAT     H246647   1.375   1.153   2.842
15469WAT      O46648   5.075   1.959   3.146
15469WAT     H146649   5.041   1.865   3.145
15469WAT     H246650   4.997   2.021   3.152
15470WAT      O46651   2.593   2.028   2.080
15470WAT     H146652   2.545   1.977   2.151
15470WAT     H246653   2.645   2.103   2.123
15471WAT      O46654   1.336   8.117   7.249
15471WAT     H146655   1.329   8.077   7.340
15471WAT     H246656   1.312   8.214   7.253
15472WAT      O46657   8.994   1.502   2.707
15472WAT     H146658   8.898   1.522   2.725
15472WAT     H246659   9.002   1.444   2.627
15473WAT      O46660   5.637   8.490   5.165
15473WAT     H146661   5.568   8.420   5.183
15473WAT     H246662   5.595   8.580   5.174
15474WAT      O46663   0.089   3.723   5.941
15474WAT     H146664   0.125   3.636   5.908
15474WAT     H246665  -0.003   3.710   5.977
15475WAT      O46666   3.395   2.472   0.121
15475WAT     H146667   3.341   2.542   0.167
15475WAT     H246668   3.492   2.486   0.140
15476WAT      O46669   4.372   4.711   1.308
15476WAT     H146670   4.332   4.673   1.224
15476WAT     H246671   4.415   4.638   1.360
15477WAT      O46672   1.409   7.628   7.508
15477WAT     H146673   1.495   7.576   7.512
15477WAT     H246674   1.428   7.722   7.481
15478WAT      O46675   4.001   2.642   2.138
15478WAT     H146676   3.934   2.604   2.203
15478WAT     H246677   4.078   2.579   2.130
15479WAT      O46678   3.138   8.278   8.792
15479WAT     H146679   3.160   8.253   8.697
15479WAT     H246680   3.091   8.202   8.836
15480WAT      O46681   5.932   1.904   3.310
15480WAT     H146682   6.012   1.847   3.327
15480WAT     H246683   5.866   1.893   3.385
15481WAT      O46684   8.158   0.757   2.402
15481WAT     H146685   8.166   0.770   2.303
15481WAT     H246686   8.067   0.723   2.425
15482WAT      O46687   8.135   4.772   7.905
15482WAT     H146688   8.151   4.706   7.978
15482WAT     H246689   8.223   4.799   7.865
15483WAT      O46690   7.709   4.293   2.856
15483WAT     H146691   7.719   4.373   2.915
15483WAT     H246692   7.707   4.323   2.760
15484WAT      O46693   5.533   6.606   5.362
15484WAT     H146694   5.628   6.594   5.330
15484WAT     H246695   5.470   6.586   5.287
15485WAT      O46696   4.503   5.406   7.122
15485WAT     H146697   4.418   5.427   7.074
15485WAT     H246698   4.483   5.388   7.219
15486WAT      O46699   2.001   4.836   0.541
15486WAT     H146700   1.920   4.895   0.530
15486WAT     H246701   1.978   4.743   0.515
15487WAT      O46702   7.047   2.844   7.634
15487WAT     H146703   7.121   2.821   7.698
15487WAT     H246704   6.975   2.775   7.641
15488WAT      O46705   7.845   4.926   8.132
15488WAT     H146706   7.870   4.908   8.227
15488WAT     H246707   7.856   4.842   8.078
15489WAT      O46708   7.374   4.794   8.189
15489WAT     H146709   7.443   4.810   8.119
15489WAT     H246710   7.402   4.718   8.247
15490WAT      O46711   3.207   1.340   1.412
15490WAT     H146712   3.253   1.399   1.345
15490WAT     H246713   3.239   1.363   1.504
15491WAT      O46714   6.407   2.876   3.266
15491WAT     H146715   6.314   2.869   3.229
15491WAT     H246716   6.416   2.962   3.316
15492WAT      O46717   5.120   6.389   4.969
15492WAT     H146718   5.116   6.319   4.898
15492WAT     H246719   5.210   6.432   4.967
15493WAT      O46720   7.837   9.472   0.922
15493WAT     H146721   7.799   9.381   0.903
15493WAT     H246722   7.870   9.475   1.016
15494WAT      O46723   3.628   3.801   4.121
15494WAT     H146724   3.721   3.820   4.091
15494WAT     H246725   3.602   3.868   4.191
15495WAT      O46726   0.109   4.545   9.089
15495WAT     H146727   0.116   4.456   9.044
15495WAT     H246728   0.154   4.614   9.032
15496WAT      O46729   4.462   4.772   6.794
15496WAT     H146730   4.471   4.703   6.721
15496WAT     H246731   4.552   4.811   6.813
15497WAT      O46732   0.493   6.355   8.467
15497WAT     H146733   0.585   6.317   8.472
15497WAT     H246734   0.458   6.371   8.560
15498WAT      O46735   4.626   6.270   4.272
15498WAT     H146736   4.586   6.229   4.191
15498WAT     H246737   4.621   6.370   4.265
15499WAT      O46738   8.393   3.943   0.615
15499WAT     H146739   8.426   4.004   0.687
15499WAT     H246740   8.390   3.849   0.650
15500WAT      O46741   9.863   1.614   5.851
15500WAT     H146742   9.812   1.611   5.766
15500WAT     H246743   9.847   1.702   5.896
15501WAT      O46744   8.914   2.952   6.182
15501WAT     H146745   8.831   2.980   6.134
15501WAT     H246746   8.893   2.933   6.278
15502WAT      O46747   3.859   9.697   8.374
15502WAT     H146748   3.820   9.668   8.461
15502WAT     H246749   3.923   9.628   8.341
15503WAT      O46750   6.792   1.040   8.272
15503WAT     H146751   6.875   1.057   8.219
15503WAT     H246752   6.812   1.047   8.370
15504WAT      O46753   1.464   8.183   6.812
15504WAT     H146754   1.509   8.246   6.876
15504WAT     H246755   1.366   8.182   6.830
15505WAT      O46756   5.623   0.477   2.331
15505WAT     H146757   5.646   0.523   2.245
15505WAT     H246758   5.661   0.530   2.407
15506WAT      O46759   6.205   1.877   9.555
15506WAT     H146760   6.145   1.803   9.526
15506WAT     H246761   6.297   1.842   9.571
15507WAT      O46762   1.946   2.845   7.348
15507WAT     H146763   1.876   2.781   7.380
15507WAT     H246764   2.000   2.802   7.275
15508WAT      O46765   1.633   0.904   7.974
15508WAT     H146766   1.561   0.917   7.906
15508WAT     H246767   1.683   0.820   7.954
15509WAT      O46768   3.494   0.630   4.235
15509WAT     H146769   3.417   0.618   4.297
15509WAT     H246770   3.473   0.702   4.169
15510WAT      O46771   6.677   2.734   2.921
15510WAT     H146772   6.767   2.778   2.917
15510WAT     H246773   6.606   2.804   2.924
15511WAT      O46774   6.948   6.906   4.915
15511WAT     H146775   7.005   6.837   4.870
15511WAT     H246776   6.889   6.951   4.847
15512WAT      O46777   4.459   3.646   4.192
15512WAT     H146778   4.429   3.674   4.283
15512WAT     H246779   4.402   3.571   4.159
15513WAT      O46780   0.351   0.187   4.149
15513WAT     H146781   0.348   0.100   4.198
15513WAT     H246782   0.349   0.262   4.215
15514WAT      O46783   8.632   6.758   8.905
15514WAT     H146784   8.644   6.848   8.946
15514WAT     H246785   8.684   6.752   8.820
15515WAT      O46786   2.767   7.528   3.130
15515WAT     H146787   2.842   7.533   3.196
15515WAT     H246788   2.803   7.542   3.037
15516WAT      O46789   5.253   3.399   6.328
15516WAT     H146790   5.317   3.323   6.339
15516WAT     H246791   5.172   3.366   6.280
15517WAT      O46792   3.840   6.005   6.513
15517WAT     H146793   3.937   6.009   6.489
15517WAT     H246794   3.818   6.080   6.575
15518WAT      O46795   7.746   8.429   1.277
15518WAT     H146796   7.674   8.359   1.280
15518WAT     H246797   7.824   8.395   1.224
15519WAT      O46798   0.706   3.358   9.543
15519WAT     H146799   0.773   3.326   9.610
15519WAT     H246800   0.658   3.280   9.503
15520WAT      O46801   9.524   5.901   6.354
15520WAT     H146802   9.447   5.965   6.348
15520WAT     H246803   9.490   5.807   6.342
15521WAT      O46804   8.279   8.679   5.861
15521WAT     H146805   8.264   8.770   5.898
15521WAT     H246806   8.352   8.682   5.793
15522WAT      O46807   2.183   4.327   6.770
15522WAT     H146808   2.214   4.241   6.729
15522WAT     H246809   2.193   4.322   6.870
15523WAT      O46810   6.560   8.883   5.180
15523WAT     H146811   6.473   8.927   5.156
15523WAT     H246812   6.544   8.788   5.206
15524WAT      O46813   7.566   8.165   5.688
15524WAT     H146814   7.625   8.210   5.621
15524WAT     H246815   7.539   8.230   5.759
15525WAT      O46816   0.341   4.660   2.352
15525WAT     H146817   0.290   4.648   2.438
15525WAT     H246818   0.364   4.570   2.315
15526WAT      O46819   0.151   7.685   2.412
15526WAT     H146820   0.078   7.727   2.359
15526WAT     H246821   0.220   7.648   2.350
15527WAT      O46822   2.419   1.545   5.587
15527WAT     H146823   2.447   1.501   5.501
15527WAT     H246824   2.497   1.596   5.624
15528WAT      O46825   2.671   9.296   1.633
15528WAT     H146826   2.632   9.349   1.558
15528WAT     H246827   2.770   9.296   1.627
15529WAT      O46828   4.168   4.539   9.377
15529WAT     H146829   4.099   4.560   9.445
15529WAT     H246830   4.178   4.617   9.315
15530WAT      O46831   7.487   1.065   6.326
15530WAT     H146832   7.400   1.034   6.288
15530WAT     H246833   7.505   1.015   6.411
15531WAT      O46834   6.959   3.685   0.670
15531WAT     H146835   6.976   3.588   0.658
15531WAT     H246836   6.903   3.699   0.752
15532WAT      O46837   4.303   3.448   9.330
15532WAT     H146838   4.287   3.427   9.426
15532WAT     H246839   4.220   3.429   9.277
15533WAT      O46840   9.004   1.110   0.946
15533WAT     H146841   8.934   1.043   0.970
15533WAT     H246842   9.059   1.075   0.871
15534WAT      O46843   9.870   7.468   0.201
15534WAT     H146844   9.923   7.550   0.224
15534WAT     H246845   9.821   7.436   0.282
15535WAT      O46846   1.313   6.011   6.289
15535WAT     H146847   1.359   5.926   6.263
15535WAT     H246848   1.293   6.065   6.207
15536WAT      O46849   8.043   8.247   6.901
15536WAT     H146850   8.110   8.290   6.841
15536WAT     H246851   8.073   8.154   6.923
15537WAT      O46852   3.024   8.979   3.706
15537WAT     H146853   3.049   9.070   3.739
15537WAT     H246854   3.097   8.944   3.648
15538WAT      O46855   5.472   8.692   4.789
15538WAT     H146856   5.473   8.784   4.749
15538WAT     H246857   5.405   8.688   4.862
15539WAT      O46858   3.134   6.475   7.164
15539WAT     H146859   3.203   6.405   7.144
15539WAT     H246860   3.143   6.550   7.098
15540WAT      O46861   2.885   6.378   7.171
15540WAT     H146862   2.828   6.385   7.090
15540WAT     H246863   2.970   6.428   7.156
15541WAT      O46864   4.746   0.110   2.074
15541WAT     H146865   4.779   0.064   1.991
15541WAT     H246866   4.805   0.086   2.151
15542WAT      O46867   8.662   2.516   1.383
15542WAT     H146868   8.742   2.565   1.419
15542WAT     H246869   8.583   2.534   1.441
15543WAT      O46870   8.484   2.428   9.273
15543WAT     H146871   8.414   2.437   9.203
15543WAT     H246872   8.448   2.375   9.350
15544WAT      O46873   4.026   7.890   2.739
15544WAT     H146874   4.101   7.886   2.805
15544WAT     H246875   4.051   7.954   2.666
15545WAT      O46876   6.981   0.522   6.134
15545WAT     H146877   7.052   0.555   6.072
15545WAT     H246878   6.893   0.518   6.086
15546WAT      O46879   5.569   7.658   6.981
15546WAT     H146880   5.490   7.700   7.026
15546WAT     H246881   5.538   7.583   6.922
15547WAT      O46882   4.951   4.276   9.713
15547WAT     H146883   4.872   4.316   9.760
15547WAT     H246884   5.031   4.281   9.773
15548WAT      O46885   5.418   4.184   1.357
15548WAT     H146886   5.450   4.124   1.284
15548WAT     H246887   5.455   4.275   1.344
15549WAT      O46888   3.597   2.907   1.466
15549WAT     H146889   3.670   2.865   1.411
15549WAT     H246890   3.579   3.000   1.433
15550WAT      O46891   8.341   4.083   0.094
15550WAT     H146892   8.275   4.156   0.077
15550WAT     H246893   8.392   4.102   0.178
15551WAT      O46894   5.210   7.911   5.577
15551WAT     H146895   5.271   7.982   5.615
15551WAT     H246896   5.178   7.852   5.651
15552WAT      O46897   4.468   8.163   1.040
15552WAT     H146898   4.516   8.222   1.104
15552WAT     H246899   4.397   8.111   1.088
15553WAT      O46900   2.189   3.807   1.420
15553WAT     H146901   2.198   3.826   1.322
15553WAT     H246902   2.118   3.739   1.435
15554WAT      O46903   2.056   1.709   0.591
15554WAT     H146904   2.102   1.742   0.509
15554WAT     H246905   1.959   1.732   0.587
15555WAT      O46906   1.962   3.470   8.856
15555WAT     H146907   1.877   3.512   8.885
15555WAT     H246908   2.006   3.425   8.935
15556WAT      O46909   2.089   7.282   1.533
15556WAT     H146910   2.007   7.290   1.477
15556WAT     H246911   2.064   7.282   1.630
15557WAT      O46912   5.807   1.606   3.579
15557WAT     H146913   5.782   1.691   3.533
15557WAT     H246914   5.904   1.610   3.605
15558WAT      O46915   7.354   3.325   6.946
15558WAT     H146916   7.266   3.304   6.987
15558WAT     H246917   7.342   3.344   6.848
15559WAT      O46918   5.739   2.330   4.113
15559WAT     H146919   5.776   2.239   4.131
15559WAT     H246920   5.704   2.334   4.020
15560WAT      O46921   1.870   5.710   2.226
15560WAT     H146922   1.968   5.730   2.216
15560WAT     H246923   1.858   5.618   2.263
15561WAT      O46924   4.632   1.321   9.744
15561WAT     H146925   4.542   1.287   9.771
15561WAT     H246926   4.648   1.299   9.648
15562WAT      O46927   6.560   5.261   7.490
15562WAT     H146928   6.558   5.162   7.505
15562WAT     H246929   6.647   5.298   7.523
15563WAT      O46930   4.524   4.558   5.582
15563WAT     H146931   4.424   4.550   5.573
15563WAT     H246932   4.559   4.478   5.631
15564WAT      O46933   3.898   5.781   8.178
15564WAT     H146934   3.980   5.786   8.121
15564WAT     H246935   3.819   5.757   8.121
15565WAT      O46936   3.013   5.147   1.199
15565WAT     H146937   2.980   5.061   1.160
15565WAT     H246938   3.061   5.129   1.285
15566WAT      O46939   3.003   9.005   6.624
15566WAT     H146940   3.091   9.007   6.575
15566WAT     H246941   3.020   9.013   6.722
15567WAT      O46942   9.124   3.846   7.864
15567WAT     H146943   9.185   3.782   7.911
15567WAT     H246944   9.104   3.924   7.924
15568WAT      O46945   7.235   8.325   7.630
15568WAT     H146946   7.228   8.423   7.610
15568WAT     H246947   7.309   8.309   7.696
15569WAT      O46948   6.067   1.031   0.176
15569WAT     H146949   6.032   1.054   0.085
15569WAT     H246950   6.162   1.061   0.183
15570WAT      O46951   7.441   5.779   5.346
15570WAT     H146952   7.350   5.735   5.348
15570WAT     H246953   7.503   5.723   5.291
15571WAT      O46954   1.583   8.305   4.882
15571WAT     H146955   1.619   8.388   4.839
15571WAT     H246956   1.640   8.227   4.856
15572WAT      O46957   8.832   6.052   1.549
15572WAT     H146958   8.832   6.100   1.636
15572WAT     H246959   8.926   6.036   1.519
15573WAT      O46960   3.794   7.332   8.119
15573WAT     H146961   3.696   7.339   8.136
15573WAT     H246962   3.813   7.249   8.067
15574WAT      O46963   3.966   6.773   2.655
15574WAT     H146964   4.042   6.729   2.606
15574WAT     H246965   3.990   6.783   2.752
15575WAT      O46966   2.756   1.470   2.976
15575WAT     H146967   2.845   1.446   2.937
15575WAT     H246968   2.715   1.544   2.922
15576WAT      O46969   3.134   9.433   9.185
15576WAT     H146970   3.165   9.515   9.233
15576WAT     H246971   3.042   9.408   9.216
15577WAT      O46972   7.303   9.062   0.566
15577WAT     H146973   7.278   9.158   0.551
15577WAT     H246974   7.248   9.003   0.508
15578WAT      O46975   3.377   1.964   1.928
15578WAT     H146976   3.447   1.935   1.993
15578WAT     H246977   3.405   1.940   1.835
15579WAT      O46978   3.850   6.609   4.046
15579WAT     H146979   3.946   6.583   4.045
15579WAT     H246980   3.806   6.576   4.130
15580WAT      O46981   5.650   7.922   8.230
15580WAT     H146982   5.683   7.847   8.173
15580WAT     H246983   5.698   7.921   8.318
15581WAT      O46984   5.088   3.936   4.620
15581WAT     H146985   5.084   3.917   4.718
15581WAT     H246986   5.155   3.874   4.577
15582WAT      O46987   9.465   4.978   6.109
15582WAT     H146988   9.556   4.937   6.101
15582WAT     H246989   9.474   5.074   6.136
15583WAT      O46990   1.369   2.651   2.496
15583WAT     H146991   1.306   2.720   2.461
15583WAT     H246992   1.378   2.577   2.429
15584WAT      O46993   5.672   7.790   1.858
15584WAT     H146994   5.637   7.753   1.772
15584WAT     H246995   5.668   7.890   1.855
15585WAT      O46996   0.710   5.410   3.376
15585WAT     H146997   0.683   5.345   3.447
15585WAT     H246998   0.808   5.401   3.358
15586WAT      O46999   8.491   6.719   3.826
15586WAT     H147000   8.486   6.626   3.863
15586WAT     H247001   8.436   6.780   3.882
15587WAT      O47002   6.568   6.672   4.177
15587WAT     H147003   6.527   6.646   4.264
15587WAT     H247004   6.546   6.768   4.157
15588WAT      O47005   8.396   0.020   8.844
15588WAT     H147006   8.348   0.060   8.765
15588WAT     H247007   8.337  -0.048   8.887
15589WAT      O47008   7.802   0.478   9.283
15589WAT     H147009   7.894   0.473   9.243
15589WAT     H247010   7.789   0.402   9.347
15590WAT      O47011   0.939   5.749   2.612
15590WAT     H147012   0.935   5.842   2.575
15590WAT     H247013   1.019   5.702   2.575
15591WAT      O47014   7.091   3.272   4.641
15591WAT     H147015   7.014   3.240   4.586
15591WAT     H247016   7.099   3.371   4.633
15592WAT      O47017   6.927   2.590   7.593
15592WAT     H147018   6.848   2.574   7.534
15592WAT     H247019   6.903   2.568   7.687
15593WAT      O47020   0.246   7.504   3.007
15593WAT     H147021   0.257   7.572   2.934
15593WAT     H247022   0.174   7.439   2.981
15594WAT      O47023   9.811   8.859   0.847
15594WAT     H147024   9.894   8.855   0.792
15594WAT     H247025   9.750   8.784   0.822
15595WAT      O47026   7.296   1.776   6.971
15595WAT     H147027   7.384   1.730   6.963
15595WAT     H247028   7.259   1.793   6.880
15596WAT      O47029   4.616   8.366   2.135
15596WAT     H147030   4.546   8.365   2.206
15596WAT     H247031   4.599   8.443   2.073
15597WAT      O47032   3.274   9.696   2.400
15597WAT     H147033   3.288   9.701   2.498
15597WAT     H247034   3.320   9.615   2.364
15598WAT      O47035   3.440   4.523   5.286
15598WAT     H147036   3.440   4.623   5.287
15598WAT     H247037   3.432   4.488   5.379
15599WAT      O47038   3.828   4.174   2.825
15599WAT     H147039   3.746   4.220   2.792
15599WAT     H247040   3.909   4.230   2.803
15600WAT      O47041   0.590   7.656   4.969
15600WAT     H147042   0.588   7.650   4.869
15600WAT     H247043   0.676   7.698   4.998
15601WAT      O47044   8.849   3.252   8.215
15601WAT     H147045   8.871   3.173   8.159
15601WAT     H247046   8.859   3.228   8.312
15602WAT      O47047   4.467   0.311   2.320
15602WAT     H147048   4.420   0.227   2.346
15602WAT     H247049   4.454   0.380   2.392
15603WAT      O47050   3.332   0.432   1.356
15603WAT     H147051   3.399   0.366   1.322
15603WAT     H247052   3.365   0.525   1.339
15604WAT      O47053   5.132   7.068   4.890
15604WAT     H147054   5.034   7.087   4.881
15604WAT     H247055   5.179   7.099   4.807
15605WAT      O47056   8.280   2.931   4.128
15605WAT     H147057   8.377   2.942   4.152
15605WAT     H247058   8.230   2.899   4.209
15606WAT      O47059   2.279   6.048   8.998
15606WAT     H147060   2.307   6.030   8.904
15606WAT     H247061   2.209   5.982   9.026
15607WAT      O47062   0.182   8.822   7.559
15607WAT     H147063   0.180   8.830   7.659
15607WAT     H247064   0.168   8.726   7.533
15608WAT      O47065   1.068   6.909   5.433
15608WAT     H147066   0.995   6.968   5.398
15608WAT     H247067   1.118   6.868   5.357
15609WAT      O47068   2.374   4.959   7.902
15609WAT     H147069   2.470   4.935   7.911
15609WAT     H247070   2.317   4.878   7.914
15610WAT      O47071   0.843   7.912   1.369
15610WAT     H147072   0.910   7.838   1.368
15610WAT     H247073   0.838   7.953   1.278
15611WAT      O47074   8.566   3.270   6.502
15611WAT     H147075   8.471   3.291   6.481
15611WAT     H247076   8.587   3.177   6.471
15612WAT      O47077   9.468   5.507   1.488
15612WAT     H147078   9.399   5.490   1.557
15612WAT     H247079   9.559   5.485   1.525
15613WAT      O47080   0.462   8.056   0.385
15613WAT     H147081   0.424   8.027   0.298
15613WAT     H247082   0.402   8.124   0.427
15614WAT      O47083   0.248   2.637   0.962
15614WAT     H147084   0.277   2.716   0.907
15614WAT     H247085   0.324   2.606   1.019
15615WAT      O47086   2.001   6.956   5.717
15615WAT     H147087   1.946   6.872   5.718
15615WAT     H247088   2.092   6.935   5.682
15616WAT      O47089   4.477   2.542   8.912
15616WAT     H147090   4.511   2.539   9.006
15616WAT     H247091   4.423   2.625   8.899
15617WAT      O47092   8.302   5.957   9.505
15617WAT     H147093   8.308   5.880   9.442
15617WAT     H247094   8.229   5.941   9.571
15618WAT      O47095   9.459   0.975   0.866
15618WAT     H147096   9.536   0.913   0.880
15618WAT     H247097   9.440   0.983   0.768
15619WAT      O47098   4.118   4.131   5.602
15619WAT     H147099   4.213   4.120   5.573
15619WAT     H247100   4.090   4.051   5.655
15620WAT      O47101   3.243   7.964   4.566
15620WAT     H147102   3.311   8.004   4.627
15620WAT     H247103   3.289   7.913   4.493
15621WAT      O47104   1.191   4.553   8.997
15621WAT     H147105   1.194   4.571   9.095
15621WAT     H247106   1.261   4.608   8.951
15622WAT      O47107   2.855   3.356   3.689
15622WAT     H147108   2.784   3.424   3.710
15622WAT     H247109   2.888   3.370   3.595
15623WAT      O47110   0.602   5.052   5.700
15623WAT     H147111   0.680   5.022   5.755
15623WAT     H247112   0.518   5.016   5.740
15624WAT      O47113   8.041   0.602   4.806
15624WAT     H147114   8.093   0.517   4.813
15624WAT     H247115   8.070   0.665   4.878
15625WAT      O47116   1.446   3.096   5.938
15625WAT     H147117   1.513   3.069   6.007
15625WAT     H247118   1.394   3.016   5.908
15626WAT      O47119   2.813   5.852   8.601
15626WAT     H147120   2.820   5.793   8.521
15626WAT     H247121   2.889   5.831   8.664
15627WAT      O47122   7.239   2.883   8.594
15627WAT     H147123   7.178   2.952   8.555
15627WAT     H247124   7.207   2.792   8.567
15628WAT      O47125   4.603   8.227   0.823
15628WAT     H147126   4.625   8.323   0.840
15628WAT     H247127   4.539   8.194   0.892
15629WAT      O47128   3.906   5.490   2.056
15629WAT     H147129   3.946   5.581   2.063
15629WAT     H247130   3.827   5.484   2.118
15630WAT      O47131   7.146   9.159   4.740
15630WAT     H147132   7.084   9.099   4.690
15630WAT     H247133   7.156   9.245   4.690
15631WAT      O47134   3.295   3.742   2.023
15631WAT     H147135   3.370   3.741   1.958
15631WAT     H247136   3.303   3.822   2.083
15632WAT      O47137   7.328   9.771   3.425
15632WAT     H147138   7.268   9.753   3.346
15632WAT     H247139   7.300   9.857   3.469
15633WAT      O47140   4.514   5.964   8.151
15633WAT     H147141   4.500   5.969   8.052
15633WAT     H247142   4.611   5.974   8.171
15634WAT      O47143   9.310   2.973   3.260
15634WAT     H147144   9.278   3.067   3.268
15634WAT     H247145   9.365   2.964   3.177
15635WAT      O47146   9.093   7.927   9.435
15635WAT     H147147   9.112   8.021   9.405
15635WAT     H247148   9.061   7.929   9.530
15636WAT      O47149   4.806   7.310   8.950
15636WAT     H147150   4.903   7.285   8.941
15636WAT     H247151   4.751   7.252   8.891
15637WAT      O47152   2.040   9.068   1.172
15637WAT     H147153   2.094   8.993   1.135
15637WAT     H247154   2.101   9.138   1.209
15638WAT      O47155   6.388   0.106   8.365
15638WAT     H147156   6.460   0.159   8.409
15638WAT     H247157   6.392   0.120   8.266
15639WAT      O47158   5.568   4.785   9.623
15639WAT     H147159   5.519   4.794   9.710
15639WAT     H247160   5.661   4.755   9.640
15640WAT      O47161   2.706   0.456   3.873
15640WAT     H147162   2.764   0.401   3.933
15640WAT     H247163   2.716   0.425   3.779
15641WAT      O47164   3.913   9.517   2.459
15641WAT     H147165   3.991   9.579   2.457
15641WAT     H247166   3.931   9.441   2.521
15642WAT      O47167   2.689   4.143   4.993
15642WAT     H147168   2.590   4.143   4.981
15642WAT     H247169   2.731   4.193   4.917
15643WAT      O47170   9.599   8.876   4.512
15643WAT     H147171   9.537   8.868   4.590
15643WAT     H247172   9.570   8.952   4.454
15644WAT      O47173   2.784   2.336   5.581
15644WAT     H147174   2.836   2.300   5.659
15644WAT     H247175   2.848   2.365   5.509
15645WAT      O47176   9.150   1.702   1.291
15645WAT     H147177   9.189   1.771   1.351
15645WAT     H247178   9.174   1.722   1.196
15646WAT      O47179   4.254   1.747   7.204
15646WAT     H147180   4.290   1.806   7.133
15646WAT     H247181   4.311   1.755   7.286
15647WAT      O47182   3.050   7.898   3.612
15647WAT     H147183   2.957   7.901   3.575
15647WAT     H247184   3.047   7.870   3.708
15648WAT      O47185   3.916   7.865   1.174
15648WAT     H147186   3.968   7.872   1.259
15648WAT     H247187   3.930   7.948   1.120
15649WAT      O47188   6.443   5.242   1.103
15649WAT     H147189   6.413   5.318   1.161
15649WAT     H247190   6.436   5.156   1.155
15650WAT      O47191   1.265   1.000   8.066
15650WAT     H147192   1.187   0.968   8.121
15650WAT     H247193   1.349   0.992   8.120
15651WAT      O47194   8.196   9.464   8.206
15651WAT     H147195   8.199   9.496   8.301
15651WAT     H247196   8.193   9.543   8.145
15652WAT      O47197   3.933   3.947   3.161
15652WAT     H147198   3.915   3.904   3.249
15652WAT     H247199   3.852   3.998   3.132
15653WAT      O47200   8.431   5.640   6.567
15653WAT     H147201   8.414   5.699   6.488
15653WAT     H247202   8.345   5.622   6.614
15654WAT      O47203   2.240   1.801   4.654
15654WAT     H147204   2.154   1.758   4.681
15654WAT     H247205   2.222   1.895   4.625
15655WAT      O47206   3.985   1.687   7.274
15655WAT     H147207   4.080   1.690   7.304
15655WAT     H247208   3.976   1.736   7.188
15656WAT      O47209   1.955   3.140   0.158
15656WAT     H147210   1.971   3.239   0.156
15656WAT     H247211   1.862   3.121   0.188
15657WAT      O47212   7.744   7.926   6.779
15657WAT     H147213   7.664   7.904   6.836
15657WAT     H247214   7.808   7.982   6.832
15658WAT      O47215   8.213   7.528   9.485
15658WAT     H147216   8.145   7.528   9.558
15658WAT     H247217   8.217   7.438   9.442
15659WAT      O47218   5.731   2.775   5.795
15659WAT     H147219   5.693   2.730   5.876
15659WAT     H247220   5.760   2.705   5.730
15660WAT      O47221   2.786   9.666   8.695
15660WAT     H147222   2.838   9.691   8.777
15660WAT     H247223   2.719   9.738   8.676
15661WAT      O47224   5.639   7.478   4.753
15661WAT     H147225   5.721   7.530   4.779
15661WAT     H247226   5.637   7.466   4.654
15662WAT      O47227   4.922   4.438   2.596
15662WAT     H147228   5.005   4.484   2.562
15662WAT     H247229   4.886   4.379   2.524
15663WAT      O47230   2.172   0.398   5.393
15663WAT     H147231   2.173   0.486   5.440
15663WAT     H247232   2.192   0.325   5.458
15664WAT      O47233   0.991   7.688   2.838
15664WAT     H147234   0.919   7.632   2.879
15664WAT     H247235   1.055   7.717   2.910
15665WAT      O47236   1.159   3.042   9.501
15665WAT     H147237   1.173   3.124   9.445
15665WAT     H247238   1.243   3.022   9.551
15666WAT      O47239   8.756   1.346   0.115
15666WAT     H147240   8.817   1.285   0.065
15666WAT     H247241   8.668   1.351   0.067
15667WAT      O47242   1.131   8.612   6.893
15667WAT     H147243   1.204   8.575   6.835
15667WAT     H247244   1.171   8.663   6.969
15668WAT      O47245   1.150   2.575   2.250
15668WAT     H147246   1.238   2.528   2.251
15668WAT     H247247   1.082   2.518   2.203
15669WAT      O47248   8.547   1.529   9.298
15669WAT     H147249   8.502   1.608   9.258
15669WAT     H247250   8.564   1.460   9.227
15670WAT      O47251   2.540   1.860   2.279
15670WAT     H147252   2.607   1.805   2.328
15670WAT     H247253   2.449   1.846   2.318
15671WAT      O47254   0.046   7.716   9.650
15671WAT     H147255   0.048   7.662   9.734
15671WAT     H247256   0.122   7.690   9.592
15672WAT      O47257   8.617   1.383   9.095
15672WAT     H147258   8.554   1.388   9.017
15672WAT     H247259   8.621   1.289   9.127
15673WAT      O47260   1.821   7.642   6.873
15673WAT     H147261   1.871   7.686   6.948
15673WAT     H247262   1.726   7.671   6.875
15674WAT      O47263   1.180   9.448   2.207
15674WAT     H147264   1.260   9.463   2.265
15674WAT     H247265   1.142   9.357   2.225
15675WAT      O47266   8.676   6.411   7.773
15675WAT     H147267   8.730   6.463   7.839
15675WAT     H247268   8.642   6.327   7.816
15676WAT      O47269   5.614   7.730   2.987
15676WAT     H147270   5.688   7.724   3.054
15676WAT     H247271   5.651   7.720   2.895
15677WAT      O47272   4.570   6.007   6.617
15677WAT     H147273   4.555   5.934   6.550
15677WAT     H247274   4.482   6.043   6.647
15678WAT      O47275   6.247   8.557   5.009
15678WAT     H147276   6.309   8.479   5.007
15678WAT     H247277   6.297   8.640   4.989
15679WAT      O47278   9.295   4.873   3.857
15679WAT     H147279   9.290   4.786   3.905
15679WAT     H247280   9.225   4.935   3.892
15680WAT      O47281   6.252   7.427   3.959
15680WAT     H147282   6.188   7.445   3.884
15680WAT     H247283   6.223   7.346   4.009
15681WAT      O47284   3.559   3.687   2.211
15681WAT     H147285   3.488   3.621   2.184
15681WAT     H247286   3.515   3.771   2.243
15682WAT      O47287   7.432   2.009   3.340
15682WAT     H147288   7.437   1.999   3.440
15682WAT     H247289   7.496   1.944   3.297
15683WAT      O47290   0.275   0.871   1.471
15683WAT     H147291   0.252   0.948   1.529
15683WAT     H247292   0.349   0.819   1.513
15684WAT      O47293   0.452   2.158   4.785
15684WAT     H147294   0.363   2.187   4.749
15684WAT     H247295   0.473   2.066   4.753
15685WAT      O47296   6.028   4.058   0.403
15685WAT     H147297   6.065   4.127   0.465
15685WAT     H247298   6.102   4.018   0.349
15686WAT      O47299   2.815   9.524   5.341
15686WAT     H147300   2.819   9.471   5.425
15686WAT     H247301   2.876   9.603   5.349
15687WAT      O47302   6.683   4.872   1.335
15687WAT     H147303   6.740   4.877   1.416
15687WAT     H247304   6.600   4.927   1.348
15688WAT      O47305   7.472   0.819   0.816
15688WAT     H147306   7.424   0.908   0.815
15688WAT     H247307   7.570   0.835   0.819
15689WAT      O47308   9.548   8.516   3.663
15689WAT     H147309   9.560   8.560   3.752
15689WAT     H247310   9.492   8.574   3.604
15690WAT      O47311   8.403  -0.000   5.999
15690WAT     H147312   8.476   0.056   6.039
15690WAT     H247313   8.428  -0.025   5.905
15691WAT      O47314   6.793   7.749   2.218
15691WAT     H147315   6.875   7.693   2.204
15691WAT     H247316   6.813   7.820   2.285
15692WAT      O47317   1.306   6.155   3.009
15692WAT     H147318   1.340   6.184   3.099
15692WAT     H247319   1.228   6.212   2.983
15693WAT      O47320   2.429   1.505   6.046
15693WAT     H147321   2.411   1.533   6.140
15693WAT     H247322   2.440   1.405   6.043
15694WAT      O47323   2.443   6.337   3.427
15694WAT     H147324   2.533   6.295   3.423
15694WAT     H247325   2.398   6.328   3.338
15695WAT      O47326   1.625   2.143   2.259
15695WAT     H147327   1.656   2.218   2.318
15695WAT     H247328   1.664   2.057   2.292
15696WAT      O47329   6.694   6.735   4.539
15696WAT     H147330   6.747   6.682   4.606
15696WAT     H247331   6.743   6.819   4.518
15697WAT      O47332   1.664   1.823   8.373
15697WAT     H147333   1.687   1.735   8.331
15697WAT     H247334   1.580   1.814   8.427
15698WAT      O47335   0.308   3.195   7.214
15698WAT     H147336   0.236   3.192   7.282
15698WAT     H247337   0.268   3.196   7.122
15699WAT      O47338   6.743   2.424   2.485
15699WAT     H147339   6.660   2.390   2.441
15699WAT     H247340   6.820   2.416   2.422
15700WAT      O47341   6.375   7.533   0.380
15700WAT     H147342   6.348   7.437   0.384
15700WAT     H247343   6.474   7.540   0.387
15701WAT      O47344   4.664   4.895   6.152
15701WAT     H147345   4.721   4.827   6.104
15701WAT     H247346   4.673   4.983   6.107
15702WAT      O47347   9.341   6.187   3.453
15702WAT     H147348   9.363   6.089   3.456
15702WAT     H247349   9.260   6.205   3.510
15703WAT      O47350   1.570   8.494   7.447
15703WAT     H147351   1.562   8.479   7.545
15703WAT     H247352   1.533   8.584   7.424
15704WAT      O47353   0.726   9.775   6.371
15704WAT     H147354   0.791   9.827   6.427
15704WAT     H247355   0.752   9.679   6.370
15705WAT      O47356   8.177   2.031   2.052
15705WAT     H147357   8.226   2.041   2.139
15705WAT     H247358   8.079   2.022   2.070
15706WAT      O47359   2.053   4.263   1.291
15706WAT     H147360   2.025   4.265   1.195
15706WAT     H247361   2.145   4.225   1.298
15707WAT      O47362   8.471   3.529   1.274
15707WAT     H147363   8.564   3.525   1.237
15707WAT     H247364   8.414   3.585   1.214
15708WAT      O47365   3.663   3.260   2.937
15708WAT     H147366   3.602   3.241   3.014
15708WAT     H247367   3.610   3.301   2.863
15709WAT      O47368   9.597   1.372   2.619
15709WAT     H147369   9.592   1.283   2.665
15709WAT     H247370   9.683   1.379   2.569
15710WAT      O47371   2.172   3.923   7.695
15710WAT     H147372   2.210   3.901   7.785
15710WAT     H247373   2.075   3.899   7.694
15711WAT      O47374   2.723   0.542   6.200
15711WAT     H147375   2.745   0.573   6.108
15711WAT     H247376   2.765   0.453   6.217
15712WAT      O47377   5.311   6.861   9.468
15712WAT     H147378   5.239   6.911   9.419
15712WAT     H247379   5.282   6.767   9.485
15713WAT      O47380   8.179   8.185   1.767
15713WAT     H147381   8.187   8.283   1.784
15713WAT     H247382   8.141   8.171   1.675
15714WAT      O47383   3.714   9.809   0.134
15714WAT     H147384   3.656   9.729   0.145
15714WAT     H247385   3.665   9.880   0.083
15715WAT      O47386   5.154   1.876   2.698
15715WAT     H147387   5.079   1.899   2.635
15715WAT     H247388   5.161   1.948   2.767
15716WAT      O47389   4.045   3.585   8.045
15716WAT     H147390   4.098   3.629   7.973
15716WAT     H247391   4.014   3.654   8.110
15717WAT      O47392   2.923   9.025   2.209
15717WAT     H147393   2.867   8.981   2.140
15717WAT     H247394   2.908   8.981   2.298
15718WAT      O47395   4.180   0.413   2.942
15718WAT     H147396   4.148   0.495   2.989
15718WAT     H247397   4.158   0.419   2.845
15719WAT      O47398   1.211   8.718   4.467
15719WAT     H147399   1.161   8.789   4.418
15719WAT     H247400   1.154   8.683   4.541
15720WAT      O47401   2.642   9.608   0.431
15720WAT     H147402   2.675   9.668   0.358
15720WAT     H247403   2.556   9.644   0.468
15721WAT      O47404   1.386   6.963   9.221
15721WAT     H147405   1.288   6.945   9.212
15721WAT     H247406   1.416   7.025   9.149
15722WAT      O47407   0.810   5.399   0.235
15722WAT     H147408   0.809   5.484   0.289
15722WAT     H247409   0.831   5.420   0.140
15723WAT      O47410   5.893   0.075   6.122
15723WAT     H147411   5.961   0.095   6.193
15723WAT     H247412   5.847  -0.011   6.142
15724WAT      O47413   7.705   9.175   6.653
15724WAT     H147414   7.666   9.214   6.736
15724WAT     H247415   7.635   9.173   6.581
15725WAT      O47416   4.986   7.327   6.234
15725WAT     H147417   5.086   7.328   6.241
15725WAT     H247418   4.958   7.264   6.161
15726WAT      O47419   5.808   4.209   3.094
15726WAT     H147420   5.838   4.256   3.011
15726WAT     H247421   5.824   4.268   3.173
15727WAT      O47422   8.387   3.157   9.040
15727WAT     H147423   8.373   3.212   8.958
15727WAT     H247424   8.321   3.184   9.110
15728WAT      O47425   0.169   5.592   6.510
15728WAT     H147426   0.228   5.657   6.558
15728WAT     H247427   0.202   5.581   6.416
15729WAT      O47428   9.128   1.551   7.983
15729WAT     H147429   9.142   1.489   7.907
15729WAT     H247430   9.034   1.540   8.018
15730WAT      O47431   3.001   6.767   3.089
15730WAT     H147432   2.939   6.714   3.148
15730WAT     H247433   2.950   6.801   3.010
15731WAT      O47434   7.332   9.202   6.847
15731WAT     H147435   7.285   9.287   6.871
15731WAT     H247436   7.297   9.128   6.904
15732WAT      O47437   2.618   0.846   0.061
15732WAT     H147438   2.572   0.771   0.108
15732WAT     H247439   2.714   0.822   0.045
15733WAT      O47440   2.778   9.224   6.967
15733WAT     H147441   2.778   9.308   6.912
15733WAT     H247442   2.812   9.245   7.059
15734WAT      O47443   0.743   0.844   8.525
15734WAT     H147444   0.813   0.773   8.532
15734WAT     H247445   0.776   0.928   8.568
15735WAT      O47446   2.168   4.931   2.536
15735WAT     H147447   2.241   4.864   2.552
15735WAT     H247448   2.107   4.896   2.464
15736WAT      O47449   2.873   7.897   8.373
15736WAT     H147450   2.932   7.871   8.297
15736WAT     H247451   2.902   7.985   8.410
15737WAT      O47452   4.009   9.577   5.800
15737WAT     H147453   4.070   9.652   5.824
15737WAT     H247454   3.916   9.613   5.787
15738WAT      O47455   0.035   3.981   8.073
15738WAT     H147456   0.042   4.003   8.171
15738WAT     H247457   0.061   4.061   8.019
15739WAT      O47458   8.114   7.210   4.880
15739WAT     H147459   8.104   7.305   4.851
15739WAT     H247460   8.148   7.206   4.974
15740WAT      O47461   0.897   2.807   0.190
15740WAT     H147462   0.996   2.817   0.188
15740WAT     H247463   0.854   2.897   0.198
15741WAT      O47464   1.156   0.514   5.478
15741WAT     H147465   1.246   0.477   5.503
15741WAT     H247466   1.153   0.529   5.379
15742WAT      O47467   0.629   0.529   4.783
15742WAT     H147468   0.689   0.527   4.703
15742WAT     H247469   0.542   0.572   4.758
15743WAT      O47470   9.782   5.430   3.324
15743WAT     H147471   9.792   5.462   3.230
15743WAT     H247472   9.837   5.487   3.385
15744WAT      O47473   9.671   7.280   0.007
15744WAT     H147474   9.729   7.333   0.068
15744WAT     H247475   9.608   7.341  -0.042
15745WAT      O47476   4.496   3.915   4.564
15745WAT     H147477   4.507   3.914   4.663
15745WAT     H247478   4.457   3.828   4.534
15746WAT      O47479   0.808   1.063   7.981
15746WAT     H147480   0.875   1.037   7.911
15746WAT     H247481   0.856   1.083   8.067
15747WAT      O47482   4.929   4.716   5.205
15747WAT     H147483   4.957   4.676   5.118
15747WAT     H247484   4.856   4.783   5.188
15748WAT      O47485   1.191   1.794   8.890
15748WAT     H147486   1.117   1.811   8.825
15748WAT     H247487   1.181   1.703   8.929
15749WAT      O47488   1.451   3.979   5.457
15749WAT     H147489   1.426   4.071   5.487
15749WAT     H247490   1.549   3.964   5.476
15750WAT      O47491   2.530   2.117   1.780
15750WAT     H147492   2.537   2.096   1.878
15750WAT     H247493   2.616   2.158   1.749
15751WAT      O47494   3.057   3.483   5.429
15751WAT     H147495   3.112   3.469   5.346
15751WAT     H247496   3.041   3.581   5.442
15752WAT      O47497   3.207   6.589   8.076
15752WAT     H147498   3.172   6.589   8.169
15752WAT     H247499   3.132   6.570   8.012
15753WAT      O47500   6.447   7.240   9.280
15753WAT     H147501   6.544   7.264   9.286
15753WAT     H247502   6.421   7.231   9.184
15754WAT      O47503   2.375   6.406   2.607
15754WAT     H147504   2.282   6.427   2.637
15754WAT     H247505   2.417   6.488   2.568
15755WAT      O47506   5.590   8.390   2.930
15755WAT     H147507   5.639   8.326   2.988
15755WAT     H247508   5.525   8.442   2.986
15756WAT      O47509   9.286   9.448   3.339
15756WAT     H147510   9.296   9.463   3.438
15756WAT     H247511   9.376   9.440   3.297
15757WAT      O47512   9.178   6.796   7.013
15757WAT     H147513   9.230   6.727   7.063
15757WAT     H247514   9.211   6.887   7.037
15758WAT      O47515   9.409   3.278   5.421
15758WAT     H147516   9.390   3.326   5.507
15758WAT     H247517   9.359   3.191   5.420
15759WAT      O47518   7.862   5.081   3.459
15759WAT     H147519   7.950   5.041   3.431
15759WAT     H247520   7.799   5.009   3.486
15760WAT      O47521   4.055   4.314   5.922
15760WAT     H147522   4.087   4.407   5.901
15760WAT     H247523   4.064   4.297   6.020
15761WAT      O47524   1.088   1.681   6.961
15761WAT     H147525   1.090   1.588   6.999
15761WAT     H247526   1.112   1.746   7.033
15762WAT      O47527   2.953   0.475   1.954
15762WAT     H147528   2.936   0.422   2.037
15762WAT     H247529   3.018   0.427   1.896
15763WAT      O47530   0.076   7.228   2.123
15763WAT     H147531   0.001   7.223   2.189
15763WAT     H247532   0.132   7.146   2.129
15764WAT      O47533   0.578   9.575   9.875
15764WAT     H147534   0.611   9.616   9.791
15764WAT     H247535   0.641   9.504   9.905
15765WAT      O47536   6.152   6.438   5.607
15765WAT     H147537   6.055   6.434   5.629
15765WAT     H247538   6.173   6.370   5.536
15766WAT      O47539   5.202   0.577   2.319
15766WAT     H147540   5.141   0.582   2.398
15766WAT     H247541   5.148   0.558   2.237
15767WAT      O47542   0.567   4.730   3.853
15767WAT     H147543   0.583   4.746   3.950
15767WAT     H247544   0.598   4.810   3.800
15768WAT      O47545   0.724   5.564   2.888
15768WAT     H147546   0.726   5.663   2.871
15768WAT     H247547   0.716   5.547   2.986
15769WAT      O47548   0.938   0.230   4.862
15769WAT     H147549   0.941   0.263   4.767
15769WAT     H247550   0.845   0.235   4.896
15770WAT      O47551   7.548   5.009   9.345
15770WAT     H147552   7.465   5.062   9.364
15770WAT     H247553   7.624   5.047   9.398
15771WAT      O47554   9.852   4.483   4.049
15771WAT     H147555   9.822   4.433   4.131
15771WAT     H247556   9.943   4.521   4.065
15772WAT      O47557   7.638   3.082   7.413
15772WAT     H147558   7.655   3.065   7.316
15772WAT     H247559   7.716   3.130   7.453
15773WAT      O47560   8.901   8.013   6.614
15773WAT     H147561   8.924   8.079   6.685
15773WAT     H247562   8.818   7.964   6.639
15774WAT      O47563   3.413   7.284   6.018
15774WAT     H147564   3.398   7.266   5.921
15774WAT     H247565   3.500   7.245   6.046
15775WAT      O47566   2.142   7.495   6.180
15775WAT     H147567   2.188   7.496   6.269
15775WAT     H247568   2.070   7.564   6.178
15776WAT      O47569   0.471   3.794   3.093
15776WAT     H147570   0.568   3.800   3.118
15776WAT     H247571   0.460   3.824   2.998
15777WAT      O47572   4.979   3.773   6.347
15777WAT     H147573   4.910   3.714   6.304
15777WAT     H247574   4.999   3.850   6.286
15778WAT      O47575   3.781   2.108   5.265
15778WAT     H147576   3.735   2.019   5.268
15778WAT     H247577   3.715   2.180   5.286
15779WAT      O47578   8.572   8.542   9.816
15779WAT     H147579   8.591   8.445   9.799
15779WAT     H247580   8.646   8.597   9.778
15780WAT      O47581   7.619   4.671   5.310
15780WAT     H147582   7.573   4.749   5.269
15780WAT     H247583   7.649   4.608   5.238
15781WAT      O47584   8.882   5.757   3.837
15781WAT     H147585   8.956   5.815   3.802
15781WAT     H247586   8.830   5.807   3.906
15782WAT      O47587   4.950   3.110   2.196
15782WAT     H147588   4.920   3.172   2.124
15782WAT     H247589   4.888   3.031   2.201
15783WAT      O47590   5.949   7.346   8.520
15783WAT     H147591   6.004   7.421   8.485
15783WAT     H247592   5.918   7.289   8.444
15784WAT      O47593   6.615   7.157   4.435
15784WAT     H147594   6.610   7.253   4.408
15784WAT     H247595   6.523   7.121   4.452
15785WAT      O47596   4.465   6.989   8.887
15785WAT     H147597   4.512   6.912   8.845
15785WAT     H247598   4.372   6.963   8.911
15786WAT      O47599   9.372   0.218   1.201
15786WAT     H147600   9.458   0.209   1.151
15786WAT     H247601   9.389   0.252   1.293
15787WAT      O47602   3.687   5.619   7.268
15787WAT     H147603   3.612   5.640   7.331
15787WAT     H247604   3.649   5.595   7.179
15788WAT      O47605   4.718   2.416   9.478
15788WAT     H147606   4.679   2.505   9.500
15788WAT     H247607   4.732   2.409   9.379
15789WAT      O47608   8.360   2.720   2.319
15789WAT     H147609   8.416   2.780   2.262
15789WAT     H247610   8.346   2.633   2.271
15790WAT      O47611   2.965   0.013   6.390
15790WAT     H147612   3.047  -0.002   6.335
15790WAT     H247613   2.884   0.004   6.332
15791WAT      O47614   8.822   2.237   4.092
15791WAT     H147615   8.746   2.176   4.115
15791WAT     H247616   8.818   2.258   3.994
15792WAT      O47617   1.596   9.253   8.749
15792WAT     H147618   1.527   9.191   8.712
15792WAT     H247619   1.634   9.308   8.675
15793WAT      O47620   6.302   8.282   8.752
15793WAT     H147621   6.284   8.221   8.829
15793WAT     H247622   6.220   8.335   8.732
15794WAT      O47623   3.468   1.698   0.633
15794WAT     H147624   3.498   1.697   0.538
15794WAT     H247625   3.368   1.701   0.637
15795WAT      O47626   9.076   1.870   7.323
15795WAT     H147627   9.082   1.786   7.269
15795WAT     H247628   9.154   1.929   7.303
15796WAT      O47629   7.014   2.591   1.952
15796WAT     H147630   7.101   2.545   1.969
15796WAT     H247631   7.032   2.683   1.916
15797WAT      O47632   8.529   0.313   1.533
15797WAT     H147633   8.548   0.407   1.504
15797WAT     H247634   8.533   0.308   1.632
15798WAT      O47635   6.943   7.815   5.159
15798WAT     H147636   6.926   7.795   5.255
15798WAT     H247637   7.041   7.828   5.144
15799WAT      O47638   6.730   1.710   5.838
15799WAT     H147639   6.661   1.727   5.909
15799WAT     H247640   6.704   1.628   5.786
15800WAT      O47641   5.003   4.190   4.582
15800WAT     H147642   5.076   4.249   4.616
15800WAT     H247643   5.036   4.096   4.576
15801WAT      O47644   5.808   9.523   2.354
15801WAT     H147645   5.905   9.498   2.351
15801WAT     H247646   5.777   9.546   2.262
15802WAT      O47647   9.368   7.022   7.992
15802WAT     H147648   9.299   6.950   7.989
15802WAT     H247649   9.459   6.982   7.999
15803WAT      O47650   9.313   6.224   0.178
15803WAT     H147651   9.366   6.254   0.099
15803WAT     H247652   9.335   6.128   0.199
15804WAT      O47653   1.299   3.631   0.487
15804WAT     H147654   1.200   3.645   0.488
15804WAT     H247655   1.345   3.713   0.521
15805WAT      O47656   9.467   5.805   1.546
15805WAT     H147657   9.546   5.853   1.508
15805WAT     H247658   9.468   5.710   1.514
15806WAT      O47659   2.538   1.104   1.524
15806WAT     H147660   2.621   1.059   1.558
15806WAT     H247661   2.553   1.135   1.429
15807WAT      O47662   1.978   2.894   4.532
15807WAT     H147663   1.981   2.993   4.531
15807WAT     H247664   2.006   2.858   4.442
15808WAT      O47665   9.603   6.939   3.005
15808WAT     H147666   9.534   6.952   3.076
15808WAT     H247667   9.671   7.012   3.012
15809WAT      O47668   4.242   6.355   0.541
15809WAT     H147669   4.225   6.392   0.633
15809WAT     H247670   4.157   6.319   0.504
15810WAT      O47671   2.669   1.468   7.102
15810WAT     H147672   2.655   1.535   7.029
15810WAT     H247673   2.752   1.491   7.153
15811WAT      O47674   6.654   1.309   5.030
15811WAT     H147675   6.639   1.224   5.080
15811WAT     H247676   6.617   1.386   5.083
15812WAT      O47677   3.459   0.834   3.294
15812WAT     H147678   3.537   0.868   3.346
15812WAT     H247679   3.446   0.737   3.313
15813WAT      O47680   5.920   8.004   2.578
15813WAT     H147681   5.928   8.094   2.535
15813WAT     H247682   5.910   7.934   2.508
15814WAT      O47683   9.118   2.455   4.599
15814WAT     H147684   9.158   2.371   4.637
15814WAT     H247685   9.119   2.527   4.668
15815WAT      O47686   9.749   5.781   0.706
15815WAT     H147687   9.657   5.743   0.693
15815WAT     H247688   9.776   5.771   0.802
15816WAT      O47689   5.690   9.087   3.331
15816WAT     H147690   5.715   9.167   3.276
15816WAT     H247691   5.772   9.046   3.370
15817WAT      O47692   0.842   2.622   9.000
15817WAT     H147693   0.913   2.602   9.068
15817WAT     H247694   0.774   2.548   9.000
15818WAT      O47695   9.353   9.795   1.223
15818WAT     H147696   9.352   9.895   1.227
15818WAT     H247697   9.370   9.766   1.129
15819WAT      O47698   0.928   5.278   2.967
15819WAT     H147699   0.945   5.376   2.962
15819WAT     H247700   0.842   5.256   2.920
15820WAT      O47701   8.449   5.519   2.499
15820WAT     H147702   8.549   5.513   2.494
15820WAT     H247703   8.423   5.570   2.581
15821WAT      O47704   7.850   0.819   5.178
15821WAT     H147705   7.775   0.763   5.144
15821WAT     H247706   7.815   0.885   5.244
15822WAT      O47707   8.655   7.581   2.960
15822WAT     H147708   8.584   7.586   2.889
15822WAT     H247709   8.633   7.507   3.024
15823WAT      O47710   4.829   6.597   6.803
15823WAT     H147711   4.925   6.578   6.821
15823WAT     H247712   4.816   6.616   6.705
15824WAT      O47713   4.210   7.600   4.873
15824WAT     H147714   4.139   7.567   4.935
15824WAT     H247715   4.210   7.545   4.789
15825WAT      O47716   0.591   6.799   0.539
15825WAT     H147717   0.522   6.871   0.536
15825WAT     H247718   0.634   6.798   0.630
15826WAT      O47719   6.482   7.717   2.837
15826WAT     H147720   6.428   7.657   2.778
15826WAT     H247721   6.577   7.718   2.805
15827WAT      O47722   0.932   3.694   0.179
15827WAT     H147723   0.851   3.751   0.196
15827WAT     H247724   0.916   3.637   0.099
15828WAT      O47725   5.182   7.156   5.171
15828WAT     H147726   5.236   7.095   5.229
15828WAT     H247727   5.197   7.132   5.075
15829WAT      O47728   5.238   8.884   3.520
15829WAT     H147729   5.332   8.909   3.497
15829WAT     H247730   5.182   8.881   3.437
15830WAT      O47731   5.466   3.622   2.606
15830WAT     H147732   5.368   3.629   2.589
15830WAT     H247733   5.510   3.710   2.587
15831WAT      O47734   0.860   0.849   6.616
15831WAT     H147735   0.930   0.786   6.581
15831WAT     H247736   0.875   0.865   6.713
15832WAT      O47737   1.759   4.765   3.215
15832WAT     H147738   1.726   4.777   3.122
15832WAT     H247739   1.780   4.854   3.255
15833WAT      O47740   4.520   0.877   2.522
15833WAT     H147741   4.431   0.834   2.535
15833WAT     H247742   4.572   0.825   2.454
15834WAT      O47743   4.554   5.838   9.155
15834WAT     H147744   4.503   5.881   9.080
15834WAT     H247745   4.622   5.775   9.117
15835WAT      O47746   2.838   4.965   0.089
15835WAT     H147747   2.921   4.954   0.144
15835WAT     H247748   2.852   4.923  -0.001
15836WAT      O47749   9.759   7.490   3.846
15836WAT     H147750   9.666   7.461   3.870
15836WAT     H247751   9.823   7.455   3.914
15837WAT      O47752   0.831   2.606   6.148
15837WAT     H147753   0.822   2.661   6.065
15837WAT     H247754   0.797   2.659   6.226
15838WAT      O47755   1.885   7.307   2.892
15838WAT     H147756   1.975   7.283   2.928
15838WAT     H247757   1.844   7.379   2.948
15839WAT      O47758   6.048   2.117   1.041
15839WAT     H147759   6.120   2.183   1.064
15839WAT     H247760   5.960   2.165   1.033
15840WAT      O47761   6.120   7.583   1.824
15840WAT     H147762   6.091   7.598   1.919
15840WAT     H247763   6.200   7.640   1.805
15841WAT      O47764   5.891   6.510   8.877
15841WAT     H147765   5.977   6.502   8.927
15841WAT     H247766   5.862   6.605   8.874
15842WAT      O47767   7.229   6.532   6.236
15842WAT     H147768   7.222   6.631   6.222
15842WAT     H247769   7.151   6.501   6.291
15843WAT      O47770   6.028   4.484   4.853
15843WAT     H147771   6.104   4.506   4.915
15843WAT     H247772   6.056   4.413   4.789
15844WAT      O47773   2.840   0.887   8.770
15844WAT     H147774   2.751   0.895   8.816
15844WAT     H247775   2.889   0.974   8.777
15845WAT      O47776   2.514   0.496   8.156
15845WAT     H147777   2.585   0.466   8.220
15845WAT     H247778   2.557   0.549   8.083
15846WAT      O47779   1.276   0.491   3.241
15846WAT     H147780   1.311   0.509   3.149
15846WAT     H247781   1.343   0.521   3.309
15847WAT      O47782   8.907   8.832   8.451
15847WAT     H147783   8.871   8.798   8.538
15847WAT     H247784   8.968   8.763   8.411
15848WAT      O47785   3.584   5.363   2.176
15848WAT     H147786   3.618   5.454   2.155
15848WAT     H247787   3.508   5.341   2.115
15849WAT      O47788   0.528   6.341   6.580
15849WAT     H147789   0.471   6.334   6.498
15849WAT     H247790   0.581   6.426   6.576
15850WAT      O47791   8.270   7.245   4.204
15850WAT     H147792   8.302   7.275   4.293
15850WAT     H247793   8.347   7.211   4.150
15851WAT      O47794   0.436   0.223   7.324
15851WAT     H147795   0.481   0.177   7.400
15851WAT     H247796   0.341   0.191   7.317
15852WAT      O47797   6.783   4.967   2.045
15852WAT     H147798   6.729   4.944   2.126
15852WAT     H247799   6.873   5.002   2.074
15853WAT      O47800   8.558   4.860   3.381
15853WAT     H147801   8.517   4.786   3.434
15853WAT     H247802   8.534   4.948   3.422
15854WAT      O47803   4.663   6.407   0.486
15854WAT     H147804   4.635   6.489   0.536
15854WAT     H247805   4.725   6.433   0.411
15855WAT      O47806   1.999   7.074   2.413
15855WAT     H147807   2.006   7.088   2.512
15855WAT     H247808   1.905   7.091   2.384
15856WAT      O47809   5.739   7.342   6.494
15856WAT     H147810   5.779   7.343   6.402
15856WAT     H247811   5.777   7.417   6.548
15857WAT      O47812   2.365   2.099   0.710
15857WAT     H147813   2.420   2.020   0.737
15857WAT     H247814   2.283   2.104   0.767
15858WAT      O47815   1.708   7.763   8.088
15858WAT     H147816   1.689   7.700   8.012
15858WAT     H247817   1.787   7.730   8.140
15859WAT      O47818   8.799   6.283   3.148
15859WAT     H147819   8.792   6.334   3.234
15859WAT     H247820   8.888   6.302   3.106
15860WAT      O47821   7.978   0.384   5.596
15860WAT     H147822   8.027   0.299   5.620
15860WAT     H247823   7.983   0.447   5.673
15861WAT      O47824   3.379   3.856   3.400
15861WAT     H147825   3.313   3.791   3.363
15861WAT     H247826   3.439   3.888   3.327
15862WAT      O47827   7.769   3.336   1.899
15862WAT     H147828   7.699   3.382   1.953
15862WAT     H247829   7.857   3.384   1.910
15863WAT      O47830   3.329   2.264   9.241
15863WAT     H147831   3.290   2.211   9.165
15863WAT     H247832   3.334   2.207   9.323
15864WAT      O47833   7.490   0.579   1.292
15864WAT     H147834   7.428   0.584   1.214
15864WAT     H247835   7.442   0.539   1.370
15865WAT      O47836   8.498   1.235   3.214
15865WAT     H147837   8.437   1.313   3.200
15865WAT     H247838   8.590   1.267   3.233
15866WAT      O47839   9.065   8.273   6.461
15866WAT     H147840   9.036   8.304   6.551
15866WAT     H247841   9.143   8.211   6.471
15867WAT      O47842   0.150   0.766   3.902
15867WAT     H147843   0.058   0.751   3.867
15867WAT     H247844   0.165   0.864   3.914
15868WAT      O47845   7.681   7.246   0.034
15868WAT     H147846   7.607   7.234   0.100
15868WAT     H247847   7.687   7.342   0.008
15869WAT      O47848   8.533   8.313   1.091
15869WAT     H147849   8.597   8.301   1.015
15869WAT     H247850   8.550   8.402   1.134
15870WAT      O47851   2.097   7.754   5.036
15870WAT     H147852   1.999   7.751   5.054
15870WAT     H247853   2.113   7.795   4.946
15871WAT      O47854   4.550   6.860   7.591
15871WAT     H147855   4.587   6.798   7.522
15871WAT     H247856   4.534   6.809   7.676
15872WAT      O47857   6.846   9.422   0.814
15872WAT     H147858   6.785   9.344   0.803
15872WAT     H247859   6.837   9.483   0.736
15873WAT      O47860   6.204   1.705   0.336
15873WAT     H147861   6.140   1.651   0.390
15873WAT     H247862   6.206   1.799   0.370
15874WAT      O47863   9.129   6.391   6.756
15874WAT     H147864   9.040   6.386   6.710
15874WAT     H247865   9.174   6.302   6.751
15875WAT      O47866   6.933   8.696   2.586
15875WAT     H147867   6.919   8.625   2.656
15875WAT     H247868   6.926   8.654   2.495
15876WAT      O47869   3.642   6.083   1.381
15876WAT     H147870   3.655   6.115   1.287
15876WAT     H247871   3.709   6.012   1.402
15877WAT      O47872   0.138   2.162   0.654
15877WAT     H147873   0.046   2.135   0.626
15877WAT     H247874   0.171   2.235   0.594
15878WAT      O47875   5.389   8.356   5.203
15878WAT     H147876   5.341   8.323   5.122
15878WAT     H247877   5.325   8.409   5.259
15879WAT      O47878   6.364   7.264   6.900
15879WAT     H147879   6.324   7.189   6.952
15879WAT     H247880   6.453   7.235   6.864
15880WAT      O47881   6.634   6.979   3.614
15880WAT     H147882   6.548   7.026   3.593
15880WAT     H247883   6.706   7.046   3.633
15881WAT      O47884   7.805   1.997   1.837
15881WAT     H147885   7.902   1.970   1.833
15881WAT     H247886   7.758   1.964   1.755
15882WAT      O47887   3.605   0.831   6.180
15882WAT     H147888   3.526   0.829   6.241
15882WAT     H247889   3.683   0.786   6.225
15883WAT      O47890   5.119   4.503   7.779
15883WAT     H147891   5.054   4.576   7.762
15883WAT     H247892   5.197   4.538   7.832
15884WAT      O47893   0.865   7.089   7.917
15884WAT     H147894   0.886   7.007   7.863
15884WAT     H247895   0.923   7.164   7.887
15885WAT      O47896   5.064   7.204   7.364
15885WAT     H147897   5.104   7.115   7.384
15885WAT     H247898   4.993   7.194   7.295
15886WAT      O47899   5.741   3.367   0.014
15886WAT     H147900   5.788   3.338  -0.069
15886WAT     H247901   5.647   3.395  -0.009
15887WAT      O47902   8.953   4.196   2.780
15887WAT     H147903   8.946   4.097   2.791
15887WAT     H247904   8.874   4.229   2.727
15888WAT      O47905   1.653   5.419   7.412
15888WAT     H147906   1.605   5.343   7.370
15888WAT     H247907   1.700   5.388   7.494
15889WAT      O47908   1.952   1.270   8.824
15889WAT     H147909   1.964   1.181   8.869
15889WAT     H247910   2.038   1.297   8.781
15890WAT      O47911   6.932   6.744   8.650
15890WAT     H147912   7.003   6.764   8.582
15890WAT     H247913   6.874   6.669   8.617
15891WAT      O47914   8.360   3.042   6.009
15891WAT     H147915   8.324   3.084   6.092
15891WAT     H247916   8.385   2.947   6.027
15892WAT      O47917   0.700   5.039   0.465
15892WAT     H147918   0.739   4.951   0.491
15892WAT     H247919   0.773   5.105   0.447
15893WAT      O47920   0.356   0.266   1.988
15893WAT     H147921   0.278   0.289   2.046
15893WAT     H247922   0.348   0.315   1.901
15894WAT      O47923   5.471   6.331   8.532
15894WAT     H147924   5.552   6.376   8.570
15894WAT     H247925   5.475   6.331   8.432
15895WAT      O47926   7.030   5.201   3.885
15895WAT     H147927   7.007   5.200   3.982
15895WAT     H247928   6.957   5.158   3.832
15896WAT      O47929   8.823   6.785   3.961
15896WAT     H147930   8.785   6.862   4.013
15896WAT     H247931   8.764   6.766   3.883
15897WAT      O47932   1.895   8.922   2.070
15897WAT     H147933   1.918   8.874   1.985
15897WAT     H247934   1.921   8.865   2.148
15898WAT      O47935   0.071   8.502   4.369
15898WAT     H147936  -0.002   8.565   4.340
15898WAT     H247937   0.106   8.531   4.457
15899WAT      O47938   1.128   3.075   4.361
15899WAT     H147939   1.055   3.137   4.390
15899WAT     H247940   1.214   3.105   4.402
15900WAT      O47941   5.074   8.149   1.825
15900WAT     H147942   5.165   8.148   1.784
15900WAT     H247943   5.083   8.168   1.923
15901WAT      O47944   7.454   7.017   3.732
15901WAT     H147945   7.357   6.994   3.728
15901WAT     H247946   7.506   6.938   3.763
15902WAT      O47947   3.688   8.086   3.872
15902WAT     H147948   3.785   8.110   3.859
15902WAT     H247949   3.682   7.993   3.907
15903WAT      O47950   0.899   2.143   4.441
15903WAT     H147951   0.847   2.215   4.487
15903WAT     H247952   0.924   2.173   4.349
15904WAT      O47953   0.818   0.660   0.228
15904WAT     H147954   0.746   0.667   0.160
15904WAT     H247955   0.903   0.630   0.184
15905WAT      O47956   1.360   5.808   7.974
15905WAT     H147957   1.321   5.872   7.908
15905WAT     H247958   1.381   5.856   8.059
15906WAT      O47959   4.029   5.763   8.864
15906WAT     H147960   4.022   5.821   8.946
15906WAT     H247961   3.953   5.784   8.803
15907WAT      O47962   5.160   1.907   0.557
15907WAT     H147963   5.208   1.985   0.596
15907WAT     H247964   5.071   1.896   0.601
15908WAT      O47965   1.856   4.114   0.755
15908WAT     H147966   1.901   4.203   0.755
15908WAT     H247967   1.884   4.062   0.675
15909WAT      O47968   5.907   4.540   1.148
15909WAT     H147969   5.908   4.485   1.065
15909WAT     H247970   5.997   4.539   1.191
15910WAT      O47971   0.971   9.429   0.301
15910WAT     H147972   0.932   9.517   0.272
15910WAT     H247973   1.063   9.443   0.336
15911WAT      O47974   0.302   6.503   3.300
15911WAT     H147975   0.387   6.506   3.352
15911WAT     H247976   0.309   6.434   3.228
15912WAT      O47977   3.579   1.365   1.879
15912WAT     H147978   3.617   1.306   1.949
15912WAT     H247979   3.639   1.365   1.799
15913WAT      O47980   3.184   5.468   3.957
15913WAT     H147981   3.245   5.493   3.882
15913WAT     H247982   3.117   5.401   3.926
15914WAT      O47983   8.735   4.000   0.012
15914WAT     H147984   8.672   3.932   0.048
15914WAT     H247985   8.690   4.050  -0.062
15915WAT      O47986   0.500   5.126   7.738
15915WAT     H147987   0.565   5.058   7.705
15915WAT     H247988   0.461   5.176   7.660
15916WAT      O47989   6.901   2.771   5.787
15916WAT     H147990   6.872   2.758   5.882
15916WAT     H247991   6.920   2.681   5.746
15917WAT      O47992   2.976   4.943   4.073
15917WAT     H147993   3.035   4.864   4.088
15917WAT     H247994   2.881   4.917   4.090
15918WAT      O47995   4.264   1.272   2.940
15918WAT     H147996   4.229   1.359   2.977
15918WAT     H247997   4.362   1.280   2.924
15919WAT      O47998   4.220   4.617   9.111
15919WAT     H147999   4.310   4.658   9.127
15919WAT     H248000   4.214   4.586   9.016
15920WAT      O48001   5.613   2.157   6.464
15920WAT     H148002   5.575   2.066   6.480
15920WAT     H248003   5.567   2.223   6.524
15921WAT      O48004   8.839   9.840   7.309
15921WAT     H148005   8.907   9.819   7.379
15921WAT     H248006   8.884   9.856   7.221
15922WAT      O48007   5.126   4.778   0.761
15922WAT     H148008   5.138   4.840   0.683
15922WAT     H248009   5.206   4.785   0.821
15923WAT      O48010   8.766   2.928   8.714
15923WAT     H148011   8.698   2.950   8.784
15923WAT     H248012   8.789   2.831   8.718
15924WAT      O48013   4.954   7.348   4.746
15924WAT     H148014   5.029   7.287   4.719
15924WAT     H248015   4.981   7.443   4.728
15925WAT      O48016   3.500   4.540   2.346
15925WAT     H148017   3.418   4.577   2.303
15925WAT     H248018   3.575   4.540   2.279
15926WAT      O48019   6.931   5.885   9.174
15926WAT     H148020   6.975   5.861   9.087
15926WAT     H248021   6.855   5.947   9.157
15927WAT      O48022   5.242   6.179   7.930
15927WAT     H148023   5.187   6.177   8.014
15927WAT     H248024   5.296   6.262   7.927
15928WAT      O48025   6.466   3.126   1.027
15928WAT     H148026   6.517   3.153   1.110
15928WAT     H248027   6.530   3.091   0.959
15929WAT      O48028   9.187   9.718   3.594
15929WAT     H148029   9.197   9.763   3.682
15929WAT     H248030   9.098   9.741   3.555
15930WAT      O48031   6.057   5.815   0.297
15930WAT     H148032   6.054   5.760   0.381
15930WAT     H248033   5.987   5.886   0.302
15931WAT      O48034   3.716   4.510   9.542
15931WAT     H148035   3.712   4.502   9.642
15931WAT     H248036   3.635   4.466   9.502
15932WAT      O48037   6.677   4.968   2.725
15932WAT     H148038   6.756   5.027   2.709
15932WAT     H248039   6.675   4.939   2.821
15933WAT      O48040   6.757   9.344   9.895
15933WAT     H148041   6.796   9.403   9.825
15933WAT     H248042   6.797   9.252   9.888
15934WAT      O48043   3.807   6.696   5.417
15934WAT     H148044   3.807   6.659   5.325
15934WAT     H248045   3.723   6.669   5.464
15935WAT      O48046   3.226   6.058   3.012
15935WAT     H148047   3.242   6.026   2.919
15935WAT     H248048   3.210   5.980   3.072
15936WAT      O48049   0.543   7.248   3.169
15936WAT     H148050   0.518   7.343   3.190
15936WAT     H248051   0.595   7.210   3.245
15937WAT      O48052   0.369   6.606   7.208
15937WAT     H148053   0.414   6.574   7.291
15937WAT     H248054   0.415   6.688   7.174
15938WAT      O48055   5.098   0.014   0.275
15938WAT     H148056   5.117   0.113   0.276
15938WAT     H248057   5.164  -0.033   0.333
15939WAT      O48058   2.238   9.200   8.029
15939WAT     H148059   2.192   9.214   8.116
15939WAT     H248060   2.185   9.242   7.956
15940WAT      O48061   0.348   3.585   8.362
15940WAT     H148062   0.297   3.569   8.277
15940WAT     H248063   0.384   3.497   8.395
15941WAT      O48064   4.952   9.155   6.508
15941WAT     H148065   4.871   9.156   6.450
15941WAT     H248066   4.943   9.224   6.580
15942WAT      O48067   7.912   6.236   3.552
15942WAT     H148068   7.979   6.168   3.521
15942WAT     H248069   7.833   6.234   3.492
15943WAT      O48070   6.226   6.354   4.882
15943WAT     H148071   6.201   6.294   4.806
15943WAT     H248072   6.156   6.424   4.894
15944WAT      O48073   2.131   1.857   0.086
15944WAT     H148074   2.079   1.866   0.002
15944WAT     H248075   2.217   1.907   0.078
15945WAT      O48076   5.729   4.506   5.505
15945WAT     H148077   5.768   4.459   5.584
15945WAT     H248078   5.688   4.593   5.534
15946WAT      O48079   0.304   6.082   0.922
15946WAT     H148080   0.306   6.086   0.822
15946WAT     H248081   0.373   6.019   0.955
15947WAT      O48082   0.634   4.596   9.081
15947WAT     H148083   0.611   4.689   9.110
15947WAT     H248084   0.734   4.586   9.076
15948WAT      O48085   3.399   8.762   7.486
15948WAT     H148086   3.391   8.764   7.585
15948WAT     H248087   3.376   8.670   7.453
15949WAT      O48088   2.264   7.649   9.799
15949WAT     H148089   2.228   7.570   9.850
15949WAT     H248090   2.314   7.709   9.861
15950WAT      O48091   6.311   2.620   7.394
15950WAT     H148092   6.256   2.540   7.419
15950WAT     H248093   6.365   2.600   7.312
15951WAT      O48094   6.636   3.645   0.849
15951WAT     H148095   6.598   3.665   0.939
15951WAT     H248096   6.566   3.600   0.793
15952WAT      O48097   2.906   7.398   0.574
15952WAT     H148098   2.880   7.302   0.580
15952WAT     H248099   2.827   7.456   0.596
15953WAT      O48100   7.759   1.543   7.906
15953WAT     H148101   7.764   1.639   7.879
15953WAT     H248102   7.804   1.532   7.995
15954WAT      O48103   7.971   9.448   3.280
15954WAT     H148104   8.058   9.496   3.267
15954WAT     H248105   7.951   9.392   3.200
15955WAT      O48106   5.013   2.307   7.418
15955WAT     H148107   4.992   2.348   7.506
15955WAT     H248108   5.002   2.375   7.345
15956WAT      O48109   5.841   3.142   5.045
15956WAT     H148110   5.818   3.205   4.971
15956WAT     H248111   5.807   3.177   5.132
15957WAT      O48112   6.531   8.731   4.872
15957WAT     H148113   6.469   8.774   4.937
15957WAT     H248114   6.624   8.731   4.910
15958WAT      O48115   2.464   3.359   8.045
15958WAT     H148116   2.558   3.364   8.078
15958WAT     H248117   2.464   3.333   7.948
15959WAT      O48118   1.660   2.440   6.451
15959WAT     H148119   1.669   2.355   6.504
15959WAT     H248120   1.714   2.433   6.367
15960WAT      O48121   6.602   5.894   8.993
15960WAT     H148122   6.633   5.813   9.042
15960WAT     H248123   6.638   5.976   9.037
15961WAT      O48124   1.789   8.431   1.194
15961WAT     H148125   1.818   8.520   1.159
15961WAT     H248126   1.814   8.423   1.291
15962WAT      O48127   6.531   1.928   1.870
15962WAT     H148128   6.473   1.893   1.797
15962WAT     H248129   6.491   1.903   1.959
15963WAT      O48130   3.500   2.935   3.749
15963WAT     H148131   3.527   2.932   3.845
15963WAT     H248132   3.580   2.922   3.691
15964WAT      O48133   8.615   0.730   1.282
15964WAT     H148134   8.618   0.825   1.313
15964WAT     H248135   8.524   0.692   1.299
15965WAT      O48136   8.959   7.510   5.932
15965WAT     H148137   8.959   7.541   6.027
15965WAT     H248138   8.890   7.562   5.880
15966WAT      O48139   4.607   8.995   4.247
15966WAT     H148140   4.518   8.971   4.287
15966WAT     H248141   4.679   8.969   4.312
15967WAT      O48142   5.544   7.324   3.137
15967WAT     H148143   5.539   7.385   3.058
15967WAT     H248144   5.452   7.309   3.173
15968WAT      O48145   1.790   8.466   5.226
15968WAT     H148146   1.870   8.489   5.170
15968WAT     H248147   1.759   8.374   5.204
15969WAT      O48148   9.880   3.250   9.104
15969WAT     H148149   9.780   3.257   9.103
15969WAT     H248150   9.921   3.341   9.107
15970WAT      O48151   6.165   3.477   3.476
15970WAT     H148152   6.070   3.452   3.462
15970WAT     H248153   6.215   3.400   3.515
15971WAT      O48154   7.693   1.744   9.268
15971WAT     H148155   7.742   1.694   9.340
15971WAT     H248156   7.596   1.749   9.291
15972WAT      O48157   1.079   8.797   6.437
15972WAT     H148158   1.121   8.801   6.527
15972WAT     H248159   1.010   8.869   6.428
15973WAT      O48160   5.300   1.979   9.330
15973WAT     H148161   5.321   1.899   9.386
15973WAT     H248162   5.382   2.006   9.279
15974WAT      O48163   8.361   9.318   6.678
15974WAT     H148164   8.375   9.303   6.580
15974WAT     H248165   8.403   9.244   6.730
15975WAT      O48166   8.676   6.869   1.496
15975WAT     H148167   8.700   6.772   1.508
15975WAT     H248168   8.585   6.875   1.454
15976WAT      O48169   0.869   3.749   5.242
15976WAT     H148170   0.880   3.844   5.273
15976WAT     H248171   0.895   3.686   5.315
15977WAT      O48172   4.863   6.001   4.088
15977WAT     H148173   4.821   5.959   4.169
15977WAT     H248174   4.793   6.017   4.019
15978WAT      O48175   7.168   5.747   5.408
15978WAT     H148176   7.187   5.824   5.470
15978WAT     H248177   7.096   5.772   5.344
15979WAT      O48178   4.748   5.368   6.240
15979WAT     H148179   4.717   5.386   6.333
15979WAT     H248180   4.840   5.404   6.227
15980WAT      O48181   7.041   3.745   3.885
15980WAT     H148182   7.132   3.787   3.879
15980WAT     H248183   7.034   3.671   3.818
15981WAT      O48184   8.730   5.676   9.472
15981WAT     H148185   8.702   5.631   9.387
15981WAT     H248186   8.810   5.628   9.509
15982WAT      O48187   9.699   8.356   7.970
15982WAT     H148188   9.608   8.369   7.930
15982WAT     H248189   9.707   8.264   8.007
15983WAT      O48190   9.108   4.877   9.003
15983WAT     H148191   9.010   4.894   8.999
15983WAT     H248192   9.129   4.822   9.084
15984WAT      O48193   0.117   6.391   8.451
15984WAT     H148194   0.027   6.388   8.407
15984WAT     H248195   0.174   6.319   8.413
15985WAT      O48196   7.138   6.780   4.787
15985WAT     H148197   7.182   6.870   4.790
15985WAT     H248198   7.208   6.709   4.783
15986WAT      O48199   6.351   0.723   6.263
15986WAT     H148200   6.270   0.761   6.218
15986WAT     H248201   6.370   0.775   6.347
15987WAT      O48202   9.567   9.481   2.815
15987WAT     H148203   9.618   9.396   2.798
15987WAT     H248204   9.498   9.465   2.885
15988WAT      O48205   9.880   9.041   0.463
15988WAT     H148206   9.962   9.096   0.447
15988WAT     H248207   9.814   9.058   0.389
15989WAT      O48208   4.124   6.607   4.088
15989WAT     H148209   4.178   6.543   4.142
15989WAT     H248210   4.172   6.627   4.002
15990WAT      O48211   4.381   6.045   2.557
15990WAT     H148212   4.435   6.128   2.570
15990WAT     H248213   4.329   6.026   2.641
15991WAT      O48214   3.983   3.475   3.523
15991WAT     H148215   3.934   3.470   3.436
15991WAT     H248216   4.061   3.412   3.520
15992WAT      O48217   0.993   9.183   1.441
15992WAT     H148218   1.016   9.281   1.441
15992WAT     H248219   1.016   9.143   1.530
15993WAT      O48220   8.148   0.320   7.703
15993WAT     H148221   8.054   0.299   7.727
15993WAT     H248222   8.210   0.258   7.751
15994WAT      O48223   9.446   7.497   0.721
15994WAT     H148224   9.500   7.581   0.713
15994WAT     H248225   9.354   7.520   0.754
15995WAT      O48226   5.964   5.285   9.563
15995WAT     H148227   5.956   5.360   9.628
15995WAT     H248228   5.880   5.231   9.564
15996WAT      O48229   2.907   4.599   7.069
15996WAT     H148230   2.878   4.507   7.042
15996WAT     H248231   2.884   4.664   6.996
15997WAT      O48232   6.569   7.226   4.908
15997WAT     H148233   6.628   7.152   4.874
15997WAT     H248234   6.493   7.239   4.845
15998WAT      O48235   2.284   6.142   0.091
15998WAT     H148236   2.200   6.176   0.133
15998WAT     H248237   2.326   6.215   0.037
15999WAT      O48238   0.561   6.960   5.769
15999WAT     H148239   0.476   6.922   5.732
15999WAT     H248240   0.539   7.026   5.841
16000WAT      O48241   9.585   0.315   2.981
16000WAT     H148242   9.657   0.384   2.988
16000WAT     H248243   9.523   0.339   2.906
16001WAT      O48244   5.852   4.796   6.848
16001WAT     H148245   5.844   4.804   6.748
16001WAT     H248246   5.943   4.826   6.877
16002WAT      O48247   8.748   3.923   4.941
16002WAT     H148248   8.841   3.904   4.973
16002WAT     H248249   8.736   4.021   4.929
16003WAT      O48250   9.445   8.370   3.434
16003WAT     H148251   9.438   8.278   3.397
16003WAT     H248252   9.488   8.367   3.524
16004WAT      O48253   7.960   2.038   3.345
16004WAT     H148254   7.870   2.081   3.347
16004WAT     H248255   8.026   2.096   3.393
16005WAT      O48256   5.764   5.825   2.966
16005WAT     H148257   5.831   5.770   2.918
16005WAT     H248258   5.811   5.896   3.019
16006WAT      O48259   2.527   4.142   7.994
16006WAT     H148260   2.489   4.127   7.903
16006WAT     H248261   2.539   4.054   8.040
16007WAT      O48262   6.714   9.023   3.332
16007WAT     H148263   6.689   9.061   3.243
16007WAT     H248264   6.801   9.063   3.361
16008WAT      O48265   8.064   7.851   8.692
16008WAT     H148266   8.143   7.902   8.727
16008WAT     H248267   8.021   7.903   8.619
16009WAT      O48268   6.830   2.819   5.098
16009WAT     H148269   6.867   2.908   5.124
16009WAT     H248270   6.902   2.763   5.057
16010WAT      O48271   5.584   1.012   6.981
16010WAT     H148272   5.562   1.100   7.025
16010WAT     H248273   5.500   0.969   6.950
16011WAT      O48274   8.094   7.763   5.294
16011WAT     H148275   7.994   7.761   5.291
16011WAT     H248276   8.127   7.683   5.345
16012WAT      O48277   4.605   0.611   2.157
16012WAT     H148278   4.594   0.512   2.160
16012WAT     H248279   4.651   0.642   2.240
16013WAT      O48280   5.059   8.797   5.870
16013WAT     H148281   5.029   8.722   5.928
16013WAT     H248282   5.007   8.880   5.894
16014WAT      O48283   9.634   4.429   8.419
16014WAT     H148284   9.701   4.431   8.493
16014WAT     H248285   9.543   4.410   8.458
16015WAT      O48286   4.757   5.189   6.719
16015WAT     H148287   4.787   5.285   6.722
16015WAT     H248288   4.696   5.176   6.641
16016WAT      O48289   1.378   0.632   0.398
16016WAT     H148290   1.415   0.715   0.356
16016WAT     H248291   1.317   0.657   0.473
16017WAT      O48292   9.044   4.032   4.244
16017WAT     H148293   9.052   4.130   4.262
16017WAT     H248294   9.012   4.018   4.150
16018WAT      O48295   3.807   4.173   3.984
16018WAT     H148296   3.768   4.171   4.076
16018WAT     H248297   3.791   4.264   3.944
16019WAT      O48298   0.879   3.841   7.890
16019WAT     H148299   0.786   3.820   7.922
16019WAT     H248300   0.880   3.845   7.791
16020WAT      O48301   9.039   5.934   3.692
16020WAT     H148302   9.064   5.915   3.597
16020WAT     H248303   8.951   5.980   3.695
16021WAT      O48304   3.485   4.534   5.543
16021WAT     H148305   3.498   4.458   5.607
16021WAT     H248306   3.572   4.556   5.499
16022WAT      O48307   1.947   1.457   5.117
16022WAT     H148308   1.975   1.548   5.145
16022WAT     H248309   1.999   1.429   5.037
16023WAT      O48310   7.425   0.879   2.096
16023WAT     H148311   7.401   0.822   2.175
16023WAT     H248312   7.480   0.825   2.032
16024WAT      O48313   8.311   5.981   9.046
16024WAT     H148314   8.292   5.927   9.128
16024WAT     H248315   8.295   5.926   8.965
16025WAT      O48316   1.978   2.663   7.643
16025WAT     H148317   2.067   2.684   7.601
16025WAT     H248318   1.944   2.576   7.608
16026WAT      O48319   6.715   2.264   4.225
16026WAT     H148320   6.801   2.231   4.187
16026WAT     H248321   6.720   2.264   4.325
16027WAT      O48322   3.097   4.686   6.512
16027WAT     H148323   3.060   4.742   6.586
16027WAT     H248324   3.055   4.595   6.515
16028WAT      O48325   8.646   4.023   7.862
16028WAT     H148326   8.713   3.952   7.842
16028WAT     H248327   8.571   4.018   7.795
16029WAT      O48328   9.282   7.725   4.794
16029WAT     H148329   9.303   7.681   4.881
16029WAT     H248330   9.311   7.666   4.719
16030WAT      O48331   6.098   3.913   2.134
16030WAT     H148332   6.179   3.859   2.110
16030WAT     H248333   6.110   3.952   2.225
16031WAT      O48334   2.975   2.607   9.736
16031WAT     H148335   3.025   2.529   9.698
16031WAT     H248336   2.915   2.645   9.665
16032WAT      O48337   0.941   6.742   0.625
16032WAT     H148338   1.016   6.681   0.649
16032WAT     H248339   0.973   6.837   0.627
16033WAT      O48340   2.948   5.775   9.678
16033WAT     H148341   2.897   5.805   9.598
16033WAT     H248342   3.019   5.711   9.651
16034WAT      O48343   5.703   1.602   0.823
16034WAT     H148344   5.679   1.570   0.731
16034WAT     H248345   5.799   1.582   0.841
16035WAT      O48346   3.623   5.249   3.284
16035WAT     H148347   3.611   5.250   3.384
16035WAT     H248348   3.721   5.248   3.263
16036WAT      O48349   1.968   6.166   5.134
16036WAT     H148350   2.030   6.098   5.173
16036WAT     H248351   2.021   6.235   5.084
16037WAT      O48352   3.795   2.754   8.930
16037WAT     H148353   3.739   2.767   9.012
16037WAT     H248354   3.861   2.830   8.922
16038WAT      O48355   6.803   9.759   4.617
16038WAT     H148356   6.831   9.853   4.638
16038WAT     H248357   6.724   9.761   4.555
16039WAT      O48358   8.589   7.195   3.366
16039WAT     H148359   8.630   7.121   3.312
16039WAT     H248360   8.545   7.260   3.305
16040WAT      O48361   5.847   7.009   3.143
16040WAT     H148362   5.883   7.064   3.218
16040WAT     H248363   5.836   6.914   3.173
16041WAT      O48364   8.989   5.049   7.897
16041WAT     H148365   9.008   5.002   7.984
16041WAT     H248366   8.892   5.073   7.893
16042WAT      O48367   2.534   5.744   3.845
16042WAT     H148368   2.459   5.723   3.908
16042WAT     H248369   2.511   5.825   3.791
16043WAT      O48370   3.321   6.495   6.778
16043WAT     H148371   3.278   6.419   6.729
16043WAT     H248372   3.291   6.581   6.738
16044WAT      O48373   0.325   1.550   7.876
16044WAT     H148374   0.272   1.601   7.943
16044WAT     H248375   0.393   1.610   7.834
16045WAT      O48376   3.207   1.142   9.461
16045WAT     H148377   3.274   1.078   9.498
16045WAT     H248378   3.136   1.091   9.412
16046WAT      O48379   4.012   6.158   7.870
16046WAT     H148380   3.924   6.198   7.844
16046WAT     H248381   4.043   6.096   7.797
16047WAT      O48382   7.681   2.017   9.259
16047WAT     H148383   7.685   1.918   9.273
16047WAT     H248384   7.768   2.058   9.284
16048WAT      O48385   8.034   0.958   6.960
16048WAT     H148386   7.998   0.885   6.903
16048WAT     H248387   8.069   1.032   6.902
16049WAT      O48388   9.783   5.765   9.583
16049WAT     H148389   9.877   5.770   9.551
16049WAT     H248390   9.726   5.827   9.528
16050WAT      O48391   2.583   7.793   5.946
16050WAT     H148392   2.585   7.697   5.975
16050WAT     H248393   2.529   7.846   6.012
16051WAT      O48394   2.052   9.133   1.900
16051WAT     H148395   2.029   9.047   1.944
16051WAT     H248396   2.091   9.196   1.967
16052WAT      O48397   3.863   1.827   8.543
16052WAT     H148398   3.960   1.843   8.527
16052WAT     H248399   3.852   1.750   8.607
16053WAT      O48400   0.210   1.216  -0.000
16053WAT     H148401   0.178   1.182   0.088
16053WAT     H248402   0.165   1.303  -0.020
16054WAT      O48403   0.200   0.824   6.761
16054WAT     H148404   0.229   0.918   6.779
16054WAT     H248405   0.271   0.776   6.711
16055WAT      O48406   9.576   1.652   0.875
16055WAT     H148407   9.614   1.740   0.904
16055WAT     H248408   9.528   1.610   0.952
16056WAT      O48409   0.411   1.363   1.273
16056WAT     H148410   0.505   1.394   1.263
16056WAT     H248411   0.350   1.426   1.224
16057WAT      O48412   1.143   9.194   4.334
16057WAT     H148413   1.082   9.118   4.355
16057WAT     H248414   1.216   9.199   4.404
16058WAT      O48415   0.612   5.168   2.319
16058WAT     H148416   0.556   5.085   2.326
16058WAT     H248417   0.565   5.235   2.262
16059WAT      O48418   0.760   8.843   6.657
16059WAT     H148419   0.705   8.924   6.677
16059WAT     H248420   0.700   8.767   6.632
16060WAT      O48421   8.127   4.016   8.256
16060WAT     H148422   8.129   3.928   8.209
16060WAT     H248423   8.142   4.089   8.189
16061WAT      O48424   9.319   4.997   0.550
16061WAT     H148425   9.279   4.927   0.609
16061WAT     H248426   9.415   4.975   0.533
16062WAT      O48427   4.054   0.177   5.250
16062WAT     H148428   4.114   0.243   5.295
16062WAT     H248429   4.087   0.159   5.157
16063WAT      O48430   9.001   5.943   2.422
16063WAT     H148431   9.017   5.851   2.385
16063WAT     H248432   8.978   6.005   2.348
16064WAT      O48433   4.297   9.631   0.897
16064WAT     H148434   4.310   9.537   0.863
16064WAT     H248435   4.203   9.659   0.880
16065WAT      O48436   4.871   8.262   2.233
16065WAT     H148437   4.794   8.316   2.198
16065WAT     H248438   4.836   8.189   2.291
16066WAT      O48439   2.547   8.906   4.084
16066WAT     H148440   2.558   8.863   3.994
16066WAT     H248441   2.498   8.992   4.073
16067WAT      O48442   0.220   4.777   8.984
16067WAT     H148443   0.317   4.782   8.960
16067WAT     H248444   0.170   4.848   8.935
16068WAT      O48445   1.593   5.219   8.906
16068WAT     H148446   1.688   5.225   8.875
16068WAT     H248447   1.533   5.218   8.826
16069WAT      O48448   7.966   3.265   4.945
16069WAT     H148449   7.893   3.285   4.879
16069WAT     H248450   7.956   3.326   5.024
16070WAT      O48451   8.765   3.680   3.250
16070WAT     H148452   8.669   3.700   3.268
16070WAT     H248453   8.773   3.595   3.198
16071WAT      O48454   0.460   2.428   7.482
16071WAT     H148455   0.439   2.335   7.512
16071WAT     H248456   0.379   2.467   7.437
16072WAT      O48457   8.862   0.333   0.354
16072WAT     H148458   8.818   0.296   0.273
16072WAT     H248459   8.796   0.336   0.429
16073WAT      O48460   8.133   2.891   4.347
16073WAT     H148461   8.104   2.985   4.363
16073WAT     H248462   8.086   2.830   4.410
16074WAT      O48463   1.019   4.186   5.467
16074WAT     H148464   0.987   4.159   5.558
16074WAT     H248465   1.095   4.251   5.476
16075WAT      O48466   3.767   8.994   0.712
16075WAT     H148467   3.778   8.974   0.614
16075WAT     H248468   3.686   8.946   0.746
16076WAT      O48469   6.930   7.410   6.991
16076WAT     H148470   7.004   7.438   6.930
16076WAT     H248471   6.842   7.436   6.951
16077WAT      O48472   1.712   6.480   4.971
16077WAT     H148473   1.694   6.392   5.014
16077WAT     H248474   1.793   6.521   5.013
16078WAT      O48475   2.444   4.253   5.168
16078WAT     H148476   2.428   4.298   5.256
16078WAT     H248477   2.357   4.226   5.128
16079WAT      O48478   2.618   7.401   6.701
16079WAT     H148479   2.638   7.384   6.604
16079WAT     H248480   2.523   7.378   6.720
16080WAT      O48481   1.538   2.645   4.061
16080WAT     H148482   1.610   2.685   4.118
16080WAT     H248483   1.570   2.639   3.967
16081WAT      O48484   8.805   4.287   6.759
16081WAT     H148485   8.763   4.201   6.788
16081WAT     H248486   8.849   4.330   6.838
16082WAT      O48487   7.414   6.112   8.645
16082WAT     H148488   7.355   6.137   8.723
16082WAT     H248489   7.385   6.024   8.608
16083WAT      O48490   5.891   2.543   4.883
16083WAT     H148491   5.928   2.613   4.821
16083WAT     H248492   5.827   2.586   4.947
16084WAT      O48493   5.134   6.223   8.567
16084WAT     H148494   5.175   6.222   8.658
16084WAT     H248495   5.196   6.178   8.502
16085WAT      O48496   0.272   8.677   5.951
16085WAT     H148497   0.365   8.670   5.916
16085WAT     H248498   0.237   8.769   5.934
16086WAT      O48499   2.991   8.331   0.502
16086WAT     H148500   2.949   8.246   0.470
16086WAT     H248501   2.925   8.406   0.493
16087WAT      O48502   0.054   9.351   5.155
16087WAT     H148503   0.031   9.398   5.240
16087WAT     H248504  -0.012   9.376   5.084
16088WAT      O48505   3.269   1.902   8.579
16088WAT     H148506   3.299   1.878   8.487
16088WAT     H248507   3.310   1.839   8.645
16089WAT      O48508   4.907   3.451   0.392
16089WAT     H148509   4.854   3.427   0.473
16089WAT     H248510   4.847   3.451   0.312
16090WAT      O48511   7.516   2.306   5.650
16090WAT     H148512   7.554   2.387   5.605
16090WAT     H248513   7.504   2.325   5.747
16091WAT      O48514   2.296   7.250   3.421
16091WAT     H148515   2.290   7.276   3.518
16091WAT     H248516   2.215   7.197   3.396
16092WAT      O48517   2.577   6.057   6.631
16092WAT     H148518   2.491   6.103   6.609
16092WAT     H248519   2.651   6.098   6.577
16093WAT      O48520   4.330   4.614   8.429
16093WAT     H148521   4.399   4.663   8.482
16093WAT     H248522   4.356   4.517   8.423
16094WAT      O48523   5.142   7.783   3.804
16094WAT     H148524   5.210   7.738   3.747
16094WAT     H248525   5.187   7.833   3.877
16095WAT      O48526   9.261   3.389   5.940
16095WAT     H148527   9.351   3.355   5.970
16095WAT     H248528   9.257   3.389   5.841
16096WAT      O48529   5.560   1.216   0.446
16096WAT     H148530   5.562   1.192   0.543
16096WAT     H248531   5.466   1.236   0.419
16097WAT      O48532   7.667   7.561   5.093
16097WAT     H148533   7.677   7.643   5.037
16097WAT     H248534   7.649   7.587   5.188
16098WAT      O48535   5.130   6.402   4.614
16098WAT     H148536   5.053   6.374   4.556
16098WAT     H248537   5.157   6.326   4.673
16099WAT      O48538   5.981   7.742   4.212
16099WAT     H148539   5.914   7.785   4.152
16099WAT     H248540   6.001   7.802   4.289
16100WAT      O48541   1.276   2.876   1.172
16100WAT     H148542   1.336   2.944   1.130
16100WAT     H248543   1.331   2.804   1.213
16101WAT      O48544   7.326   8.005   1.040
16101WAT     H148545   7.419   7.968   1.047
16101WAT     H248546   7.260   7.932   1.058
16102WAT      O48547   0.323   5.717   0.315
16102WAT     H148548   0.306   5.748   0.408
16102WAT     H248549   0.282   5.627   0.302
16103WAT      O48550   8.395   3.985   6.484
16103WAT     H148551   8.300   4.005   6.508
16103WAT     H248552   8.455   4.011   6.559
16104WAT      O48553   4.855   6.643   7.866
16104WAT     H148554   4.870   6.742   7.871
16104WAT     H248555   4.890   6.600   7.950
16105WAT      O48556   7.438   2.645   4.887
16105WAT     H148557   7.354   2.662   4.835
16105WAT     H248558   7.435   2.554   4.929
16106WAT      O48559   0.533   5.317   9.460
16106WAT     H148560   0.450   5.281   9.417
16106WAT     H248561   0.580   5.243   9.508
16107WAT      O48562   5.675   6.455   8.647
16107WAT     H148563   5.670   6.552   8.626
16107WAT     H248564   5.662   6.441   8.746
16108WAT      O48565   1.555   6.805   4.137
16108WAT     H148566   1.541   6.714   4.175
16108WAT     H248567   1.515   6.873   4.199
16109WAT      O48568   0.298   9.325   9.389
16109WAT     H148569   0.230   9.266   9.345
16109WAT     H248570   0.388   9.310   9.347
16110WAT      O48571   2.775   5.233   1.625
16110WAT     H148572   2.685   5.214   1.663
16110WAT     H248573   2.808   5.321   1.660
16111WAT      O48574   8.780   6.443   2.752
16111WAT     H148575   8.778   6.539   2.722
16111WAT     H248576   8.712   6.429   2.823
16112WAT      O48577   8.615   0.992   8.776
16112WAT     H148578   8.589   1.081   8.740
16112WAT     H248579   8.685   1.003   8.847
16113WAT      O48580   0.843   5.167   6.896
16113WAT     H148581   0.863   5.134   6.804
16113WAT     H248582   0.920   5.145   6.956
16114WAT      O48583   5.479   9.437   5.603
16114WAT     H148584   5.423   9.512   5.637
16114WAT     H248585   5.488   9.368   5.675
16115WAT      O48586   5.039   7.544   3.865
16115WAT     H148587   5.041   7.547   3.965
16115WAT     H248588   5.067   7.633   3.828
16116WAT      O48589   6.596   4.232   3.722
16116WAT     H148590   6.681   4.273   3.689
16116WAT     H248591   6.536   4.304   3.757
16117WAT      O48592   2.559   2.322   2.848
16117WAT     H148593   2.643   2.354   2.804
16117WAT     H248594   2.490   2.394   2.845
16118WAT      O48595   0.888   1.138   6.213
16118WAT     H148596   0.935   1.185   6.137
16118WAT     H248597   0.933   1.050   6.230
16119WAT      O48598   7.146   4.805   7.186
16119WAT     H148599   7.183   4.844   7.270
16119WAT     H248600   7.209   4.736   7.151
16120WAT      O48601   8.177   0.035   9.656
16120WAT     H148602   8.244   0.072   9.721
16120WAT     H248603   8.202   0.063   9.563
16121WAT      O48604   2.917   5.166   6.017
16121WAT     H148605   2.920   5.172   6.117
16121WAT     H248606   2.848   5.099   5.990
16122WAT      O48607   4.698   7.590   6.140
16122WAT     H148608   4.796   7.599   6.157
16122WAT     H248609   4.652   7.557   6.222
16123WAT      O48610   6.402   3.681   7.772
16123WAT     H148611   6.462   3.618   7.724
16123WAT     H248612   6.315   3.688   7.723
16124WAT      O48613   1.361   1.618   3.541
16124WAT     H148614   1.293   1.674   3.494
16124WAT     H248615   1.366   1.528   3.498
16125WAT      O48616   5.330   4.058   4.178
16125WAT     H148617   5.257   4.112   4.219
16125WAT     H248618   5.388   4.020   4.251
16126WAT      O48619   0.815   6.061   6.315
16126WAT     H148620   0.860   6.009   6.242
16126WAT     H248621   0.862   6.047   6.401
16127WAT      O48622   0.394   2.077   3.673
16127WAT     H148623   0.476   2.037   3.632
16127WAT     H248624   0.312   2.034   3.634
16128WAT      O48625   5.991   1.728   9.229
16128WAT     H148626   6.029   1.717   9.321
16128WAT     H248627   5.906   1.677   9.221
16129WAT      O48628   2.350   6.269   3.174
16129WAT     H148629   2.380   6.209   3.100
16129WAT     H248630   2.294   6.343   3.136
16130WAT      O48631   3.071   5.309   7.518
16130WAT     H148632   3.146   5.370   7.543
16130WAT     H248633   3.067   5.299   7.419
16131WAT      O48634   1.382   9.551   5.247
16131WAT     H148635   1.393   9.461   5.289
16131WAT     H248636   1.465   9.605   5.261
16132WAT      O48637   2.271   7.753   7.458
16132WAT     H148638   2.349   7.812   7.438
16132WAT     H248639   2.262   7.742   7.557
16133WAT      O48640   3.912   3.421   1.847
16133WAT     H148641   3.879   3.422   1.753
16133WAT     H248642   4.005   3.384   1.849
16134WAT      O48643   3.333   4.762   1.216
16134WAT     H148644   3.327   4.775   1.315
16134WAT     H248645   3.365   4.847   1.173
16135WAT      O48646   1.001   3.065   5.632
16135WAT     H148647   0.945   2.998   5.583
16135WAT     H248648   0.959   3.086   5.720
16136WAT      O48649   7.940   7.695   6.399
16136WAT     H148650   7.895   7.775   6.359
16136WAT     H248651   7.903   7.679   6.490
16137WAT      O48652   6.414   5.387   2.817
16137WAT     H148653   6.513   5.375   2.817
16137WAT     H248654   6.370   5.306   2.855
16138WAT      O48655   8.970   8.882   6.438
16138WAT     H148656   8.999   8.977   6.444
16138WAT     H248657   9.008   8.829   6.514
16139WAT      O48658   0.847   8.816   4.498
16139WAT     H148659   0.851   8.795   4.596
16139WAT     H248660   0.817   8.736   4.448
16140WAT      O48661   8.615   6.579   4.421
16140WAT     H148662   8.680   6.577   4.345
16140WAT     H248663   8.550   6.504   4.412
16141WAT      O48664   6.031   1.018   6.249
16141WAT     H148665   6.060   1.106   6.210
16141WAT     H248666   6.048   0.945   6.182
16142WAT      O48667   8.851   6.741   3.233
16142WAT     H148668   8.785   6.711   3.302
16142WAT     H248669   8.928   6.677   3.231
16143WAT      O48670   4.812   1.232   7.097
16143WAT     H148671   4.717   1.207   7.112
16143WAT     H248672   4.823   1.269   7.004
16144WAT      O48673   7.561   4.317   9.366
16144WAT     H148674   7.640   4.354   9.415
16144WAT     H248675   7.507   4.261   9.429
16145WAT      O48676   5.153   8.863   6.295
16145WAT     H148677   5.209   8.946   6.299
16145WAT     H248678   5.092   8.861   6.374
16146WAT      O48679   2.578   8.652   8.793
16146WAT     H148680   2.574   8.669   8.695
16146WAT     H248681   2.497   8.602   8.822
16147WAT      O48682   0.442   3.522   3.192
16147WAT     H148683   0.443   3.618   3.162
16147WAT     H248684   0.350   3.485   3.185
16148WAT      O48685   0.809   9.784   3.408
16148WAT     H148686   0.894   9.731   3.402
16148WAT     H248687   0.831   9.882   3.416
16149WAT      O48688   7.443   3.679   1.343
16149WAT     H148689   7.484   3.707   1.256
16149WAT     H248690   7.366   3.739   1.364
16150WAT      O48691   2.794   8.500   1.748
16150WAT     H148692   2.853   8.553   1.688
16150WAT     H248693   2.702   8.497   1.709
16151WAT      O48694   5.653   6.746   4.872
16151WAT     H148695   5.749   6.773   4.867
16151WAT     H248696   5.602   6.812   4.928
16152WAT      O48697   3.138   4.707   4.493
16152WAT     H148698   3.149   4.713   4.593
16152WAT     H248699   3.153   4.613   4.463
16153WAT      O48700   5.785   7.133   5.508
16153WAT     H148701   5.866   7.181   5.542
16153WAT     H248702   5.813   7.044   5.472
16154WAT      O48703   0.525   0.971   1.673
16154WAT     H148704   0.613   0.997   1.713
16154WAT     H248705   0.537   0.889   1.618
16155WAT      O48706   4.065   0.062   6.866
16155WAT     H148707   4.000   0.017   6.928
16155WAT     H248708   4.077   0.005   6.784
16156WAT      O48709   4.938   4.742   9.809
16156WAT     H148710   4.861   4.800   9.781
16156WAT     H248711   4.997   4.793   9.872
16157WAT      O48712   7.424   2.652   0.627
16157WAT     H148713   7.508   2.606   0.657
16157WAT     H248714   7.420   2.743   0.668
16158WAT      O48715   7.285   2.145   2.488
16158WAT     H148716   7.373   2.109   2.456
16158WAT     H248717   7.210   2.093   2.446
16159WAT      O48718   1.725   7.116   8.471
16159WAT     H148719   1.660   7.159   8.408
16159WAT     H248720   1.706   7.018   8.477
16160WAT      O48721   0.405   1.465   0.713
16160WAT     H148722   0.459   1.549   0.707
16160WAT     H248723   0.333   1.466   0.644
16161WAT      O48724   3.086   1.506   4.381
16161WAT     H148725   3.146   1.563   4.437
16161WAT     H248726   3.010   1.561   4.347
16162WAT      O48727   4.086   4.662   6.312
16162WAT     H148728   3.995   4.700   6.331
16162WAT     H248729   4.127   4.710   6.234
16163WAT      O48730   0.023   4.322   3.371
16163WAT     H148731   0.026   4.365   3.281
16163WAT     H248732  -0.014   4.386   3.438
16164WAT      O48733   0.306   9.594   6.232
16164WAT     H148734   0.370   9.669   6.250
16164WAT     H248735   0.272   9.601   6.138
16165WAT      O48736   9.397   4.757   3.377
16165WAT     H148737   9.358   4.676   3.421
16165WAT     H248738   9.405   4.830   3.444
16166WAT      O48739   0.847   7.605   3.267
16166WAT     H148740   0.872   7.517   3.225
16166WAT     H248741   0.929   7.661   3.277
16167WAT      O48742   7.943   5.611   6.832
16167WAT     H148743   7.954   5.576   6.925
16167WAT     H248744   7.882   5.551   6.780
16168WAT      O48745   3.494   4.776   5.240
16168WAT     H148746   3.449   4.753   5.154
16168WAT     H248747   3.582   4.820   5.222
16169WAT      O48748   7.919   5.492   8.009
16169WAT     H148749   7.887   5.586   8.024
16169WAT     H248750   8.018   5.490   8.013
16170WAT      O48751   9.317   0.667   0.740
16170WAT     H148752   9.267   0.595   0.692
16170WAT     H248753   9.256   0.713   0.805
16171WAT      O48754   8.031   3.550   1.216
16171WAT     H148755   8.125   3.563   1.183
16171WAT     H248756   7.971   3.534   1.138
16172WAT      O48757   7.859   8.380   6.308
16172WAT     H148758   7.864   8.413   6.213
16172WAT     H248759   7.931   8.423   6.362
16173WAT      O48760   3.151   0.444   3.078
16173WAT     H148761   3.059   0.456   3.116
16173WAT     H248762   3.144   0.390   2.994
16174WAT      O48763   5.993   0.925   3.977
16174WAT     H148764   6.046   1.010   3.966
16174WAT     H248765   6.046   0.860   4.033
16175WAT      O48766   2.223   6.208   4.414
16175WAT     H148767   2.201   6.285   4.474
16175WAT     H248768   2.301   6.158   4.451
16176WAT      O48769   6.106   4.770   8.236
16176WAT     H148770   6.104   4.852   8.178
16176WAT     H248771   6.183   4.775   8.299
16177WAT      O48772   7.523   5.390   4.183
16177WAT     H148773   7.508   5.480   4.222
16177WAT     H248774   7.473   5.322   4.237
16178WAT      O48775   3.949   1.730   5.608
16178WAT     H148776   3.927   1.647   5.557
16178WAT     H248777   4.046   1.751   5.599
16179WAT      O48778   3.217   8.558   9.739
16179WAT     H148779   3.251   8.591   9.651
16179WAT     H248780   3.136   8.501   9.725
16180WAT      O48781   8.721   5.983   1.079
16180WAT     H148782   8.648   5.946   1.136
16180WAT     H248783   8.808   5.941   1.104
16181WAT      O48784   6.708   3.991   3.766
16181WAT     H148785   6.656   4.074   3.784
16181WAT     H248786   6.793   4.015   3.718
16182WAT      O48787   2.221   8.890   0.654
16182WAT     H148788   2.167   8.970   0.681
16182WAT     H248789   2.172   8.839   0.583
16183WAT      O48790   2.052   3.409   3.870
16183WAT     H148791   2.096   3.423   3.959
16183WAT     H248792   1.984   3.336   3.878
16184WAT      O48793   9.567   3.086   7.313
16184WAT     H148794   9.527   3.069   7.403
16184WAT     H248795   9.624   3.168   7.318
16185WAT      O48796   9.733   8.913   6.616
16185WAT     H148797   9.664   8.953   6.677
16185WAT     H248798   9.688   8.862   6.544
16186WAT      O48799   3.593   8.606   3.704
16186WAT     H148800   3.620   8.621   3.800
16186WAT     H248801   3.496   8.585   3.700
16187WAT      O48802   6.909   9.474   1.846
16187WAT     H148803   6.906   9.567   1.882
16187WAT     H248804   6.984   9.424   1.890
16188WAT      O48805   2.175   6.758   5.478
16188WAT     H148806   2.209   6.836   5.531
16188WAT     H248807   2.227   6.676   5.501
16189WAT      O48808   7.903   8.871   4.871
16189WAT     H148809   7.884   8.897   4.777
16189WAT     H248810   7.997   8.838   4.879
16190WAT      O48811   7.919   5.534   0.147
16190WAT     H148812   7.942   5.446   0.107
16190WAT     H248813   8.004   5.583   0.171
16191WAT      O48814   1.049   8.575   4.643
16191WAT     H148815   0.995   8.586   4.726
16191WAT     H248816   1.014   8.497   4.591
16192WAT      O48817   8.750   9.768   9.775
16192WAT     H148818   8.697   9.684   9.764
16192WAT     H248819   8.690   9.847   9.760
16193WAT      O48820   7.391   2.230   7.133
16193WAT     H148821   7.473   2.203   7.083
16193WAT     H248822   7.337   2.149   7.156
16194WAT      O48823   3.257   0.160   0.407
16194WAT     H148824   3.306   0.074   0.424
16194WAT     H248825   3.309   0.236   0.446
16195WAT      O48826   8.858   4.727   1.585
16195WAT     H148827   8.795   4.768   1.519
16195WAT     H248828   8.950   4.725   1.547
16196WAT      O48829   0.149   8.320   8.577
16196WAT     H148830   0.143   8.416   8.603
16196WAT     H248831   0.244   8.298   8.552
16197WAT      O48832   0.085   9.356   1.548
16197WAT     H148833   0.161   9.355   1.483
16197WAT     H248834   0.031   9.272   1.538
16198WAT      O48835   2.757   4.166   6.318
16198WAT     H148836   2.772   4.163   6.417
16198WAT     H248837   2.841   4.140   6.271
16199WAT      O48838   0.621   4.229   6.853
16199WAT     H148839   0.719   4.243   6.838
16199WAT     H248840   0.581   4.187   6.772
16200WAT      O48841   2.605   0.906   5.646
16200WAT     H148842   2.645   0.961   5.719
16200WAT     H248843   2.510   0.934   5.631
16201WAT      O48844   5.446   8.308   0.218
16201WAT     H148845   5.531   8.260   0.197
16201WAT     H248846   5.460   8.365   0.299
16202WAT      O48847   6.789   7.646   2.772
16202WAT     H148848   6.848   7.668   2.850
16202WAT     H248849   6.814   7.703   2.694
16203WAT      O48850   1.700   8.021   6.972
16203WAT     H148851   1.719   8.116   6.948
16203WAT     H248852   1.601   8.007   6.977
16204WAT      O48853   9.822   9.787   7.095
16204WAT     H148854   9.747   9.853   7.097
16204WAT     H248855   9.851   9.766   7.189
16205WAT      O48856   7.329   1.370   9.153
16205WAT     H148857   7.428   1.384   9.153
16205WAT     H248858   7.303   1.317   9.234
16206WAT      O48859   7.368   1.910   0.536
16206WAT     H148860   7.371   1.831   0.598
16206WAT     H248861   7.377   1.879   0.442
16207WAT      O48862   3.237   8.017   0.836
16207WAT     H148863   3.241   7.948   0.908
16207WAT     H248864   3.188   7.980   0.757
16208WAT      O48865   2.870   0.134   7.560
16208WAT     H148866   2.893   0.038   7.544
16208WAT     H248867   2.921   0.168   7.638
16209WAT      O48868   9.597   5.077   9.264
16209WAT     H148869   9.500   5.098   9.251
16209WAT     H248870   9.652   5.158   9.244
16210WAT      O48871   2.836   5.343   1.101
16210WAT     H148872   2.740   5.331   1.123
16210WAT     H248873   2.892   5.293   1.167
16211WAT      O48874   5.134   1.761   4.424
16211WAT     H148875   5.171   1.673   4.454
16211WAT     H248876   5.073   1.747   4.346
16212WAT      O48877   5.908   2.591   0.344
16212WAT     H148878   5.851   2.513   0.321
16212WAT     H248879   6.000   2.560   0.367
16213WAT      O48880   0.124   7.500   9.037
16213WAT     H148881   0.223   7.515   9.032
16213WAT     H248882   0.094   7.446   8.958
16214WAT      O48883   1.665   3.948   3.701
16214WAT     H148884   1.580   3.994   3.726
16214WAT     H248885   1.652   3.849   3.710
16215WAT      O48886   2.361   5.661   4.024
16215WAT     H148887   2.262   5.669   4.014
16215WAT     H248888   2.387   5.674   4.119
16216WAT      O48889   3.817   4.133   8.615
16216WAT     H148890   3.871   4.106   8.695
16216WAT     H248891   3.823   4.232   8.602
16217WAT      O48892   4.514   5.198   0.406
16217WAT     H148893   4.579   5.248   0.463
16217WAT     H248894   4.421   5.221   0.434
16218WAT      O48895   7.628   5.442   6.183
16218WAT     H148896   7.531   5.444   6.208
16218WAT     H248897   7.655   5.533   6.152
16219WAT      O48898   5.689   9.707   3.279
16219WAT     H148899   5.778   9.670   3.303
16219WAT     H248900   5.693   9.807   3.280
16220WAT      O48901   6.390   5.149   2.448
16220WAT     H148902   6.412   5.231   2.394
16220WAT     H248903   6.291   5.139   2.455
16221WAT      O48904   3.004   4.456   5.001
16221WAT     H148905   3.074   4.456   5.073
16221WAT     H248906   2.921   4.499   5.036
16222WAT      O48907   6.839   0.147   1.183
16222WAT     H148908   6.790   0.098   1.111
16222WAT     H248909   6.846   0.244   1.158
16223WAT      O48910   8.488   3.826   4.935
16223WAT     H148911   8.485   3.742   4.989
16223WAT     H248912   8.572   3.876   4.957
16224WAT      O48913   6.163   8.576   0.525
16224WAT     H148914   6.185   8.507   0.594
16224WAT     H248915   6.245   8.597   0.472
16225WAT      O48916   1.497   4.464   5.759
16225WAT     H148917   1.565   4.441   5.828
16225WAT     H248918   1.425   4.520   5.800
16226WAT      O48919   1.828   6.475   8.171
16226WAT     H148920   1.783   6.462   8.260
16226WAT     H248921   1.850   6.385   8.133
16227WAT      O48922   8.392   8.768   9.024
16227WAT     H148923   8.415   8.848   9.079
16227WAT     H248924   8.412   8.685   9.077
16228WAT      O48925   2.063   3.570   5.993
16228WAT     H148926   1.989   3.503   6.008
16228WAT     H248927   2.025   3.651   5.949
16229WAT      O48928   2.375   8.269   4.586
16229WAT     H148929   2.332   8.359   4.584
16229WAT     H248930   2.369   8.231   4.679
16230WAT      O48931   6.191   3.472   5.257
16230WAT     H148932   6.168   3.566   5.281
16230WAT     H248933   6.287   3.467   5.230
16231WAT      O48934   0.362   2.238   1.745
16231WAT     H148935   0.385   2.203   1.835
16231WAT     H248936   0.445   2.265   1.696
16232WAT      O48937   3.606   1.626   1.282
16232WAT     H148938   3.583   1.547   1.339
16232WAT     H248939   3.655   1.595   1.201
16233WAT      O48940   7.624   3.541   2.061
16233WAT     H148941   7.537   3.526   2.014
16233WAT     H248942   7.610   3.601   2.139
16234WAT      O48943   7.987   1.933   0.587
16234WAT     H148944   7.917   1.924   0.657
16234WAT     H248945   7.998   1.846   0.539
16235WAT      O48946   4.445   1.660   5.199
16235WAT     H148947   4.398   1.573   5.217
16235WAT     H248948   4.471   1.702   5.286
16236WAT      O48949   1.903   0.523   0.211
16236WAT     H148950   1.834   0.456   0.238
16236WAT     H248951   1.933   0.573   0.292
16237WAT      O48952   3.693   3.702   7.781
16237WAT     H148953   3.777   3.724   7.732
16237WAT     H248954   3.691   3.752   7.867
16238WAT      O48955   5.911   0.981   1.451
16238WAT     H148956   5.859   1.037   1.386
16238WAT     H248957   6.009   0.998   1.438
16239WAT      O48958   8.345   2.524   2.517
16239WAT     H148959   8.341   2.606   2.461
16239WAT     H248960   8.422   2.467   2.488
16240WAT      O48961   7.858   5.184   2.974
16240WAT     H148962   7.762   5.163   2.990
16240WAT     H248963   7.901   5.212   3.060
16241WAT      O48964   6.943   1.602   9.837
16241WAT     H148965   6.920   1.524   9.778
16241WAT     H248966   7.035   1.634   9.816
16242WAT      O48967   6.212   2.192   9.347
16242WAT     H148968   6.297   2.212   9.396
16242WAT     H248969   6.154   2.133   9.404
16243WAT      O48970   0.190   1.434   2.192
16243WAT     H148971   0.257   1.364   2.216
16243WAT     H248972   0.110   1.391   2.150
16244WAT      O48973   2.671   0.402   7.549
16244WAT     H148974   2.733   0.339   7.596
16244WAT     H248975   2.656   0.370   7.455
16245WAT      O48976   7.632   8.333   7.497
16245WAT     H148977   7.703   8.297   7.435
16245WAT     H248978   7.597   8.259   7.554
16246WAT      O48979   9.134   7.207   4.800
16246WAT     H148980   9.219   7.171   4.761
16246WAT     H248981   9.144   7.219   4.898
16247WAT      O48982   6.498   9.737   4.771
16247WAT     H148983   6.577   9.721   4.831
16247WAT     H248984   6.469   9.833   4.778
16248WAT      O48985   4.767   8.327   5.702
16248WAT     H148986   4.837   8.360   5.765
16248WAT     H248987   4.809   8.304   5.614
16249WAT      O48988   0.332   1.640   0.423
16249WAT     H148989   0.295   1.553   0.453
16249WAT     H248990   0.381   1.627   0.337
16250WAT      O48991   8.306   2.340   3.465
16250WAT     H148992   8.345   2.395   3.390
16250WAT     H248993   8.218   2.379   3.492
16251WAT      O48994   9.115   7.943   5.326
16251WAT     H148995   9.117   7.868   5.391
16251WAT     H248996   9.022   7.980   5.321
16252WAT      O48997   7.478   6.885   4.880
16252WAT     H148998   7.542   6.901   4.956
16252WAT     H248999   7.393   6.934   4.897
16253WAT      O49000   8.362   8.625   3.545
16253WAT     H149001   8.432   8.639   3.616
16253WAT     H249002   8.310   8.543   3.566
16254WAT      O49003   3.643   7.854   1.263
16254WAT     H149004   3.732   7.847   1.217
16254WAT     H249005   3.572   7.814   1.204
16255WAT      O49006   7.304   2.118   3.116
16255WAT     H149007   7.338   2.087   3.205
16255WAT     H249008   7.374   2.102   3.046
16256WAT      O49009   1.990   4.895   9.112
16256WAT     H149010   1.979   4.993   9.124
16256WAT     H249011   1.907   4.856   9.073
16257WAT      O49012   5.814   4.770   1.402
16257WAT     H149013   5.805   4.706   1.478
16257WAT     H249014   5.765   4.734   1.323
16258WAT      O49015   8.537   1.840   0.058
16258WAT     H149016   8.533   1.819  -0.039
16258WAT     H249017   8.583   1.766   0.107
16259WAT      O49018   7.273   3.378   7.795
16259WAT     H149019   7.273   3.339   7.703
16259WAT     H249020   7.225   3.316   7.857
16260WAT      O49021   1.689   0.456   1.109
16260WAT     H149022   1.646   0.528   1.054
16260WAT     H249023   1.767   0.494   1.159
16261WAT      O49024   6.851   3.233   2.659
16261WAT     H149025   6.872   3.136   2.669
16261WAT     H249026   6.790   3.262   2.733
16262WAT      O49027   3.573   0.001   7.297
16262WAT     H149028   3.636  -0.004   7.374
16262WAT     H249029   3.606   0.068   7.230
16263WAT      O49030   3.027   6.680   6.297
16263WAT     H149031   3.022   6.610   6.369
16263WAT     H249032   3.100   6.657   6.233
16264WAT      O49033   9.865   2.196   7.319
16264WAT     H149034   9.820   2.116   7.280
16264WAT     H249035   9.869   2.186   7.419
16265WAT      O49036   7.262   7.941   1.359
16265WAT     H149037   7.360   7.941   1.340
16265WAT     H249038   7.227   8.035   1.359
16266WAT      O49039   7.450   3.786   8.372
16266WAT     H149040   7.528   3.849   8.368
16266WAT     H249041   7.482   3.693   8.353
16267WAT      O49042   6.005   7.714   8.247
16267WAT     H149043   5.967   7.776   8.316
16267WAT     H249044   6.060   7.643   8.292
16268WAT      O49045   6.806   6.542   4.189
16268WAT     H149046   6.723   6.594   4.207
16268WAT     H249047   6.782   6.449   4.162
16269WAT      O49048   0.200   6.558   2.354
16269WAT     H149049   0.291   6.560   2.396
16269WAT     H249050   0.133   6.530   2.422
16270WAT      O49051   4.350   3.683   5.491
16270WAT     H149052   4.309   3.592   5.482
16270WAT     H249053   4.295   3.749   5.440
16271WAT      O49054   0.523   9.410   6.363
16271WAT     H149055   0.612   9.456   6.369
16271WAT     H249056   0.453   9.477   6.337
16272WAT      O49057   0.176   5.130   0.138
16272WAT     H149058   0.124   5.214   0.148
16272WAT     H249059   0.116   5.057   0.106
16273WAT      O49060   3.985   4.711   9.762
16273WAT     H149061   4.061   4.704   9.826
16273WAT     H249062   3.901   4.682   9.807
16274WAT      O49063   7.905   2.182   8.535
16274WAT     H149064   7.953   2.269   8.545
16274WAT     H249065   7.807   2.199   8.528
16275WAT      O49066   6.647   1.325   8.448
16275WAT     H149067   6.611   1.244   8.402
16275WAT     H249068   6.744   1.311   8.468
16276WAT      O49069   3.552   6.618   8.908
16276WAT     H149070   3.510   6.614   8.818
16276WAT     H249071   3.609   6.699   8.915
16277WAT      O49072   7.363   1.761   0.974
16277WAT     H149073   7.394   1.709   1.054
16277WAT     H249074   7.417   1.845   0.967
16278WAT      O49075   0.304   0.720   8.554
16278WAT     H149076   0.226   0.738   8.494
16278WAT     H249077   0.289   0.635   8.604
16279WAT      O49078   2.355   2.744   4.218
16279WAT     H149079   2.355   2.644   4.207
16279WAT     H249080   2.419   2.769   4.291
16280WAT      O49081   3.608   6.673   0.201
16280WAT     H149082   3.665   6.635   0.127
16280WAT     H249083   3.667   6.722   0.265
16281WAT      O49084   3.391   6.651   4.147
16281WAT     H149085   3.443   6.704   4.214
16281WAT     H249086   3.352   6.713   4.079
16282WAT      O49087   5.694   8.162   6.643
16282WAT     H149088   5.641   8.103   6.704
16282WAT     H249089   5.662   8.256   6.650
16283WAT      O49090   4.633   8.220   5.922
16283WAT     H149091   4.539   8.231   5.952
16283WAT     H249092   4.649   8.276   5.840
16284WAT      O49093   6.629   4.869   4.810
16284WAT     H149094   6.711   4.872   4.752
16284WAT     H249095   6.629   4.947   4.871
16285WAT      O49096   9.035   0.723   5.931
16285WAT     H149097   9.133   0.734   5.945
16285WAT     H249098   8.985   0.785   5.992
16286WAT      O49099   5.524   9.290   5.818
16286WAT     H149100   5.615   9.328   5.833
16286WAT     H249101   5.460   9.331   5.882
16287WAT      O49102   1.806   3.018   9.844
16287WAT     H149103   1.861   3.062   9.915
16287WAT     H249104   1.753   3.088   9.795
16288WAT      O49105   3.246   6.864   1.985
16288WAT     H149106   3.176   6.935   1.974
16288WAT     H249107   3.228   6.789   1.922
16289WAT      O49108   2.013   6.770   4.389
16289WAT     H149109   2.026   6.846   4.326
16289WAT     H249110   1.916   6.753   4.402
16290WAT      O49111   0.477   2.542   2.638
16290WAT     H149112   0.483   2.486   2.720
16290WAT     H249113   0.420   2.622   2.656
16291WAT      O49114   1.536   8.832   3.407
16291WAT     H149115   1.470   8.840   3.482
16291WAT     H249116   1.561   8.735   3.395
16292WAT      O49117   1.043   2.767   8.746
16292WAT     H149118   0.972   2.708   8.785
16292WAT     H249119   1.002   2.853   8.716
16293WAT      O49120   5.104   0.989   4.816
16293WAT     H149121   5.203   0.980   4.814
16293WAT     H249122   5.069   1.005   4.724
16294WAT      O49123   7.075   0.670   2.402
16294WAT     H149124   7.019   0.662   2.320
16294WAT     H249125   7.172   0.674   2.377
16295WAT      O49126   6.077   3.039   1.956
16295WAT     H149127   5.999   3.093   1.924
16295WAT     H249128   6.161   3.089   1.938
16296WAT      O49129   6.385   9.758   5.350
16296WAT     H149130   6.417   9.778   5.257
16296WAT     H249131   6.295   9.799   5.364
16297WAT      O49132   0.160   2.051   1.081
16297WAT     H149133   0.244   2.092   1.115
16297WAT     H249134   0.091   2.123   1.067
16298WAT      O49135   0.945   3.191   7.418
16298WAT     H149136   0.920   3.177   7.514
16298WAT     H249137   0.933   3.106   7.367
16299WAT      O49138   8.854   9.153   8.762
16299WAT     H149139   8.795   9.230   8.737
16299WAT     H249140   8.929   9.186   8.820
16300WAT      O49141   8.561   4.944   9.690
16300WAT     H149142   8.517   4.968   9.776
16300WAT     H249143   8.497   4.892   9.634
16301WAT      O49144   9.557   6.916   7.460
16301WAT     H149145   9.559   6.949   7.555
16301WAT     H249146   9.648   6.926   7.420
16302WAT      O49147   6.381   7.048   3.529
16302WAT     H149148   6.360   6.998   3.613
16302WAT     H249149   6.336   7.137   3.532
16303WAT      O49150   0.213   1.594   1.196
16303WAT     H149151   0.116   1.617   1.198
16303WAT     H249152   0.256   1.636   1.116
16304WAT      O49153   5.186   3.875   7.732
16304WAT     H149154   5.086   3.876   7.729
16304WAT     H249155   5.222   3.960   7.693
16305WAT      O49156   5.882   0.361   3.727
16305WAT     H149157   5.888   0.406   3.816
16305WAT     H249158   5.813   0.289   3.731
16306WAT      O49159   7.717   5.617   8.367
16306WAT     H149160   7.716   5.691   8.435
16306WAT     H249161   7.693   5.655   8.277
16307WAT      O49162   0.463   4.936   9.857
16307WAT     H149163   0.383   4.893   9.815
16307WAT     H249164   0.440   5.028   9.887
16308WAT      O49165   0.699   0.493   9.370
16308WAT     H149166   0.700   0.420   9.301
16308WAT     H249167   0.786   0.543   9.366
16309WAT      O49168   2.098   7.809   9.489
16309WAT     H149169   2.176   7.747   9.480
16309WAT     H249170   2.086   7.833   9.585
16310WAT      O49171   4.203   3.366   7.389
16310WAT     H149172   4.255   3.331   7.311
16310WAT     H249173   4.123   3.309   7.404
16311WAT      O49174   9.425   0.437   2.520
16311WAT     H149175   9.418   0.383   2.436
16311WAT     H249176   9.381   0.526   2.507
16312WAT      O49177   0.754   7.062   8.164
16312WAT     H149178   0.778   7.076   8.068
16312WAT     H249179   0.680   6.995   8.170
16313WAT      O49180   7.910   0.670   3.156
16313WAT     H149181   7.902   0.675   3.056
16313WAT     H249182   7.845   0.603   3.191
16314WAT      O49183   5.110   3.291   3.135
16314WAT     H149184   5.143   3.211   3.085
16314WAT     H249185   5.027   3.326   3.090
16315WAT      O49186   1.928   7.367   6.351
16315WAT     H149187   2.004   7.302   6.345
16315WAT     H249188   1.866   7.353   6.273
16316WAT      O49189   3.105   6.871   7.130
16316WAT     H149190   3.093   6.948   7.068
16316WAT     H249191   3.107   6.904   7.225
16317WAT      O49192   1.910   7.253   1.338
16317WAT     H149193   1.911   7.155   1.358
16317WAT     H249194   1.843   7.272   1.266
16318WAT      O49195   3.396   7.497   2.187
16318WAT     H149196   3.440   7.500   2.276
16318WAT     H249197   3.391   7.402   2.155
16319WAT      O49198   6.702   4.516   0.463
16319WAT     H149199   6.659   4.488   0.549
16319WAT     H249200   6.776   4.580   0.482
16320WAT      O49201   6.040   6.467   9.493
16320WAT     H149202   6.105   6.474   9.569
16320WAT     H249203   5.997   6.376   9.494
16321WAT      O49204   1.140   9.234   1.205
16321WAT     H149205   1.081   9.300   1.159
16321WAT     H249206   1.090   9.188   1.278
16322WAT      O49207   2.515   2.424   3.768
16322WAT     H149208   2.488   2.493   3.835
16322WAT     H249209   2.614   2.413   3.769
16323WAT      O49210   5.656   7.975   4.238
16323WAT     H149211   5.579   7.913   4.257
16323WAT     H249212   5.623   8.069   4.238
16324WAT      O49213   2.907   7.717   5.381
16324WAT     H149214   2.987   7.761   5.341
16324WAT     H249215   2.919   7.710   5.480
16325WAT      O49216   0.905   0.449   8.137
16325WAT     H149217   0.968   0.426   8.212
16325WAT     H249218   0.894   0.548   8.133
16326WAT      O49219   9.357   9.676   5.756
16326WAT     H149220   9.326   9.641   5.668
16326WAT     H249221   9.450   9.711   5.748
16327WAT      O49222   4.557   4.082   8.518
16327WAT     H149223   4.629   4.013   8.508
16327WAT     H249224   4.595   4.172   8.495
16328WAT      O49225   4.163   8.427   7.862
16328WAT     H149226   4.125   8.519   7.871
16328WAT     H249227   4.260   8.433   7.840
16329WAT      O49228   8.002   3.781   6.023
16329WAT     H149229   8.091   3.736   6.019
16329WAT     H249230   7.971   3.782   6.118
16330WAT      O49231   4.117   7.429   3.032
16330WAT     H149232   4.159   7.480   3.107
16330WAT     H249233   4.186   7.409   2.963
16331WAT      O49234   3.352   9.116   2.120
16331WAT     H149235   3.326   9.198   2.069
16331WAT     H249236   3.307   9.036   2.079
16332WAT      O49237   9.643   8.938   8.276
16332WAT     H149238   9.702   8.884   8.216
16332WAT     H249239   9.569   8.978   8.222
16333WAT      O49240   0.474   1.617   8.783
16333WAT     H149241   0.572   1.631   8.794
16333WAT     H249242   0.456   1.564   8.700
16334WAT      O49243   8.570   9.733   0.723
16334WAT     H149244   8.474   9.757   0.733
16334WAT     H249245   8.622   9.768   0.802
16335WAT      O49246   3.200   3.356   5.095
16335WAT     H149247   3.179   3.273   5.043
16335WAT     H249248   3.272   3.336   5.162
16336WAT      O49249   0.604   1.001   1.188
16336WAT     H149250   0.669   0.966   1.255
16336WAT     H249251   0.513   0.965   1.209
16337WAT      O49252   8.086   4.961   5.538
16337WAT     H149253   8.173   4.935   5.580
16337WAT     H249254   8.039   4.878   5.506
16338WAT      O49255   2.507   8.023   7.998
16338WAT     H149256   2.537   8.000   8.090
16338WAT     H249257   2.407   8.017   7.992
16339WAT      O49258   5.394   9.068   0.106
16339WAT     H149259   5.444   9.089   0.190
16339WAT     H249260   5.458   9.049   0.032
16340WAT      O49261   1.447   4.637   5.326
16340WAT     H149262   1.349   4.655   5.320
16340WAT     H249263   1.495   4.720   5.354
16341WAT      O49264   2.089   2.664   9.747
16341WAT     H149265   2.094   2.622   9.657
16341WAT     H249266   2.021   2.737   9.747
16342WAT      O49267   5.010   6.671   0.885
16342WAT     H149268   5.000   6.653   0.788
16342WAT     H249269   5.104   6.652   0.913
16343WAT      O49270   0.498   3.371   5.715
16343WAT     H149271   0.571   3.396   5.778
16343WAT     H249272   0.513   3.278   5.682
16344WAT      O49273   6.909   7.304   5.222
16344WAT     H149274   6.872   7.319   5.130
16344WAT     H249275   6.894   7.208   5.248
16345WAT      O49276   1.512   5.992   0.937
16345WAT     H149277   1.581   5.949   0.995
16345WAT     H249278   1.522   5.959   0.843
16346WAT      O49279   1.858   2.881   5.922
16346WAT     H149280   1.834   2.954   5.986
16346WAT     H249281   1.835   2.910   5.829
16347WAT      O49282   4.326   0.347   3.360
16347WAT     H149283   4.277   0.430   3.388
16347WAT     H249284   4.261   0.280   3.324
16348WAT      O49285   0.442   0.661   9.722
16348WAT     H149286   0.437   0.565   9.749
16348WAT     H249287   0.482   0.668   9.631
16349WAT      O49288   0.574   7.780   6.523
16349WAT     H149289   0.557   7.714   6.449
16349WAT     H249290   0.640   7.742   6.587
16350WAT      O49291   6.081   6.856   4.691
16350WAT     H149292   6.049   6.926   4.627
16350WAT     H249293   6.114   6.776   4.639
16351WAT      O49294   9.531   1.947   5.150
16351WAT     H149295   9.506   1.862   5.103
16351WAT     H249296   9.452   2.008   5.154
16352WAT      O49297   9.197   0.423   8.773
16352WAT     H149298   9.236   0.506   8.812
16352WAT     H249299   9.097   0.432   8.767
16353WAT      O49300   3.696   5.734   9.397
16353WAT     H149301   3.674   5.697   9.488
16353WAT     H249302   3.638   5.813   9.379
16354WAT      O49303   1.912   4.403   0.769
16354WAT     H149304   1.972   4.469   0.814
16354WAT     H249305   1.821   4.443   0.757
16355WAT      O49306   4.260   5.361   0.806
16355WAT     H149307   4.303   5.419   0.875
16355WAT     H249308   4.216   5.282   0.851
16356WAT      O49309   6.661   7.983   6.751
16356WAT     H149310   6.604   7.956   6.828
16356WAT     H249311   6.632   7.933   6.669
16357WAT      O49312   7.541   5.398   3.070
16357WAT     H149313   7.564   5.465   3.140
16357WAT     H249314   7.597   5.316   3.083
16358WAT      O49315   8.707   1.983   3.113
16358WAT     H149316   8.765   1.906   3.141
16358WAT     H249317   8.664   1.963   3.025
16359WAT      O49318   0.341   4.761   1.930
16359WAT     H149319   0.368   4.702   1.854
16359WAT     H249320   0.420   4.814   1.961
16360WAT      O49321   7.652   8.313   5.270
16360WAT     H149322   7.681   8.328   5.364
16360WAT     H249323   7.707   8.370   5.209
16361WAT      O49324   4.776   3.040   6.135
16361WAT     H149325   4.801   3.069   6.043
16361WAT     H249326   4.851   2.987   6.175
16362WAT      O49327   7.725   1.326   6.501
16362WAT     H149328   7.730   1.283   6.591
16362WAT     H249329   7.800   1.390   6.490
16363WAT      O49330   8.837   0.990   2.932
16363WAT     H149331   8.766   1.022   2.869
16363WAT     H249332   8.801   0.993   3.026
16364WAT      O49333   7.377   3.330   1.276
16364WAT     H149334   7.323   3.384   1.340
16364WAT     H249335   7.474   3.354   1.284
16365WAT      O49336   4.729   2.272   6.322
16365WAT     H149337   4.786   2.193   6.299
16365WAT     H249338   4.756   2.350   6.265
16366WAT      O49339   5.599   0.681   8.325
16366WAT     H149340   5.550   0.594   8.332
16366WAT     H249341   5.630   0.694   8.231
16367WAT      O49342   4.321   0.483   3.718
16367WAT     H149343   4.225   0.463   3.695
16367WAT     H249344   4.342   0.444   3.808
16368WAT      O49345   1.882   3.297   1.887
16368WAT     H149346   1.907   3.337   1.975
16368WAT     H249347   1.783   3.306   1.873
16369WAT      O49348   9.732   1.572   8.133
16369WAT     H149349   9.690   1.525   8.210
16369WAT     H249350   9.723   1.671   8.145
16370WAT      O49351   3.599   2.286   8.031
16370WAT     H149352   3.602   2.264   8.128
16370WAT     H249353   3.660   2.225   7.981
16371WAT      O49354   5.003   1.833   1.902
16371WAT     H149355   5.058   1.879   1.972
16371WAT     H249356   4.934   1.897   1.867
16372WAT      O49357   4.027   2.261   5.382
16372WAT     H149358   3.963   2.326   5.342
16372WAT     H249359   3.981   2.206   5.452
16373WAT      O49360   8.158   3.642   7.940
16373WAT     H149361   8.208   3.695   7.871
16373WAT     H249362   8.217   3.572   7.978
16374WAT      O49363   9.010   7.431   3.576
16374WAT     H149364   9.088   7.468   3.525
16374WAT     H249365   8.957   7.507   3.616
16375WAT      O49366   8.952   1.871   5.064
16375WAT     H149367   8.854   1.863   5.080
16375WAT     H249368   8.995   1.919   5.140
16376WAT      O49369   5.448   2.162   5.761
16376WAT     H149370   5.476   2.086   5.701
16376WAT     H249371   5.424   2.126   5.851
16377WAT      O49372   0.337   1.521   2.687
16377WAT     H149373   0.338   1.575   2.772
16377WAT     H249374   0.331   1.583   2.609
16378WAT      O49375   7.895   7.963   5.557
16378WAT     H149376   7.913   8.049   5.509
16378WAT     H249377   7.917   7.975   5.654
16379WAT      O49378   6.578   4.490   1.106
16379WAT     H149379   6.594   4.402   1.150
16379WAT     H249380   6.646   4.506   1.035
16380WAT      O49381   6.239   5.758   8.452
16380WAT     H149382   6.315   5.738   8.514
16380WAT     H249383   6.152   5.751   8.500
16381WAT      O49384   3.415   4.698   3.120
16381WAT     H149385   3.351   4.765   3.082
16381WAT     H249386   3.507   4.735   3.119
16382WAT      O49387   2.263   7.397   9.423
16382WAT     H149388   2.206   7.433   9.497
16382WAT     H249389   2.240   7.443   9.338
16383WAT      O49390   0.748   2.084   5.283
16383WAT     H149391   0.685   2.072   5.206
16383WAT     H249392   0.721   2.023   5.357
16384WAT      O49393   7.882   7.770   1.657
16384WAT     H149394   7.789   7.803   1.673
16384WAT     H249395   7.915   7.805   1.570
16385WAT      O49396   2.083   5.242   7.469
16385WAT     H149397   2.004   5.207   7.419
16385WAT     H249398   2.123   5.169   7.524
16386WAT      O49399   2.755   3.520   5.924
16386WAT     H149400   2.731   3.533   5.828
16386WAT     H249401   2.828   3.452   5.931
16387WAT      O49402   3.498   1.871   6.199
16387WAT     H149403   3.574   1.845   6.259
16387WAT     H249404   3.510   1.828   6.110
16388WAT      O49405   5.335   7.102   6.133
16388WAT     H149406   5.280   7.178   6.167
16388WAT     H249407   5.304   7.017   6.174
16389WAT      O49408   6.844   3.813   0.458
16389WAT     H149409   6.854   3.908   0.487
16389WAT     H249410   6.886   3.753   0.526
16390WAT      O49411   6.606   7.225   2.981
16390WAT     H149412   6.662   7.148   2.951
16390WAT     H249413   6.614   7.300   2.915
16391WAT      O49414   0.243   8.466   2.832
16391WAT     H149415   0.224   8.469   2.734
16391WAT     H249416   0.157   8.459   2.882
16392WAT      O49417   7.678   5.768   4.405
16392WAT     H149418   7.754   5.764   4.341
16392WAT     H249419   7.643   5.676   4.420
16393WAT      O49420   4.829   1.089   0.104
16393WAT     H149421   4.907   1.065   0.161
16393WAT     H249422   4.817   1.019   0.033
16394WAT      O49423   8.531   2.678   7.475
16394WAT     H149424   8.589   2.759   7.469
16394WAT     H249425   8.523   2.636   7.385
16395WAT      O49426   4.837   7.647   0.273
16395WAT     H149427   4.805   7.576   0.336
16395WAT     H249428   4.915   7.695   0.314
16396WAT      O49429   8.498   5.657   2.183
16396WAT     H149430   8.480   5.559   2.176
16396WAT     H249431   8.446   5.705   2.112
16397WAT      O49432   1.008   5.577   5.992
16397WAT     H149433   0.933   5.532   6.041
16397WAT     H249434   1.095   5.540   6.023
16398WAT      O49435   6.341   7.060   4.471
16398WAT     H149436   6.369   6.976   4.517
16398WAT     H249437   6.293   7.119   4.536
16399WAT      O49438   4.176   5.001   8.494
16399WAT     H149439   4.176   5.075   8.561
16399WAT     H249440   4.104   5.016   8.426
16400WAT      O49441   7.025   8.487   1.927
16400WAT     H149442   7.082   8.568   1.939
16400WAT     H249443   7.036   8.450   1.835
16401WAT      O49444   7.417   9.375   7.830
16401WAT     H149445   7.413   9.409   7.924
16401WAT     H249446   7.450   9.280   7.831
16402WAT      O49447   0.293   1.255   9.373
16402WAT     H149448   0.205   1.294   9.346
16402WAT     H249449   0.315   1.282   9.467
16403WAT      O49450   1.712   0.370   9.475
16403WAT     H149451   1.752   0.422   9.550
16403WAT     H249452   1.613   0.362   9.490
16404WAT      O49453   3.647   9.771   9.556
16404WAT     H149454   3.736   9.770   9.603
16404WAT     H249455   3.614   9.865   9.550
16405WAT      O49456   9.141   9.579   0.247
16405WAT     H149457   9.072   9.513   0.277
16405WAT     H249458   9.212   9.587   0.317
16406WAT      O49459   0.395   9.275   4.839
16406WAT     H149460   0.485   9.231   4.837
16406WAT     H249461   0.405   9.372   4.819
16407WAT      O49462   0.165   2.985   6.654
16407WAT     H149463   0.254   2.946   6.678
16407WAT     H249464   0.094   2.916   6.666
16408WAT      O49465   0.293   2.628   3.427
16408WAT     H149466   0.340   2.544   3.397
16408WAT     H249467   0.198   2.606   3.448
16409WAT      O49468   4.394   7.419   5.258
16409WAT     H149469   4.465   7.428   5.188
16409WAT     H249470   4.381   7.322   5.280
16410WAT      O49471   7.965   6.034   1.713
16410WAT     H149472   7.986   5.938   1.729
16410WAT     H249473   7.896   6.065   1.778
16411WAT      O49474   3.176   4.086   2.567
16411WAT     H149475   3.234   4.158   2.529
16411WAT     H249476   3.116   4.051   2.495
16412WAT      O49477   9.441   0.294   2.269
16412WAT     H149478   9.376   0.305   2.194
16412WAT     H249479   9.430   0.203   2.310
16413WAT      O49480   1.872   2.016   3.363
16413WAT     H149481   1.792   2.073   3.342
16413WAT     H249482   1.923   2.057   3.439
16414WAT      O49483   0.864   9.243   5.034
16414WAT     H149484   0.938   9.197   5.084
16414WAT     H249485   0.825   9.180   4.967
16415WAT      O49486   1.153   3.267   6.260
16415WAT     H149487   1.126   3.196   6.325
16415WAT     H249488   1.168   3.226   6.170
16416WAT      O49489   5.519   8.740   3.954
16416WAT     H149490   5.606   8.779   3.923
16416WAT     H249491   5.463   8.715   3.875
16417WAT      O49492   3.826   2.142   7.848
16417WAT     H149493   3.903   2.163   7.788
16417WAT     H249494   3.781   2.058   7.816
16418WAT      O49495   3.636   4.236   1.185
16418WAT     H149496   3.645   4.335   1.179
16418WAT     H249497   3.651   4.208   1.280
16419WAT      O49498   8.361   3.091   5.368
16419WAT     H149499   8.445   3.137   5.394
16419WAT     H249500   8.361   3.073   5.270
16420WAT      O49501   2.845   3.263   4.732
16420WAT     H149502   2.839   3.170   4.695
16420WAT     H249503   2.886   3.324   4.665
16421WAT      O49504   2.964   3.357   4.390
16421WAT     H149505   3.058   3.392   4.397
16421WAT     H249506   2.906   3.425   4.346
16422WAT      O49507   9.376   8.384   7.030
16422WAT     H149508   9.318   8.433   6.965
16422WAT     H249509   9.319   8.349   7.105
16423WAT      O49510   3.737   2.500   3.111
16423WAT     H149511   3.817   2.559   3.115
16423WAT     H249512   3.761   2.407   3.140
16424WAT      O49513   6.127   7.843   3.086
16424WAT     H149514   6.071   7.782   3.029
16424WAT     H249515   6.067   7.905   3.137
16425WAT      O49516   2.261   1.553   2.180
16425WAT     H149517   2.169   1.529   2.151
16425WAT     H249518   2.257   1.622   2.252
16426WAT      O49519   3.219   0.705   1.546
16426WAT     H149520   3.147   0.648   1.507
16426WAT     H249521   3.211   0.705   1.646
16427WAT      O49522   1.097   4.864   1.876
16427WAT     H149523   1.029   4.791   1.875
16427WAT     H249524   1.149   4.860   1.962
16428WAT      O49525   6.900   3.533   7.579
16428WAT     H149526   6.968   3.565   7.646
16428WAT     H249527   6.946   3.478   7.509
16429WAT      O49528   2.489   2.615   6.914
16429WAT     H149529   2.535   2.536   6.954
16429WAT     H249530   2.543   2.649   6.836
16430WAT      O49531   6.521   9.411   7.091
16430WAT     H149532   6.503   9.507   7.112
16430WAT     H249533   6.571   9.404   7.005
16431WAT      O49534   6.979   9.104   4.478
16431WAT     H149535   6.950   9.009   4.478
16431WAT     H249536   6.917   9.158   4.534
16432WAT      O49537   0.189   7.935   9.255
16432WAT     H149538   0.188   7.871   9.332
16432WAT     H249539   0.179   8.029   9.289
16433WAT      O49540   2.179   1.371   1.408
16433WAT     H149541   2.137   1.306   1.346
16433WAT     H249542   2.197   1.327   1.496
16434WAT      O49543   0.695   2.352   1.869
16434WAT     H149544   0.767   2.329   1.936
16434WAT     H249545   0.725   2.325   1.778
16435WAT      O49546   0.472   0.627   6.522
16435WAT     H149547   0.385   0.601   6.478
16435WAT     H249548   0.534   0.549   6.519
16436WAT      O49549   9.194   9.028   6.578
16436WAT     H149550   9.168   9.023   6.675
16436WAT     H249551   9.130   9.088   6.530
16437WAT      O49552   5.416   7.168   4.421
16437WAT     H149553   5.419   7.130   4.328
16437WAT     H249554   5.325   7.207   4.437
16438WAT      O49555   5.495   6.738   7.269
16438WAT     H149556   5.554   6.717   7.191
16438WAT     H249557   5.451   6.826   7.254
16439WAT      O49558   1.782   2.879   7.637
16439WAT     H149559   1.793   2.954   7.702
16439WAT     H249560   1.851   2.809   7.655
16440WAT      O49561   5.874   7.309   0.549
16440WAT     H149562   5.821   7.250   0.610
16440WAT     H249563   5.874   7.271   0.457
16441WAT      O49564   4.776   4.800   3.227
16441WAT     H149565   4.794   4.739   3.304
16441WAT     H249566   4.812   4.760   3.143
16442WAT      O49567   8.798   8.597   1.959
16442WAT     H149568   8.785   8.600   2.058
16442WAT     H249569   8.809   8.502   1.930
16443WAT      O49570   8.263   7.025   5.534
16443WAT     H149571   8.321   6.995   5.459
16443WAT     H249572   8.181   7.069   5.498
16444WAT      O49573   2.157   3.405   4.135
16444WAT     H149574   2.214   3.370   4.209
16444WAT     H249575   2.065   3.422   4.169
16445WAT      O49576   4.606   9.830   3.186
16445WAT     H149577   4.563   9.879   3.262
16445WAT     H249578   4.575   9.868   3.099
16446WAT      O49579   2.294   8.107   0.787
16446WAT     H149580   2.331   8.190   0.829
16446WAT     H249581   2.227   8.131   0.718
16447WAT      O49582   7.833   5.668   3.227
16447WAT     H149583   7.876   5.726   3.296
16447WAT     H249584   7.778   5.598   3.272
16448WAT      O49585   1.099   1.839   8.104
16448WAT     H149586   1.062   1.931   8.108
16448WAT     H249587   1.103   1.799   8.196
16449WAT      O49588   3.108   9.754   6.620
16449WAT     H149589   3.026   9.780   6.672
16449WAT     H249590   3.082   9.735   6.525
16450WAT      O49591   6.259   5.405   1.882
16450WAT     H149592   6.203   5.483   1.851
16450WAT     H249593   6.223   5.321   1.842
16451WAT      O49594   2.359   8.611   5.425
16451WAT     H149595   2.405   8.662   5.498
16451WAT     H249596   2.383   8.650   5.336
16452WAT      O49597   1.287   8.946   6.073
16452WAT     H149598   1.332   8.970   6.159
16452WAT     H249599   1.299   9.019   6.007
16453WAT      O49600   2.287   2.437   6.805
16453WAT     H149601   2.341   2.489   6.871
16453WAT     H249602   2.200   2.411   6.847
16454WAT      O49603   2.831   0.378   0.795
16454WAT     H149604   2.768   0.305   0.767
16454WAT     H249605   2.920   0.338   0.819
16455WAT      O49606   2.904   4.761   7.469
16455WAT     H149607   2.993   4.782   7.430
16455WAT     H249608   2.869   4.676   7.429
16456WAT      O49609   6.773   9.600   7.812
16456WAT     H149610   6.728   9.611   7.724
16456WAT     H249611   6.854   9.544   7.802
16457WAT      O49612   1.092   3.083   1.946
16457WAT     H149613   1.160   3.152   1.923
16457WAT     H249614   1.112   2.999   1.896
16458WAT      O49615   7.145   8.449   2.285
16458WAT     H149616   7.205   8.499   2.222
16458WAT     H249617   7.162   8.351   2.276
16459WAT      O49618   4.553   1.258   3.738
16459WAT     H149619   4.493   1.179   3.749
16459WAT     H249620   4.497   1.338   3.715
16460WAT      O49621   8.703   5.047   7.817
16460WAT     H149622   8.754   5.051   7.732
16460WAT     H249623   8.646   4.965   7.818
16461WAT      O49624   3.892   9.289   6.922
16461WAT     H149625   3.837   9.248   6.849
16461WAT     H249626   3.986   9.300   6.890
16462WAT      O49627   3.648   5.396   8.966
16462WAT     H149628   3.644   5.348   9.054
16462WAT     H249629   3.742   5.420   8.945
16463WAT      O49630   0.774   7.030   5.593
16463WAT     H149631   0.757   7.021   5.495
16463WAT     H249632   0.687   7.021   5.642
16464WAT      O49633   1.776   7.122   6.158
16464WAT     H149634   1.840   7.074   6.097
16464WAT     H249635   1.768   7.217   6.128
16465WAT      O49636   4.986   4.462   7.350
16465WAT     H149637   4.969   4.425   7.259
16465WAT     H249638   4.899   4.475   7.398
16466WAT      O49639   8.518   3.150   1.149
16466WAT     H149640   8.465   3.230   1.176
16466WAT     H249641   8.501   3.130   1.053
16467WAT      O49642   6.495   4.464   0.118
16467WAT     H149643   6.472   4.547   0.170
16467WAT     H249644   6.593   4.460   0.102
16468WAT      O49645   3.168   8.376   1.391
16468WAT     H149646   3.069   8.382   1.383
16468WAT     H249647   3.193   8.359   1.486
16469WAT      O49648   6.200   9.389   4.396
16469WAT     H149649   6.164   9.477   4.364
16469WAT     H249650   6.251   9.345   4.323
16470WAT      O49651   2.143   0.741   7.086
16470WAT     H149652   2.137   0.692   6.998
16470WAT     H249653   2.230   0.790   7.090
16471WAT      O49654   2.102   8.063   4.600
16471WAT     H149655   2.057   8.145   4.636
16471WAT     H249656   2.121   8.075   4.503
16472WAT      O49657   0.912   8.631   4.023
16472WAT     H149658   0.820   8.627   3.985
16472WAT     H249659   0.927   8.551   4.082
16473WAT      O49660   0.333   5.378   9.768
16473WAT     H149661   0.291   5.469   9.776
16473WAT     H249662   0.276   5.321   9.709
16474WAT      O49663   0.756   0.925   4.834
16474WAT     H149664   0.714   0.865   4.902
16474WAT     H249665   0.740   1.020   4.861
16475WAT      O49666   7.586   3.547   1.070
16475WAT     H149667   7.585   3.496   1.156
16475WAT     H249668   7.502   3.602   1.062
16476WAT      O49669   7.025   3.042   8.163
16476WAT     H149670   7.046   2.989   8.245
16476WAT     H249671   7.029   2.983   8.082
16477WAT      O49672   5.761   4.585   7.727
16477WAT     H149673   5.752   4.682   7.750
16477WAT     H249674   5.807   4.576   7.639
16478WAT      O49675   1.367   1.588   3.806
16478WAT     H149676   1.287   1.640   3.833
16478WAT     H249677   1.371   1.582   3.707
16479WAT      O49678   3.171   5.260   9.342
16479WAT     H149679   3.121   5.224   9.262
16479WAT     H249680   3.108   5.270   9.419
16480WAT      O49681   7.936   1.272   0.506
16480WAT     H149682   8.030   1.236   0.505
16480WAT     H249683   7.874   1.203   0.467
16481WAT      O49684   3.934   1.527   6.654
16481WAT     H149685   3.938   1.627   6.663
16481WAT     H249686   3.841   1.495   6.674
16482WAT      O49687   3.469   0.800   3.666
16482WAT     H149688   3.482   0.896   3.644
16482WAT     H249689   3.413   0.757   3.595
16483WAT      O49690   0.783   6.479   1.721
16483WAT     H149691   0.856   6.421   1.687
16483WAT     H249692   0.821   6.568   1.747
16484WAT      O49693   3.810   3.541   8.883
16484WAT     H149694   3.755   3.606   8.830
16484WAT     H249695   3.876   3.591   8.938
16485WAT      O49696   3.053   4.695   1.974
16485WAT     H149697   3.018   4.609   2.011
16485WAT     H249698   3.125   4.730   2.033
16486WAT      O49699   9.262   3.394   0.915
16486WAT     H149700   9.342   3.427   0.966
16486WAT     H249701   9.260   3.294   0.917
16487WAT      O49702   5.731   8.532   7.796
16487WAT     H149703   5.691   8.480   7.720
16487WAT     H249704   5.820   8.569   7.768
16488WAT      O49705   5.900   9.062   8.920
16488WAT     H149706   5.971   9.126   8.891
16488WAT     H249707   5.931   9.013   9.002
16489WAT      O49708   8.444   3.718   1.077
16489WAT     H149709   8.486   3.657   1.010
16489WAT     H249710   8.375   3.774   1.031
16490WAT      O49711   8.976   6.109   7.455
16490WAT     H149712   8.936   6.076   7.369
16490WAT     H249713   9.016   6.199   7.441
16491WAT      O49714   7.643   5.664   9.723
16491WAT     H149715   7.738   5.632   9.721
16491WAT     H249716   7.581   5.585   9.722
16492WAT      O49717   5.519   4.395   3.605
16492WAT     H149718   5.619   4.392   3.616
16492WAT     H249719   5.484   4.482   3.638
16493WAT      O49720   8.647   8.498   4.380
16493WAT     H149721   8.679   8.591   4.362
16493WAT     H249722   8.698   8.460   4.458
16494WAT      O49723   0.847   4.632   2.562
16494WAT     H149724   0.930   4.686   2.548
16494WAT     H249725   0.840   4.606   2.658
16495WAT      O49726   5.959   1.701   5.028
16495WAT     H149727   6.041   1.671   4.979
16495WAT     H249728   5.880   1.652   4.993
16496WAT      O49729   1.116   2.109   8.657
16496WAT     H149730   1.205   2.119   8.613
16496WAT     H249731   1.126   2.123   8.755
16497WAT      O49732   3.453   2.136   1.121
16497WAT     H149733   3.400   2.057   1.092
16497WAT     H249734   3.445   2.147   1.220
16498WAT      O49735   0.970   5.049   7.864
16498WAT     H149736   0.902   5.110   7.907
16498WAT     H249737   0.925   4.993   7.795
16499WAT      O49738   8.070   3.456   0.015
16499WAT     H149739   7.994   3.500   0.063
16499WAT     H249740   8.042   3.366  -0.017
16500WAT      O49741   4.573   3.342   7.563
16500WAT     H149742   4.568   3.384   7.472
16500WAT     H249743   4.662   3.362   7.604
16501WAT      O49744   9.200   3.776   5.492
16501WAT     H149745   9.275   3.840   5.478
16501WAT     H249746   9.122   3.802   5.435
16502WAT      O49747   9.701   1.524   9.628
16502WAT     H149748   9.779   1.586   9.636
16502WAT     H249749   9.659   1.534   9.538
16503WAT      O49750   0.572   5.699   0.759
16503WAT     H149751   0.663   5.737   0.743
16503WAT     H249752   0.560   5.683   0.857
16504WAT      O49753   6.579   2.634   5.768
16504WAT     H149754   6.587   2.724   5.810
16504WAT     H249755   6.513   2.579   5.819
16505WAT      O49756   8.016   7.967   9.247
16505WAT     H149757   8.037   7.891   9.310
16505WAT     H249758   7.918   7.968   9.227
16506WAT      O49759   4.160   5.072   9.144
16506WAT     H149760   4.103   4.991   9.141
16506WAT     H249761   4.256   5.046   9.157
16507WAT      O49762   3.534   3.930   4.974
16507WAT     H149763   3.591   4.005   5.008
16507WAT     H249764   3.472   3.964   4.903
16508WAT      O49765   3.628   5.379   0.150
16508WAT     H149766   3.706   5.435   0.178
16508WAT     H249767   3.660   5.288   0.121
16509WAT      O49768   4.325   6.964   3.319
16509WAT     H149769   4.270   6.948   3.237
16509WAT     H249770   4.357   7.059   3.320
16510WAT      O49771   4.029   9.503   6.179
16510WAT     H149772   4.014   9.601   6.193
16510WAT     H249773   4.056   9.461   6.265
16511WAT      O49774   2.822   1.235   6.981
16511WAT     H149775   2.836   1.183   7.066
16511WAT     H249776   2.769   1.317   7.000
16512WAT      O49777   0.507   7.325   8.673
16512WAT     H149778   0.409   7.330   8.651
16512WAT     H249779   0.522   7.246   8.733
16513WAT      O49780   0.919   0.294   0.215
16513WAT     H149781   0.868   0.348   0.281
16513WAT     H249782   0.933   0.348   0.132
16514WAT      O49783   9.330   8.381   3.853
16514WAT     H149784   9.230   8.378   3.849
16514WAT     H249785   9.365   8.430   3.773
16515WAT      O49786   2.554   5.630   2.867
16515WAT     H149787   2.647   5.615   2.833
16515WAT     H249788   2.520   5.719   2.834
16516WAT      O49789   9.223   3.821   4.969
16516WAT     H149790   9.210   3.774   4.882
16516WAT     H249791   9.318   3.850   4.978
16517WAT      O49792   3.689   8.289   4.259
16517WAT     H149793   3.703   8.388   4.253
16517WAT     H249794   3.621   8.269   4.329
16518WAT      O49795   2.012   6.475   0.741
16518WAT     H149796   1.931   6.455   0.797
16518WAT     H249797   2.007   6.569   0.708
16519WAT      O49798   9.089   7.003   3.242
16519WAT     H149799   9.150   6.974   3.315
16519WAT     H249800   9.098   6.942   3.164
16520WAT      O49801   3.254   0.754   6.553
16520WAT     H149802   3.313   0.673   6.549
16520WAT     H249803   3.232   0.774   6.648
16521WAT      O49804   6.567   6.829   1.619
16521WAT     H149805   6.580   6.889   1.541
16521WAT     H249806   6.615   6.743   1.604
16522WAT      O49807   5.564   0.743   2.917
16522WAT     H149808   5.548   0.701   2.828
16522WAT     H249809   5.479   0.742   2.970
16523WAT      O49810   9.794   7.067   4.948
16523WAT     H149811   9.853   6.991   4.976
16523WAT     H249812   9.849   7.144   4.919
16524WAT      O49813   5.194   2.313   0.861
16524WAT     H149814   5.126   2.259   0.911
16524WAT     H249815   5.247   2.368   0.925
16525WAT      O49816   6.277   2.024   4.733
16525WAT     H149817   6.369   2.056   4.757
16525WAT     H249818   6.223   2.015   4.816
16526WAT      O49819   5.018   8.227   8.473
16526WAT     H149820   5.103   8.275   8.453
16526WAT     H249821   5.031   8.167   8.552
16527WAT      O49822   9.557   5.314   1.846
16527WAT     H149823   9.611   5.311   1.930
16527WAT     H249824   9.470   5.358   1.864
16528WAT      O49825   4.593   8.929   3.576
16528WAT     H149826   4.644   9.015   3.579
16528WAT     H249827   4.644   8.862   3.522
16529WAT      O49828   1.069   6.376   2.985
16529WAT     H149829   1.060   6.475   2.973
16529WAT     H249830   1.095   6.356   3.079
16530WAT      O49831   0.971   1.842   7.474
16530WAT     H149832   1.024   1.757   7.467
16530WAT     H249833   0.977   1.892   7.388
16531WAT      O49834   0.205   2.474   5.464
16531WAT     H149835   0.280   2.422   5.423
16531WAT     H249836   0.242   2.546   5.522
16532WAT      O49837   1.377   8.968   5.711
16532WAT     H149838   1.332   8.895   5.763
16532WAT     H249839   1.440   9.017   5.770
16533WAT      O49840   9.843   7.999   5.380
16533WAT     H149841   9.837   7.927   5.449
16533WAT     H249842   9.858   8.087   5.425
16534WAT      O49843   7.595   3.304   2.405
16534WAT     H149844   7.519   3.320   2.468
16534WAT     H249845   7.644   3.390   2.391
16535WAT      O49846   6.522   0.597   4.292
16535WAT     H149847   6.466   0.644   4.223
16535WAT     H249848   6.502   0.499   4.289
16536WAT      O49849   2.125   6.351   0.408
16536WAT     H149850   2.105   6.272   0.350
16536WAT     H249851   2.061   6.425   0.387
16537WAT      O49852   9.505   8.555   1.353
16537WAT     H149853   9.591   8.603   1.370
16537WAT     H249854   9.519   8.457   1.364
16538WAT      O49855   5.748   0.995   6.216
16538WAT     H149856   5.844   1.025   6.221
16538WAT     H249857   5.692   1.054   6.273
16539WAT      O49858   5.795   1.129   1.269
16539WAT     H149859   5.726   1.067   1.230
16539WAT     H249860   5.769   1.224   1.251
16540WAT      O49861   9.533   7.100   2.673
16540WAT     H149862   9.487   7.174   2.625
16540WAT     H249863   9.631   7.103   2.653
16541WAT      O49864   4.749   7.227   7.606
16541WAT     H149865   4.687   7.255   7.533
16541WAT     H249866   4.834   7.279   7.600
16542WAT      O49867   3.984   2.798   7.168
16542WAT     H149868   3.905   2.858   7.180
16542WAT     H249869   4.067   2.853   7.164
16543WAT      O49870   3.631   8.077   2.941
16543WAT     H149871   3.669   8.166   2.917
16543WAT     H249872   3.601   8.031   2.857
16544WAT      O49873   2.725   4.360   4.213
16544WAT     H149874   2.734   4.398   4.304
16544WAT     H249875   2.815   4.341   4.175
16545WAT      O49876   8.422   7.855   8.634
16545WAT     H149877   8.520   7.877   8.624
16545WAT     H249878   8.371   7.897   8.558
16546WAT      O49879   8.043   1.841   8.496
16546WAT     H149880   7.984   1.901   8.442
16546WAT     H249881   8.125   1.819   8.443
16547WAT      O49882   8.415   3.162   9.740
16547WAT     H149883   8.414   3.077   9.688
16547WAT     H249884   8.381   3.237   9.683
16548WAT      O49885   9.264   0.967   1.995
16548WAT     H149886   9.285   1.055   1.954
16548WAT     H249887   9.348   0.925   2.030
16549WAT      O49888   2.878   1.198   3.601
16549WAT     H149889   2.882   1.101   3.627
16549WAT     H249890   2.946   1.250   3.652
16550WAT      O49891   7.842   3.831   8.469
16550WAT     H149892   7.931   3.856   8.508
16550WAT     H249893   7.784   3.793   8.541
16551WAT      O49894   7.201   1.069   7.498
16551WAT     H149895   7.159   1.158   7.517
16551WAT     H249896   7.271   1.080   7.427
16552WAT      O49897   0.583   6.355   5.050
16552WAT     H149898   0.538   6.423   5.108
16552WAT     H249899   0.674   6.388   5.025
16553WAT      O49900   7.933   5.661   7.669
16553WAT     H149901   7.839   5.663   7.704
16553WAT     H249902   7.985   5.736   7.710
16554WAT      O49903   1.096   0.520   6.851
16554WAT     H149904   1.171   0.456   6.836
16554WAT     H249905   1.133   0.609   6.876
16555WAT      O49906   1.771   5.909   7.856
16555WAT     H149907   1.713   5.987   7.833
16555WAT     H249908   1.824   5.882   7.775
16556WAT      O49909   9.375   5.356   8.999
16556WAT     H149910   9.421   5.436   8.959
16556WAT     H249911   9.328   5.384   9.083
16557WAT      O49912   3.949   2.048   0.821
16557WAT     H149913   4.007   2.103   0.882
16557WAT     H249914   3.991   2.045   0.730
16558WAT      O49915   2.769   5.586   4.913
16558WAT     H149916   2.729   5.570   5.003
16558WAT     H249917   2.696   5.596   4.846
16559WAT      O49918   9.680   0.889   9.778
16559WAT     H149919   9.755   0.829   9.805
16559WAT     H249920   9.714   0.956   9.712
16560WAT      O49921   6.045   7.629   2.080
16560WAT     H149922   6.098   7.655   2.161
16560WAT     H249923   5.947   7.632   2.102
16561WAT      O49924   5.510   4.198   8.774
16561WAT     H149925   5.415   4.201   8.806
16561WAT     H249926   5.544   4.104   8.780
16562WAT      O49927   1.744   3.706   8.650
16562WAT     H149928   1.818   3.699   8.583
16562WAT     H249929   1.656   3.689   8.605
16563WAT      O49930   6.224   7.389   8.706
16563WAT     H149931   6.172   7.306   8.727
16563WAT     H249932   6.215   7.411   8.609
16564WAT      O49933   3.495   9.273   5.117
16564WAT     H149934   3.559   9.350   5.122
16564WAT     H249935   3.414   9.301   5.066
16565WAT      O49936   4.810   4.659   1.266
16565WAT     H149937   4.845   4.611   1.185
16565WAT     H249938   4.817   4.598   1.346
16566WAT      O49939   0.332   9.245   8.915
16566WAT     H149940   0.278   9.165   8.941
16566WAT     H249941   0.284   9.296   8.844
16567WAT      O49942   7.174   1.644   9.168
16567WAT     H149943   7.120   1.661   9.250
16567WAT     H249944   7.215   1.553   9.173
16568WAT      O49945   2.611   7.444   0.911
16568WAT     H149946   2.660   7.406   0.989
16568WAT     H249947   2.575   7.370   0.854
16569WAT      O49948   8.605   5.979   2.379
16569WAT     H149949   8.522   6.008   2.329
16569WAT     H249950   8.645   5.900   2.334
16570WAT      O49951   6.645   3.939   2.529
16570WAT     H149952   6.667   4.012   2.465
16570WAT     H249953   6.561   3.894   2.501
16571WAT      O49954   1.009   2.056   5.938
16571WAT     H149955   1.083   1.990   5.942
16571WAT     H249956   0.927   2.017   5.980
16572WAT      O49957   7.427   3.121   1.966
16572WAT     H149958   7.443   3.131   2.065
16572WAT     H249959   7.476   3.041   1.932
16573WAT      O49960   7.450   2.670   7.710
16573WAT     H149961   7.385   2.705   7.777
16573WAT     H249962   7.541   2.667   7.750
16574WAT      O49963   4.007   5.845   7.531
16574WAT     H149964   4.043   5.755   7.552
16574WAT     H249965   3.918   5.857   7.576
16575WAT      O49966   2.403   9.612   9.232
16575WAT     H149967   2.502   9.625   9.232
16575WAT     H249968   2.374   9.571   9.318
16576WAT      O49969   8.857   5.938   4.417
16576WAT     H149970   8.812   6.026   4.403
16576WAT     H249971   8.871   5.894   4.328
16577WAT      O49972   8.377   6.148   5.280
16577WAT     H149973   8.424   6.079   5.335
16577WAT     H249974   8.444   6.208   5.237
16578WAT      O49975   5.389   1.452   3.598
16578WAT     H149976   5.354   1.499   3.517
16578WAT     H249977   5.315   1.402   3.643
16579WAT      O49978   5.965   0.616   3.038
16579WAT     H149979   6.002   0.637   3.129
16579WAT     H249980   6.035   0.637   2.969
16580WAT      O49981   9.338   7.193   3.880
16580WAT     H149982   9.274   7.158   3.812
16580WAT     H249983   9.289   7.252   3.945
16581WAT      O49984   2.876   0.600   5.335
16581WAT     H149985   2.864   0.698   5.318
16581WAT     H249986   2.809   0.570   5.403
16582WAT      O49987   4.418   7.213   5.910
16582WAT     H149988   4.496   7.159   5.879
16582WAT     H249989   4.447   7.309   5.920
16583WAT      O49990   6.537   9.225   4.912
16583WAT     H149991   6.450   9.175   4.913
16583WAT     H249992   6.564   9.241   4.817
16584WAT      O49993   9.198   6.476   2.575
16584WAT     H149994   9.203   6.386   2.619
16584WAT     H249995   9.106   6.490   2.538
16585WAT      O49996   5.187   3.582   3.338
16585WAT     H149997   5.225   3.494   3.367
16585WAT     H249998   5.261   3.648   3.328
16586WAT      O49999   4.916   4.588   3.398
16586WAT     H150000   4.985   4.531   3.354
16586WAT     H250001   4.933   4.592   3.497
16587WAT      O50002   4.148   8.990   9.398
16587WAT     H150003   4.132   9.034   9.486
16587WAT     H250004   4.104   8.900   9.397
16588WAT      O50005   8.986   8.489   0.303
16588WAT     H150006   8.963   8.553   0.376
16588WAT     H250007   9.073   8.444   0.323
16589WAT      O50008   3.265   9.095   0.918
16589WAT     H150009   3.181   9.122   0.966
16589WAT     H250010   3.268   9.139   0.828
16590WAT      O50011   1.758   8.635   8.393
16590WAT     H150012   1.718   8.699   8.459
16590WAT     H250013   1.685   8.582   8.349
16591WAT      O50014   2.258   5.010   6.508
16591WAT     H150015   2.344   5.009   6.457
16591WAT     H250016   2.274   4.977   6.601
16592WAT      O50017   6.306   3.074   4.798
16592WAT     H150018   6.356   3.128   4.729
16592WAT     H250019   6.211   3.104   4.800
16593WAT      O50020   9.011   0.580   1.016
16593WAT     H150021   8.924   0.609   1.055
16593WAT     H250022   8.997   0.550   0.922
16594WAT      O50023   9.394   1.997   4.713
16594WAT     H150024   9.321   1.972   4.776
16594WAT     H250025   9.451   1.917   4.693
16595WAT      O50026   4.933   5.399   6.557
16595WAT     H150027   4.839   5.418   6.581
16595WAT     H250028   4.940   5.306   6.519
16596WAT      O50029   0.920   1.231   0.793
16596WAT     H150030   0.832   1.276   0.776
16596WAT     H250031   0.927   1.206   0.889
16597WAT      O50032   9.116   4.792   6.117
16597WAT     H150033   9.198   4.843   6.091
16597WAT     H250034   9.061   4.847   6.180
16598WAT      O50035   1.448   8.434   9.301
16598WAT     H150036   1.453   8.522   9.253
16598WAT     H250037   1.358   8.424   9.342
16599WAT      O50038   3.061   2.404   7.132
16599WAT     H150039   3.088   2.439   7.042
16599WAT     H250040   3.111   2.320   7.152
16600WAT      O50041   8.363   3.039   1.438
16600WAT     H150042   8.309   3.111   1.393
16600WAT     H250043   8.328   3.025   1.530
16601WAT      O50044   3.444   8.324   5.378
16601WAT     H150045   3.462   8.251   5.444
16601WAT     H250046   3.491   8.303   5.292
16602WAT      O50047   7.351   5.984   4.733
16602WAT     H150048   7.379   5.975   4.638
16602WAT     H250049   7.256   6.014   4.738
16603WAT      O50050   4.236   9.681   2.764
16603WAT     H150051   4.329   9.716   2.757
16603WAT     H250052   4.208   9.679   2.860
16604WAT      O50053   7.840   4.122   3.907
16604WAT     H150054   7.772   4.167   3.848
16604WAT     H250055   7.842   4.025   3.886
16605WAT      O50056   2.056   3.751   0.278
16605WAT     H150057   2.030   3.839   0.239
16605WAT     H250058   2.122   3.766   0.351
16606WAT      O50059   2.135   1.021   5.463
16606WAT     H150060   2.229   1.053   5.468
16606WAT     H250061   2.088   1.041   5.549
16607WAT      O50062   5.888   3.364   2.748
16607WAT     H150063   5.945   3.436   2.790
16607WAT     H250064   5.897   3.368   2.649
16608WAT      O50065   0.747   5.194   8.292
16608WAT     H150066   0.745   5.193   8.192
16608WAT     H250067   0.723   5.103   8.327
16609WAT      O50068   6.471   8.053   6.345
16609WAT     H150069   6.475   7.995   6.426
16609WAT     H250070   6.532   8.132   6.357
16610WAT      O50071   6.295   4.294   0.851
16610WAT     H150072   6.395   4.286   0.845
16610WAT     H250073   6.261   4.230   0.920
16611WAT      O50074   4.402   8.586   1.574
16611WAT     H150075   4.332   8.592   1.503
16611WAT     H250076   4.386   8.504   1.629
16612WAT      O50077   4.218   2.041   2.388
16612WAT     H150078   4.300   2.093   2.366
16612WAT     H250079   4.211   2.030   2.487
16613WAT      O50080   1.570   0.694   3.086
16613WAT     H150081   1.590   0.661   2.994
16613WAT     H250082   1.617   0.636   3.153
16614WAT      O50083   7.330   2.427   7.811
16614WAT     H150084   7.414   2.480   7.817
16614WAT     H250085   7.309   2.409   7.714
16615WAT      O50086   4.934   6.966   9.512
16615WAT     H150087   4.845   6.947   9.471
16615WAT     H250088   4.992   7.012   9.445
16616WAT      O50089   0.073   9.580   1.900
16616WAT     H150090   0.079   9.672   1.863
16616WAT     H250091   0.008   9.526   1.847
16617WAT      O50092   3.432   5.319   1.941
16617WAT     H150093   3.494   5.292   1.868
16617WAT     H250094   3.343   5.275   1.928
16618WAT      O50095   2.340   3.913   6.205
16618WAT     H150096   2.339   3.840   6.137
16618WAT     H250097   2.304   3.997   6.164
16619WAT      O50098   3.797   0.742   4.034
16619WAT     H150099   3.814   0.813   3.966
16619WAT     H250100   3.864   0.749   4.108
16620WAT      O50101   5.110   9.001   0.806
16620WAT     H150102   5.186   9.028   0.748
16620WAT     H250103   5.028   8.988   0.750
16621WAT      O50104   1.099   3.089   2.238
16621WAT     H150105   1.111   3.010   2.297
16621WAT     H250106   1.100   3.060   2.142
16622WAT      O50107   3.145   7.118   1.344
16622WAT     H150108   3.057   7.148   1.381
16622WAT     H250109   3.149   7.140   1.247
16623WAT      O50110   1.956   1.554   9.478
16623WAT     H150111   1.924   1.644   9.449
16623WAT     H250112   1.941   1.543   9.577
16624WAT      O50113   6.614   0.717   5.556
16624WAT     H150114   6.702   0.681   5.526
16624WAT     H250115   6.614   0.727   5.656
16625WAT      O50116   2.345   2.679   4.696
16625WAT     H150117   2.388   2.728   4.620
16625WAT     H250118   2.371   2.583   4.692
16626WAT      O50119   4.938   1.597   8.931
16626WAT     H150120   4.846   1.558   8.929
16626WAT     H250121   4.944   1.665   9.004
16627WAT      O50122   8.712   1.515   4.606
16627WAT     H150123   8.758   1.485   4.690
16627WAT     H250124   8.779   1.557   4.544
16628WAT      O50125   8.160   2.094   9.171
16628WAT     H150126   8.198   2.186   9.162
16628WAT     H250127   8.220   2.039   9.229
16629WAT      O50128   2.927   4.630   7.695
16629WAT     H150129   2.915   4.689   7.615
16629WAT     H250130   2.977   4.680   7.766
16630WAT      O50131   7.521   6.260   5.204
16630WAT     H150132   7.524   6.161   5.189
16630WAT     H250133   7.581   6.283   5.281
16631WAT      O50134   3.753   1.948   8.099
16631WAT     H150135   3.688   2.004   8.150
16631WAT     H250136   3.768   1.862   8.148
16632WAT      O50137   0.995   3.015   5.926
16632WAT     H150138   0.983   2.943   5.994
16632WAT     H250139   1.071   3.074   5.953
16633WAT      O50140   5.693   0.411   9.063
16633WAT     H150141   5.605   0.365   9.049
16633WAT     H250142   5.678   0.508   9.083
16634WAT      O50143   1.079   6.256   2.735
16634WAT     H150144   1.161   6.200   2.724
16634WAT     H250145   1.081   6.301   2.824
16635WAT      O50146   4.781   5.133   8.163
16635WAT     H150147   4.759   5.222   8.203
16635WAT     H250148   4.880   5.123   8.157
16636WAT      O50149   3.590   5.613   3.589
16636WAT     H150150   3.632   5.612   3.498
16636WAT     H250151   3.620   5.533   3.641
16637WAT      O50152   6.844   3.705   1.188
16637WAT     H150153   6.772   3.679   1.251
16637WAT     H250154   6.922   3.642   1.198
16638WAT      O50155   4.969   1.927   8.046
16638WAT     H150156   4.966   1.828   8.031
16638WAT     H250157   4.876   1.962   8.057
16639WAT      O50158   5.894   0.462   3.475
16639WAT     H150159   5.861   0.557   3.476
16639WAT     H250160   5.893   0.426   3.568
16640WAT      O50161   0.533   1.610   4.899
16640WAT     H150162   0.462   1.681   4.902
16640WAT     H250163   0.537   1.570   4.808
16641WAT      O50164   5.106   7.121   9.666
16641WAT     H150165   5.027   7.080   9.620
16641WAT     H250166   5.117   7.079   9.756
16642WAT      O50167   3.260   9.585   6.923
16642WAT     H150168   3.226   9.539   6.841
16642WAT     H250169   3.319   9.522   6.974
16643WAT      O50170   9.483   7.960   5.860
16643WAT     H150171   9.438   7.976   5.772
16643WAT     H250172   9.416   7.930   5.927
16644WAT      O50173   8.889   2.802   8.248
16644WAT     H150174   8.901   2.709   8.213
16644WAT     H250175   8.807   2.804   8.307
16645WAT      O50176   1.948   9.295   9.325
16645WAT     H150177   1.957   9.392   9.300
16645WAT     H250178   1.944   9.288   9.425
16646WAT      O50179   1.476   2.389   4.165
16646WAT     H150180   1.525   2.337   4.095
16646WAT     H250181   1.474   2.485   4.139
16647WAT      O50182   7.566   2.161   5.192
16647WAT     H150183   7.634   2.168   5.118
16647WAT     H250184   7.497   2.232   5.181
16648WAT      O50185   1.661   9.719   2.149
16648WAT     H150186   1.660   9.767   2.237
16648WAT     H250187   1.752   9.728   2.107
16649WAT      O50188   3.234   6.750   6.682
16649WAT     H150189   3.155   6.806   6.709
16649WAT     H250190   3.318   6.802   6.695
16650WAT      O50191   6.100   2.267   8.015
16650WAT     H150192   6.017   2.273   7.959
16650WAT     H250193   6.175   2.313   7.970
16651WAT      O50194   2.589   1.798   9.737
16651WAT     H150195   2.650   1.874   9.761
16651WAT     H250196   2.631   1.712   9.765
16652WAT      O50197   5.204   5.982   7.413
16652WAT     H150198   5.195   6.072   7.370
16652WAT     H250199   5.179   5.911   7.347
16653WAT      O50200   9.403   7.355   3.300
16653WAT     H150201   9.448   7.443   3.311
16653WAT     H250202   9.419   7.320   3.208
16654WAT      O50203   2.440   1.284   7.013
16654WAT     H150204   2.474   1.213   7.074
16654WAT     H250205   2.424   1.368   7.065
16655WAT      O50206   8.838   2.023   7.232
16655WAT     H150207   8.898   1.980   7.299
16655WAT     H250208   8.811   2.114   7.265
16656WAT      O50209   4.964   4.741   9.545
16656WAT     H150210   4.876   4.706   9.513
16656WAT     H250211   4.969   4.733   9.644
16657WAT      O50212   6.437   8.461   2.037
16657WAT     H150213   6.358   8.411   2.002
16657WAT     H250214   6.509   8.396   2.063
16658WAT      O50215   1.438   6.229   0.800
16658WAT     H150216   1.533   6.245   0.776
16658WAT     H250217   1.433   6.159   0.872
16659WAT      O50218   4.071   9.434   9.785
16659WAT     H150219   4.149   9.441   9.724
16659WAT     H250220   4.002   9.375   9.743
16660WAT      O50221   5.631   8.393   5.902
16660WAT     H150222   5.682   8.311   5.876
16660WAT     H250223   5.660   8.424   5.992
16661WAT      O50224   7.948   6.863   5.905
16661WAT     H150225   7.974   6.954   5.872
16661WAT     H250226   7.875   6.872   5.973
16662WAT      O50227   0.722   0.421   2.152
16662WAT     H150228   0.670   0.504   2.173
16662WAT     H250229   0.776   0.394   2.232
16663WAT      O50230   3.061   2.720   1.906
16663WAT     H150231   3.064   2.689   1.811
16663WAT     H250232   2.969   2.705   1.943
16664WAT      O50233   2.470   6.707   2.037
16664WAT     H150234   2.399   6.693   2.105
16664WAT     H250235   2.519   6.621   2.021
16665WAT      O50236   7.620   0.279   3.407
16665WAT     H150237   7.613   0.193   3.356
16665WAT     H250238   7.649   0.260   3.500
16666WAT      O50239   5.567   0.581   7.829
16666WAT     H150240   5.513   0.498   7.838
16666WAT     H250241   5.528   0.640   7.759
16667WAT      O50242   4.161   4.048   3.672
16667WAT     H150243   4.100   4.045   3.751
16667WAT     H250244   4.110   4.076   3.591
16668WAT      O50245   0.494   3.366   6.123
16668WAT     H150246   0.425   3.295   6.116
16668WAT     H250247   0.585   3.325   6.121
16669WAT      O50248   0.580   0.419   4.344
16669WAT     H150249   0.573   0.319   4.346
16669WAT     H250250   0.514   0.456   4.279
16670WAT      O50251   8.642   8.408   5.280
16670WAT     H150252   8.703   8.453   5.215
16670WAT     H250253   8.691   8.392   5.366
16671WAT      O50254   2.168   7.236   6.967
16671WAT     H150255   2.268   7.227   6.968
16671WAT     H250256   2.135   7.248   7.061
16672WAT      O50257   6.272   7.910   3.342
16672WAT     H150258   6.227   7.889   3.255
16672WAT     H250259   6.369   7.889   3.334
16673WAT      O50260   3.735   6.436   6.660
16673WAT     H150261   3.678   6.503   6.708
16673WAT     H250262   3.712   6.344   6.692
16674WAT      O50263   1.240   9.381   5.819
16674WAT     H150264   1.185   9.450   5.866
16674WAT     H250265   1.266   9.415   5.728
16675WAT      O50266   4.293   9.559   3.812
16675WAT     H150267   4.361   9.573   3.740
16675WAT     H250268   4.212   9.514   3.774
16676WAT      O50269   5.725   0.140   3.748
16676WAT     H150270   5.750   0.044   3.731
16676WAT     H250271   5.735   0.160   3.846
16677WAT      O50272   4.493   8.973   5.746
16677WAT     H150273   4.550   8.914   5.803
16677WAT     H250274   4.405   8.989   5.791
16678WAT      O50275   2.576   0.473   6.919
16678WAT     H150276   2.539   0.477   6.826
16678WAT     H250277   2.654   0.410   6.921
16679WAT      O50278   2.867   2.873   5.892
16679WAT     H150279   2.927   2.924   5.953
16679WAT     H250280   2.772   2.898   5.909
16680WAT      O50281   9.505   6.624   5.386
16680WAT     H150282   9.490   6.610   5.484
16680WAT     H250283   9.526   6.536   5.342
16681WAT      O50284   2.094   6.889   1.145
16681WAT     H150285   2.133   6.805   1.181
16681WAT     H250286   2.083   6.955   1.219
16682WAT      O50287   2.344   3.460   3.466
16682WAT     H150288   2.322   3.448   3.563
16682WAT     H250289   2.297   3.390   3.412
16683WAT      O50290   7.071   1.040   3.166
16683WAT     H150291   6.974   1.045   3.187
16683WAT     H250292   7.124   1.051   3.250
16684WAT      O50293   2.353   6.170   6.559
16684WAT     H150294   2.295   6.217   6.627
16684WAT     H250295   2.301   6.097   6.517
16685WAT      O50296   8.242   8.448   2.947
16685WAT     H150297   8.239   8.509   3.026
16685WAT     H250298   8.332   8.451   2.905
16686WAT      O50299   5.650   2.004   5.416
16686WAT     H150300   5.602   2.059   5.348
16686WAT     H250301   5.648   1.908   5.389
16687WAT      O50302   4.668   9.366   1.175
16687WAT     H150303   4.745   9.425   1.199
16687WAT     H250304   4.692   9.271   1.192
16688WAT      O50305   5.435   5.942   9.146
16688WAT     H150306   5.395   5.971   9.233
16688WAT     H250307   5.448   6.022   9.088
16689WAT      O50308   5.908   0.661   6.962
16689WAT     H150309   5.952   0.751   6.960
16689WAT     H250310   5.969   0.593   6.922
16690WAT      O50311   8.467   8.065   6.769
16690WAT     H150312   8.554   8.019   6.783
16690WAT     H250313   8.404   8.004   6.721
16691WAT      O50314   1.821   3.922   5.219
16691WAT     H150315   1.791   3.944   5.311
16691WAT     H250316   1.772   3.841   5.186
16692WAT      O50317   9.429   7.149   1.302
16692WAT     H150318   9.368   7.073   1.325
16692WAT     H250319   9.496   7.161   1.376
16693WAT      O50320   2.260   3.239   8.214
16693WAT     H150321   2.320   3.280   8.145
16693WAT     H250322   2.313   3.178   8.273
16694WAT      O50323   0.536   0.851   8.302
16694WAT     H150324   0.581   0.813   8.383
16694WAT     H250325   0.498   0.940   8.323
16695WAT      O50326   0.735   7.850   8.047
16695WAT     H150327   0.655   7.801   8.079
16695WAT     H250328   0.753   7.827   7.951
16696WAT      O50329   4.538   9.827   7.667
16696WAT     H150330   4.582   9.844   7.579
16696WAT     H250331   4.547   9.908   7.725
16697WAT      O50332   5.259   1.447   5.255
16697WAT     H150333   5.250   1.367   5.195
16697WAT     H250334   5.245   1.531   5.202
16698WAT      O50335   1.411   8.655   6.952
16698WAT     H150336   1.377   8.587   6.888
16698WAT     H250337   1.394   8.747   6.916
16699WAT      O50338   4.905   1.580   2.919
16699WAT     H150339   4.817   1.580   2.966
16699WAT     H250340   4.892   1.612   2.825
16700WAT      O50341   9.029   2.942   8.444
16700WAT     H150342   9.072   2.884   8.513
16700WAT     H250343   8.983   2.885   8.376
16701WAT      O50344   7.673   3.940   6.775
16701WAT     H150345   7.617   4.020   6.751
16701WAT     H250346   7.758   3.971   6.818
16702WAT      O50347   0.565   4.112   2.808
16702WAT     H150348   0.645   4.076   2.761
16702WAT     H250349   0.593   4.185   2.870
16703WAT      O50350   3.113   1.824   4.093
16703WAT     H150351   3.061   1.881   4.158
16703WAT     H250352   3.056   1.806   4.013
16704WAT      O50353   5.451   4.847   8.922
16704WAT     H150354   5.480   4.751   8.921
16704WAT     H250355   5.530   4.906   8.940
16705WAT      O50356   8.405   3.188   3.536
16705WAT     H150357   8.344   3.187   3.615
16705WAT     H250358   8.495   3.154   3.563
16706WAT      O50359   3.041   3.212   3.021
16706WAT     H150360   3.069   3.250   3.109
16706WAT     H250361   3.118   3.163   2.980
16707WAT      O50362   5.131   3.027   2.688
16707WAT     H150363   5.203   2.964   2.717
16707WAT     H250364   5.060   2.977   2.638
16708WAT      O50365   5.393   6.476   4.967
16708WAT     H150366   5.404   6.574   4.984
16708WAT     H250367   5.404   6.425   5.053
16709WAT      O50368   8.056   9.628   3.568
16709WAT     H150369   8.086   9.574   3.647
16709WAT     H250370   8.135   9.648   3.510
16710WAT      O50371   2.653   3.297   4.949
16710WAT     H150372   2.720   3.299   4.874
16710WAT     H250373   2.698   3.320   5.035
16711WAT      O50374   9.188   1.159   9.439
16711WAT     H150375   9.113   1.125   9.495
16711WAT     H250376   9.152   1.216   9.365
16712WAT      O50377   3.355   9.601   4.571
16712WAT     H150378   3.429   9.544   4.607
16712WAT     H250379   3.383   9.640   4.483
16713WAT      O50380   6.583   4.789   9.828
16713WAT     H150381   6.494   4.832   9.813
16713WAT     H250382   6.620   4.820   9.915
16714WAT      O50383   3.361   2.906   1.588
16714WAT     H150384   3.444   2.933   1.540
16714WAT     H250385   3.384   2.871   1.678
16715WAT      O50386   2.735   3.432   2.273
16715WAT     H150387   2.725   3.471   2.365
16715WAT     H250388   2.832   3.424   2.251
16716WAT      O50389   7.149   1.790   2.060
16716WAT     H150390   7.117   1.829   2.146
16716WAT     H250391   7.156   1.691   2.068
16717WAT      O50392   5.134   6.417   2.092
16717WAT     H150393   5.064   6.394   2.024
16717WAT     H250394   5.162   6.513   2.080
16718WAT      O50395   8.936   6.577   9.282
16718WAT     H150396   8.876   6.613   9.211
16718WAT     H250397   8.890   6.582   9.370
16719WAT      O50398   5.096   2.413   8.483
16719WAT     H150399   5.065   2.411   8.388
16719WAT     H250400   5.081   2.504   8.521
16720WAT      O50401   4.831   9.784   1.880
16720WAT     H150402   4.791   9.701   1.919
16720WAT     H250403   4.767   9.826   1.816
16721WAT      O50404   4.895   9.449   7.174
16721WAT     H150405   4.962   9.405   7.115
16721WAT     H250406   4.903   9.412   7.267
16722WAT      O50407   6.378   2.395   8.570
16722WAT     H150408   6.324   2.468   8.611
16722WAT     H250409   6.380   2.316   8.632
16723WAT      O50410   0.503   7.018   2.128
16723WAT     H150411   0.589   7.001   2.081
16723WAT     H250412   0.430   7.033   2.061
16724WAT      O50413   9.688   6.564   3.914
16724WAT     H150414   9.749   6.640   3.891
16724WAT     H250415   9.741   6.478   3.914
16725WAT      O50416   4.118   1.119   3.105
16725WAT     H150417   4.073   1.173   3.176
16725WAT     H250418   4.190   1.173   3.062
16726WAT      O50419   7.650   0.373   5.968
16726WAT     H150420   7.625   0.408   5.877
16726WAT     H250421   7.621   0.277   5.976
16727WAT      O50422   2.635   8.554   6.131
16727WAT     H150423   2.650   8.502   6.215
16727WAT     H250424   2.719   8.603   6.108
16728WAT      O50425   7.616   2.950   1.880
16728WAT     H150426   7.711   2.980   1.874
16728WAT     H250427   7.609   2.875   1.946
16729WAT      O50428   2.874   4.525   1.335
16729WAT     H150429   2.919   4.598   1.283
16729WAT     H250430   2.913   4.521   1.427
16730WAT      O50431   4.721   2.862   8.937
16730WAT     H150432   4.749   2.933   8.872
16730WAT     H250433   4.622   2.863   8.946
16731WAT      O50434   0.623   2.802   8.731
16731WAT     H150435   0.661   2.864   8.662
16731WAT     H250436   0.657   2.828   8.822
16732WAT      O50437   1.853   9.350   2.838
16732WAT     H150438   1.901   9.367   2.752
16732WAT     H250439   1.897   9.402   2.911
16733WAT      O50440   6.226   1.499   7.531
16733WAT     H150441   6.269   1.589   7.531
16733WAT     H250442   6.145   1.502   7.589
16734WAT      O50443   4.116   1.939   3.784
16734WAT     H150444   4.028   1.979   3.759
16734WAT     H250445   4.179   2.012   3.813
16735WAT      O50446   1.282   7.928   3.350
16735WAT     H150447   1.214   7.858   3.325
16735WAT     H250448   1.248   8.018   3.322
16736WAT      O50449   7.278   6.187   0.343
16736WAT     H150450   7.214   6.263   0.332
16736WAT     H250451   7.325   6.194   0.431
16737WAT      O50452   3.119   1.321   7.162
16737WAT     H150453   3.109   1.238   7.108
16737WAT     H250454   3.188   1.381   7.121
16738WAT      O50455   7.269   8.334   9.539
16738WAT     H150456   7.277   8.412   9.477
16738WAT     H250457   7.260   8.250   9.486
16739WAT      O50458   6.661   8.778   4.368
16739WAT     H150459   6.606   8.749   4.290
16739WAT     H250460   6.633   8.726   4.449
16740WAT      O50461   4.400   3.503   8.375
16740WAT     H150462   4.398   3.602   8.392
16740WAT     H250463   4.309   3.472   8.351
16741WAT      O50464   0.743   4.850   7.815
16741WAT     H150465   0.682   4.821   7.889
16741WAT     H250466   0.836   4.821   7.835
16742WAT      O50467   6.021   5.796   8.633
16742WAT     H150468   5.965   5.755   8.562
16742WAT     H250469   6.034   5.730   8.708
16743WAT      O50470   2.732   9.728   5.528
16743WAT     H150471   2.717   9.798   5.459
16743WAT     H250472   2.819   9.682   5.510
16744WAT      O50473   6.718   7.991   3.692
16744WAT     H150474   6.732   8.014   3.596
16744WAT     H250475   6.802   7.948   3.728
16745WAT      O50476   2.727   8.484   9.703
16745WAT     H150477   2.757   8.397   9.742
16745WAT     H250478   2.719   8.552   9.775
16746WAT      O50479   6.751   4.948   6.203
16746WAT     H150480   6.785   4.855   6.215
16746WAT     H250481   6.702   4.955   6.117
16747WAT      O50482   1.314   1.538   3.119
16747WAT     H150483   1.239   1.525   3.054
16747WAT     H250484   1.281   1.588   3.199
16748WAT      O50485   4.090   1.681   3.911
16748WAT     H150486   4.119   1.762   3.861
16748WAT     H250487   4.030   1.709   3.987
16749WAT      O50488   3.472   3.052   5.230
16749WAT     H150489   3.397   3.006   5.183
16749WAT     H250490   3.477   3.018   5.324
16750WAT      O50491   6.623   6.310   9.317
16750WAT     H150492   6.624   6.238   9.386
16750WAT     H250493   6.717   6.329   9.287
16751WAT      O50494   8.610   9.315   0.953
16751WAT     H150495   8.580   9.344   1.044
16751WAT     H250496   8.654   9.226   0.959
16752WAT      O50497   8.142   6.233   1.684
16752WAT     H150498   8.166   6.274   1.772
16752WAT     H250499   8.095   6.146   1.700
16753WAT      O50500   7.232   2.002   7.109
16753WAT     H150501   7.178   2.075   7.067
16753WAT     H250502   7.237   1.924   7.047
16754WAT      O50503   8.217   2.305   2.384
16754WAT     H150504   8.154   2.343   2.316
16754WAT     H250505   8.265   2.379   2.430
16755WAT      O50506   5.648   7.175   0.669
16755WAT     H150507   5.576   7.235   0.702
16755WAT     H250508   5.609   7.107   0.606
16756WAT      O50509   9.048   4.059   8.038
16756WAT     H150510   8.994   4.143   8.031
16756WAT     H250511   9.103   4.062   8.121
16757WAT      O50512   8.907   1.940   3.495
16757WAT     H150513   8.820   1.903   3.463
16757WAT     H250514   8.948   1.996   3.423
16758WAT      O50515   1.529   3.043   8.380
16758WAT     H150516   1.448   2.993   8.348
16758WAT     H250517   1.547   3.020   8.475
16759WAT      O50518   2.267   9.773   9.067
16759WAT     H150519   2.291   9.709   9.140
16759WAT     H250520   2.290   9.732   8.978
16760WAT      O50521   8.668   3.388   0.508
16760WAT     H150522   8.588   3.378   0.449
16760WAT     H250523   8.726   3.307   0.499
16761WAT      O50524   3.071   7.326   0.067
16761WAT     H150525   3.108   7.240   0.100
16761WAT     H250526   2.983   7.344   0.111
16762WAT      O50527   5.650   1.961   7.837
16762WAT     H150528   5.610   2.035   7.891
16762WAT     H250529   5.579   1.896   7.812
16763WAT      O50530   7.123   8.854   0.442
16763WAT     H150531   7.128   8.759   0.411
16763WAT     H250532   7.077   8.858   0.531
16764WAT      O50533   1.305   6.856   9.835
16764WAT     H150534   1.275   6.869   9.740
16764WAT     H250535   1.372   6.927   9.858
16765WAT      O50536   0.542   7.628   6.938
16765WAT     H150537   0.475   7.702   6.936
16765WAT     H250538   0.528   7.568   6.859
16766WAT      O50539   0.875   9.471   9.641
16766WAT     H150540   0.945   9.530   9.683
16766WAT     H250541   0.911   9.431   9.557
16767WAT      O50542   8.657   9.027   1.044
16767WAT     H150543   8.605   9.026   1.129
16767WAT     H250544   8.600   8.994   0.969
16768WAT      O50545   0.678   0.071   1.838
16768WAT     H150546   0.760   0.015   1.840
16768WAT     H250547   0.660   0.108   1.929
16769WAT      O50548   6.806   2.814   8.174
16769WAT     H150549   6.775   2.885   8.111
16769WAT     H250550   6.727   2.757   8.200
16770WAT      O50551   7.503   7.061   7.062
16770WAT     H150552   7.583   7.006   7.086
16770WAT     H250553   7.453   7.016   6.988
16771WAT      O50554   1.174   6.257   5.744
16771WAT     H150555   1.238   6.180   5.740
16771WAT     H250556   1.222   6.341   5.716
16772WAT      O50557   6.371   9.393   8.847
16772WAT     H150558   6.379   9.383   8.946
16772WAT     H250559   6.432   9.329   8.802
16773WAT      O50560   7.016   0.163   6.328
16773WAT     H150561   7.083   0.201   6.264
16773WAT     H250562   6.933   0.218   6.325
16774WAT      O50563   5.563   4.242   5.865
16774WAT     H150564   5.486   4.306   5.858
16774WAT     H250565   5.537   4.164   5.921
16775WAT      O50566   0.945   2.458   8.524
16775WAT     H150567   0.871   2.473   8.458
16775WAT     H250568   0.921   2.380   8.583
16776WAT      O50569   2.264   1.448   9.074
16776WAT     H150570   2.324   1.526   9.092
16776WAT     H250571   2.224   1.416   9.160
16777WAT      O50572   1.814   0.689   8.000
16777WAT     H150573   1.886   0.624   8.022
16777WAT     H250574   1.823   0.719   7.905
16778WAT      O50575   0.282   9.245   5.153
16778WAT     H150576   0.188   9.277   5.141
16778WAT     H250577   0.334   9.260   5.069
16779WAT      O50578   5.085   8.748   7.863
16779WAT     H150579   5.012   8.681   7.848
16779WAT     H250580   5.073   8.790   7.954
16780WAT      O50581   0.176   6.014   4.386
16780WAT     H150582   0.201   6.103   4.424
16780WAT     H250583   0.097   6.025   4.326
16781WAT      O50584   7.085   5.451   1.798
16781WAT     H150585   7.129   5.535   1.768
16781WAT     H250586   7.106   5.435   1.895
16782WAT      O50587   6.985   2.394   8.491
16782WAT     H150588   6.926   2.321   8.526
16782WAT     H250589   6.937   2.481   8.498
16783WAT      O50590   3.939   0.154   6.114
16783WAT     H150591   4.036   0.178   6.107
16783WAT     H250592   3.888   0.195   6.039
16784WAT      O50593   9.381   4.144   2.997
16784WAT     H150594   9.303   4.199   2.968
16784WAT     H250595   9.463   4.176   2.949
16785WAT      O50596   4.948   5.448   9.306
16785WAT     H150597   4.919   5.354   9.291
16785WAT     H250598   4.898   5.509   9.244
16786WAT      O50599   3.568   3.227   1.907
16786WAT     H150600   3.495   3.185   1.960
16786WAT     H250601   3.533   3.252   1.816
16787WAT      O50602   1.243   6.634   2.597
16787WAT     H150603   1.269   6.550   2.644
16787WAT     H250604   1.199   6.612   2.510
16788WAT      O50605   3.172   8.889   7.725
16788WAT     H150606   3.135   8.938   7.646
16788WAT     H250607   3.272   8.882   7.716
16789WAT      O50608   2.991   3.550   0.336
16789WAT     H150609   2.991   3.566   0.237
16789WAT     H250610   2.947   3.627   0.382
16790WAT      O50611   0.785   4.098   8.244
16790WAT     H150612   0.866   4.064   8.197
16790WAT     H250613   0.799   4.091   8.343
16791WAT      O50614   2.206   7.408   7.617
16791WAT     H150615   2.305   7.411   7.602
16791WAT     H250616   2.185   7.448   7.707
16792WAT      O50617   7.614   9.561   1.757
16792WAT     H150618   7.583   9.531   1.848
16792WAT     H250619   7.639   9.658   1.761
16793WAT      O50620   7.133   9.772   7.990
16793WAT     H150621   7.036   9.787   7.973
16793WAT     H250622   7.145   9.721   8.075
16794WAT      O50623   6.499   0.421   5.179
16794WAT     H150624   6.488   0.415   5.080
16794WAT     H250625   6.537   0.335   5.213
16795WAT      O50626   6.924   7.633   3.351
16795WAT     H150627   6.827   7.610   3.347
16795WAT     H250628   6.978   7.557   3.314
16796WAT      O50629   7.786   1.940   7.093
16796WAT     H150630   7.819   1.959   7.185
16796WAT     H250631   7.711   2.002   7.071
16797WAT      O50632   2.057   5.469   7.851
16797WAT     H150633   2.116   5.459   7.771
16797WAT     H250634   2.070   5.560   7.891
16798WAT      O50635   1.498   4.750   8.497
16798WAT     H150636   1.406   4.711   8.504
16798WAT     H250637   1.566   4.680   8.520
16799WAT      O50638   9.190   1.275   3.159
16799WAT     H150639   9.157   1.333   3.085
16799WAT     H250640   9.271   1.225   3.129
16800WAT      O50641   9.734   0.419   4.006
16800WAT     H150642   9.815   0.363   4.021
16800WAT     H250643   9.652   0.368   4.031
16801WAT      O50644   6.912   7.846   2.623
16801WAT     H150645   6.950   7.922   2.675
16801WAT     H250646   6.986   7.797   2.576
16802WAT      O50647   6.100   5.746   5.409
16802WAT     H150648   6.135   5.669   5.355
16802WAT     H250649   6.169   5.819   5.410
16803WAT      O50650   3.059   5.413   5.968
16803WAT     H150651   3.023   5.319   5.965
16803WAT     H250652   3.151   5.412   6.007
16804WAT      O50653   1.158   5.425   4.522
16804WAT     H150654   1.068   5.450   4.486
16804WAT     H250655   1.222   5.501   4.510
16805WAT      O50656   8.932   2.365   8.825
16805WAT     H150657   8.934   2.433   8.899
16805WAT     H250658   8.858   2.300   8.842
16806WAT      O50659   2.399   7.058   6.486
16806WAT     H150660   2.339   7.082   6.562
16806WAT     H250661   2.387   7.123   6.412
16807WAT      O50662   1.465   0.617   8.851
16807WAT     H150663   1.438   0.612   8.755
16807WAT     H250664   1.456   0.711   8.884
16808WAT      O50665   1.546   2.834   6.209
16808WAT     H150666   1.639   2.799   6.222
16808WAT     H250667   1.548   2.934   6.211
16809WAT      O50668   3.748   6.601   5.845
16809WAT     H150669   3.692   6.681   5.868
16809WAT     H250670   3.690   6.530   5.805
16810WAT      O50671   8.456   7.523   6.501
16810WAT     H150672   8.460   7.424   6.486
16810WAT     H250673   8.362   7.555   6.493
16811WAT      O50674   1.459   1.467   7.736
16811WAT     H150675   1.548   1.510   7.748
16811WAT     H250676   1.389   1.537   7.722
16812WAT      O50677   7.230   6.488   8.538
16812WAT     H150678   7.200   6.583   8.532
16812WAT     H250679   7.264   6.469   8.630
16813WAT      O50680   5.125   8.823   9.266
16813WAT     H150681   5.059   8.898   9.253
16813WAT     H250682   5.176   8.837   9.351
16814WAT      O50683   2.631   7.724   4.812
16814WAT     H150684   2.599   7.817   4.796
16814WAT     H250685   2.693   7.723   4.891
16815WAT      O50686   4.409   7.054   0.712
16815WAT     H150687   4.329   7.003   0.679
16815WAT     H250688   4.403   7.064   0.811
16816WAT      O50689   9.673   9.368   1.315
16816WAT     H150690   9.686   9.458   1.272
16816WAT     H250691   9.744   9.305   1.282
16817WAT      O50692   8.663   3.146   3.571
16817WAT     H150693   8.705   3.066   3.614
16817WAT     H250694   8.689   3.229   3.621
16818WAT      O50695   1.601   8.760   5.003
16818WAT     H150696   1.595   8.846   4.953
16818WAT     H250697   1.642   8.777   5.093
16819WAT      O50698   1.540   3.028   1.221
16819WAT     H150699   1.502   3.112   1.261
16819WAT     H250700   1.588   2.976   1.292
16820WAT      O50701   0.305   4.620   3.847
16820WAT     H150702   0.287   4.664   3.935
16820WAT     H250703   0.400   4.635   3.821
16821WAT      O50704   0.631   5.561   9.509
16821WAT     H150705   0.600   5.592   9.599
16821WAT     H250706   0.586   5.475   9.486
16822WAT      O50707   7.451   8.521   4.485
16822WAT     H150708   7.509   8.449   4.447
16822WAT     H250709   7.379   8.480   4.541
16823WAT      O50710   4.042   1.818   4.512
16823WAT     H150711   3.944   1.801   4.511
16823WAT     H250712   4.086   1.755   4.577
16824WAT      O50713   1.059   0.916   4.395
16824WAT     H150714   1.003   0.930   4.477
16824WAT     H250715   1.004   0.869   4.326
16825WAT      O50716   8.571   0.274   1.153
16825WAT     H150717   8.664   0.311   1.154
16825WAT     H250718   8.573   0.180   1.188
16826WAT      O50719   0.472   7.394   8.228
16826WAT     H150720   0.439   7.299   8.228
16826WAT     H250721   0.525   7.411   8.311
16827WAT      O50722   3.258   2.927   5.097
16827WAT     H150723   3.183   2.862   5.108
16827WAT     H250724   3.289   2.926   5.001
16828WAT      O50725   7.672   0.689   7.183
16828WAT     H150726   7.598   0.642   7.231
16828WAT     H250727   7.696   0.773   7.233
16829WAT      O50728   6.304   6.232   8.604
16829WAT     H150729   6.263   6.305   8.660
16829WAT     H250730   6.365   6.177   8.661
16830WAT      O50731   5.495   7.603   5.168
16830WAT     H150732   5.559   7.526   5.174
16830WAT     H250733   5.421   7.579   5.106
16831WAT      O50734   4.394   5.217   7.971
16831WAT     H150735   4.470   5.157   7.947
16831WAT     H250736   4.334   5.171   8.037
16832WAT      O50737   3.047   0.522   3.869
16832WAT     H150738   2.999   0.437   3.891
16832WAT     H250739   3.114   0.542   3.941
16833WAT      O50740   9.811   9.267   9.678
16833WAT     H150741   9.896   9.319   9.672
16833WAT     H250742   9.738   9.326   9.712
16834WAT      O50743   0.926   6.412   8.704
16834WAT     H150744   0.917   6.508   8.730
16834WAT     H250745   1.020   6.381   8.721
16835WAT      O50746   9.613   9.250   4.265
16835WAT     H150747   9.668   9.227   4.185
16835WAT     H250748   9.572   9.340   4.253
16836WAT      O50749   5.456   5.679   0.031
16836WAT     H150750   5.519   5.666  -0.046
16836WAT     H250751   5.480   5.764   0.079
16837WAT      O50752   9.539   8.929   0.431
16837WAT     H150753   9.531   8.957   0.335
16837WAT     H250754   9.621   8.871   0.442
16838WAT      O50755   1.093   2.869   1.746
16838WAT     H150756   1.132   2.895   1.658
16838WAT     H250757   1.017   2.805   1.732
16839WAT      O50758   6.952   9.084   1.645
16839WAT     H150759   7.005   9.098   1.729
16839WAT     H250760   6.898   9.001   1.653
16840WAT      O50761   2.941   6.003   1.262
16840WAT     H150762   2.912   6.023   1.168
16840WAT     H250763   2.900   6.070   1.324
16841WAT      O50764   3.056   2.727   6.130
16841WAT     H150765   3.146   2.727   6.174
16841WAT     H250766   3.027   2.821   6.114
16842WAT      O50767   1.975   8.687   4.622
16842WAT     H150768   1.876   8.695   4.627
16842WAT     H250769   2.015   8.777   4.603
16843WAT      O50770   8.504   3.639   1.511
16843WAT     H150771   8.504   3.614   1.414
16843WAT     H250772   8.566   3.579   1.561
16844WAT      O50773   9.480   7.917   1.390
16844WAT     H150774   9.505   7.964   1.475
16844WAT     H250775   9.421   7.976   1.335
16845WAT      O50776   7.723   5.926   7.697
16845WAT     H150777   7.721   5.991   7.773
16845WAT     H250778   7.705   5.834   7.731
16846WAT      O50779   7.639   5.652   6.697
16846WAT     H150780   7.694   5.569   6.684
16846WAT     H250781   7.661   5.717   6.624
16847WAT      O50782   1.832   2.041   6.522
16847WAT     H150783   1.905   2.102   6.492
16847WAT     H250784   1.760   2.039   6.453
16848WAT      O50785   3.285   4.473   7.652
16848WAT     H150786   3.369   4.420   7.639
16848WAT     H250787   3.206   4.413   7.641
16849WAT      O50788   7.135   0.718   4.678
16849WAT     H150789   7.221   0.682   4.640
16849WAT     H250790   7.143   0.725   4.777
16850WAT      O50791   8.672   3.625   7.342
16850WAT     H150792   8.765   3.641   7.309
16850WAT     H250793   8.674   3.608   7.440
16851WAT      O50794   7.097   6.346   7.091
16851WAT     H150795   7.160   6.422   7.104
16851WAT     H250796   7.033   6.343   7.168
16852WAT      O50797   2.562   5.313   5.917
16852WAT     H150798   2.577   5.348   5.824
16852WAT     H250799   2.602   5.376   5.983
16853WAT      O50800   4.683   9.167   8.444
16853WAT     H150801   4.780   9.192   8.442
16853WAT     H250802   4.627   9.249   8.447
16854WAT      O50803   7.199   1.852   4.745
16854WAT     H150804   7.125   1.898   4.794
16854WAT     H250805   7.161   1.776   4.693
16855WAT      O50806   0.911   6.269   4.363
16855WAT     H150807   0.975   6.327   4.415
16855WAT     H250808   0.852   6.220   4.426
16856WAT      O50809   8.494   0.838   1.867
16856WAT     H150810   8.436   0.762   1.894
16856WAT     H250811   8.455   0.883   1.786
16857WAT      O50812   6.145   3.080   3.475
16857WAT     H150813   6.140   3.023   3.557
16857WAT     H250814   6.054   3.088   3.434
16858WAT      O50815   2.278   5.625   2.693
16858WAT     H150816   2.331   5.708   2.708
16858WAT     H250817   2.182   5.649   2.677
16859WAT      O50818   1.956   5.129   8.505
16859WAT     H150819   2.037   5.089   8.549
16859WAT     H250820   1.916   5.062   8.443
16860WAT      O50821   2.210   0.633   8.936
16860WAT     H150822   2.143   0.565   8.905
16860WAT     H250823   2.230   0.620   9.033
16861WAT      O50824   0.697   1.581   5.942
16861WAT     H150825   0.652   1.513   6.000
16861WAT     H250826   0.641   1.664   5.938
16862WAT      O50827   6.715   8.665   7.138
16862WAT     H150828   6.739   8.686   7.043
16862WAT     H250829   6.673   8.574   7.143
16863WAT      O50830   2.266   1.746   9.393
16863WAT     H150831   2.207   1.738   9.473
16863WAT     H250832   2.317   1.832   9.398
16864WAT      O50833   2.130   8.751   3.697
16864WAT     H150834   2.035   8.731   3.722
16864WAT     H250835   2.142   8.850   3.692
16865WAT      O50836   0.210   7.945   5.151
16865WAT     H150837   0.196   7.863   5.206
16865WAT     H250838   0.136   7.953   5.084
16866WAT      O50839   5.682   4.611   9.272
16866WAT     H150840   5.767   4.628   9.321
16866WAT     H250841   5.692   4.530   9.214
16867WAT      O50842   1.007   6.994   5.805
16867WAT     H150843   0.933   6.997   5.738
16867WAT     H250844   0.968   6.983   5.896
16868WAT      O50845   0.544   3.705   9.812
16868WAT     H150846   0.642   3.693   9.800
16868WAT     H250847   0.508   3.764   9.740
16869WAT      O50848   0.107   6.474   6.224
16869WAT     H150849   0.032   6.484   6.159
16869WAT     H250850   0.080   6.512   6.313
16870WAT      O50851   5.238   5.136   9.561
16870WAT     H150852   5.142   5.107   9.561
16870WAT     H250853   5.275   5.129   9.468
16871WAT      O50854   3.493   6.708   7.545
16871WAT     H150855   3.522   6.758   7.627
16871WAT     H250856   3.404   6.666   7.562
16872WAT      O50857   2.223   0.643   8.534
16872WAT     H150858   2.141   0.616   8.484
16872WAT     H250859   2.198   0.670   8.627
16873WAT      O50860   5.059   7.115   5.661
16873WAT     H150861   5.155   7.121   5.635
16873WAT     H250862   5.051   7.066   5.748
16874WAT      O50863   1.980   5.077   5.492
16874WAT     H150864   1.990   4.992   5.440
16874WAT     H250865   1.890   5.080   5.534
16875WAT      O50866   5.539   7.517   4.031
16875WAT     H150867   5.570   7.595   3.977
16875WAT     H250868   5.617   7.462   4.060
16876WAT      O50869   2.496   9.232   0.962
16876WAT     H150870   2.585   9.211   1.003
16876WAT     H250871   2.509   9.292   0.883
16877WAT      O50872   2.940   3.307   1.610
16877WAT     H150873   2.936   3.249   1.691
16877WAT     H250874   3.005   3.269   1.545
16878WAT      O50875   3.669   3.809   5.249
16878WAT     H150876   3.741   3.858   5.200
16878WAT     H250877   3.655   3.852   5.338
16879WAT      O50878   6.573   5.319   3.439
16879WAT     H150879   6.549   5.222   3.447
16879WAT     H250880   6.664   5.334   3.476
16880WAT      O50881   7.935   9.080   9.438
16880WAT     H150882   7.881   8.998   9.424
16880WAT     H250883   8.031   9.061   9.417
16881WAT      O50884   7.422   8.750   6.918
16881WAT     H150885   7.405   8.652   6.912
16881WAT     H250886   7.412   8.791   6.827
16882WAT      O50887   0.358   0.866   1.109
16882WAT     H150888   0.335   0.955   1.150
16882WAT     H250889   0.351   0.873   1.010
16883WAT      O50890   2.534   7.288   8.576
16883WAT     H150891   2.593   7.279   8.495
16883WAT     H250892   2.580   7.344   8.645
16884WAT      O50893   6.663   2.261   2.740
16884WAT     H150894   6.705   2.259   2.650
16884WAT     H250895   6.632   2.354   2.761
16885WAT      O50896   5.422   4.387   0.363
16885WAT     H150897   5.369   4.445   0.301
16885WAT     H250898   5.492   4.338   0.310
16886WAT      O50899   2.373   3.609   3.041
16886WAT     H150900   2.400   3.635   3.133
16886WAT     H250901   2.274   3.623   3.031
16887WAT      O50902   8.244   0.910   9.530
16887WAT     H150903   8.288   0.998   9.512
16887WAT     H250904   8.157   0.905   9.481
16888WAT      O50905   3.013   7.602   7.741
16888WAT     H150906   2.944   7.534   7.765
16888WAT     H250907   3.081   7.608   7.815
16889WAT      O50908   0.928   4.025   3.586
16889WAT     H150909   0.938   4.003   3.683
16889WAT     H250910   0.852   3.972   3.548
16890WAT      O50911   4.642   4.879   8.944
16890WAT     H150912   4.683   4.971   8.949
16890WAT     H250913   4.714   4.812   8.925
16891WAT      O50914   6.810   8.199   0.177
16891WAT     H150915   6.804   8.123   0.242
16891WAT     H250916   6.718   8.226   0.149
16892WAT      O50917   7.420   7.603   6.540
16892WAT     H150918   7.456   7.564   6.455
16892WAT     H250919   7.477   7.574   6.617
16893WAT      O50920   4.256   6.397   7.207
16893WAT     H150921   4.319   6.463   7.167
16893WAT     H250922   4.162   6.432   7.200
16894WAT      O50923   2.484   9.588   3.931
16894WAT     H150924   2.560   9.618   3.988
16894WAT     H250925   2.415   9.660   3.925
16895WAT      O50926   8.714   5.888   5.811
16895WAT     H150927   8.744   5.918   5.721
16895WAT     H250928   8.749   5.796   5.829
16896WAT      O50929   7.777   6.794   6.343
16896WAT     H150930   7.697   6.742   6.314
16896WAT     H250931   7.795   6.867   6.277
16897WAT      O50932   5.573   4.733   1.975
16897WAT     H150933   5.597   4.822   2.014
16897WAT     H250934   5.627   4.716   1.893
16898WAT      O50935   2.725   2.458   9.865
16898WAT     H150936   2.743   2.367   9.829
16898WAT     H250937   2.762   2.527   9.803
16899WAT      O50938   3.384   9.552   8.207
16899WAT     H150939   3.415   9.642   8.240
16899WAT     H250940   3.458   9.486   8.216
16900WAT      O50941   4.008   4.125   6.754
16900WAT     H150942   3.976   4.035   6.785
16900WAT     H250943   4.094   4.115   6.705
16901WAT      O50944   1.205   9.364   8.517
16901WAT     H150945   1.202   9.444   8.457
16901WAT     H250946   1.159   9.287   8.473
16902WAT      O50947   6.808   4.950   8.179
16902WAT     H150948   6.880   4.881   8.175
16902WAT     H250949   6.728   4.916   8.130
16903WAT      O50950   6.698   2.370   7.569
16903WAT     H150951   6.662   2.419   7.648
16903WAT     H250952   6.753   2.292   7.600
16904WAT      O50953   1.607   6.735   1.737
16904WAT     H150954   1.511   6.743   1.766
16904WAT     H250955   1.631   6.639   1.729
16905WAT      O50956   0.065   7.633   0.539
16905WAT     H150957   0.133   7.703   0.521
16905WAT     H250958   0.105   7.562   0.596
16906WAT      O50959   0.168   8.910   8.642
16906WAT     H150960   0.260   8.942   8.666
16906WAT     H250961   0.104   8.987   8.645
16907WAT      O50962   7.481   7.011   9.701
16907WAT     H150963   7.424   7.093   9.699
16907WAT     H250964   7.576   7.037   9.680
16908WAT      O50965   1.609   4.169   6.314
16908WAT     H150966   1.638   4.121   6.232
16908WAT     H250967   1.619   4.268   6.301
16909WAT      O50968   6.336   2.162   2.816
16909WAT     H150969   6.385   2.125   2.736
16909WAT     H250970   6.281   2.241   2.787
16910WAT      O50971   0.608   4.503   5.819
16910WAT     H150972   0.691   4.472   5.774
16910WAT     H250973   0.559   4.566   5.759
16911WAT      O50974   2.515   6.580   7.029
16911WAT     H150975   2.594   6.521   7.012
16911WAT     H250976   2.540   6.651   7.095
16912WAT      O50977   8.850   6.104   7.681
16912WAT     H150978   8.909   6.113   7.601
16912WAT     H250979   8.793   6.022   7.671
16913WAT      O50980   7.533   6.358   3.742
16913WAT     H150981   7.506   6.293   3.813
16913WAT     H250982   7.484   6.337   3.657
16914WAT      O50983   2.135   0.987   7.932
16914WAT     H150984   2.162   0.893   7.911
16914WAT     H250985   2.171   1.048   7.861
16915WAT      O50986   7.324   1.206   1.184
16915WAT     H150987   7.250   1.139   1.171
16915WAT     H250988   7.345   1.214   1.282
16916WAT      O50989   2.151   5.640   4.866
16916WAT     H150990   2.073   5.588   4.830
16916WAT     H250991   2.118   5.714   4.924
16917WAT      O50992   6.355   7.540   9.607
16917WAT     H150993   6.255   7.543   9.611
16917WAT     H250994   6.391   7.633   9.598
16918WAT      O50995   5.555   9.065   1.494
16918WAT     H150996   5.482   9.127   1.465
16918WAT     H250997   5.616   9.114   1.556
16919WAT      O50998   5.077   4.000   4.057
16919WAT     H150999   5.170   4.003   4.093
16919WAT     H251000   5.070   3.928   3.989
16920WAT      O51001   1.766   9.468   8.951
16920WAT     H151002   1.707   9.421   8.886
16920WAT     H251003   1.769   9.416   9.036
16921WAT      O51004   0.849   6.730   5.242
16921WAT     H151005   0.885   6.676   5.318
16921WAT     H251006   0.776   6.790   5.276
16922WAT      O51007   0.728   1.713   7.974
16922WAT     H151008   0.823   1.682   7.982
16922WAT     H251009   0.669   1.657   8.032
16923WAT      O51010   8.115   7.110   7.193
16923WAT     H151011   8.204   7.096   7.238
16923WAT     H251012   8.078   7.199   7.221
16924WAT      O51013   4.862   6.135   3.388
16924WAT     H151014   4.926   6.210   3.406
16924WAT     H251015   4.838   6.091   3.475
16925WAT      O51016   7.922   2.675   8.474
16925WAT     H151017   7.956   2.708   8.386
16925WAT     H251018   7.917   2.575   8.472
16926WAT      O51019   7.347   6.576   4.833
16926WAT     H151020   7.319   6.494   4.784
16926WAT     H251021   7.342   6.560   4.931
16927WAT      O51022   3.601   3.530   3.571
16927WAT     H151023   3.524   3.585   3.602
16927WAT     H251024   3.685   3.563   3.614
16928WAT      O51025   2.440   0.567   0.702
16928WAT     H151026   2.493   0.541   0.621
16928WAT     H251027   2.450   0.497   0.773
16929WAT      O51028   4.853   4.661   8.064
16929WAT     H151029   4.870   4.584   8.003
16929WAT     H251030   4.939   4.708   8.083
16930WAT      O51031   8.827   6.030   2.972
16930WAT     H151032   8.791   6.091   3.043
16930WAT     H251033   8.870   6.085   2.901
16931WAT      O51034   0.526   6.645   1.265
16931WAT     H151035   0.560   6.554   1.242
16931WAT     H251036   0.434   6.657   1.227
16932WAT      O51037   3.230   6.981   5.210
16932WAT     H151038   3.188   7.007   5.298
16932WAT     H251039   3.293   6.905   5.225
16933WAT      O51040   9.272   8.011   6.291
16933WAT     H151041   9.174   7.999   6.308
16933WAT     H251042   9.300   7.956   6.213
16934WAT      O51043   3.666   1.277   3.453
16934WAT     H151044   3.685   1.205   3.386
16934WAT     H251045   3.568   1.283   3.470
16935WAT      O51046   0.817   8.534   1.232
16935WAT     H151047   0.848   8.618   1.188
16935WAT     H251048   0.876   8.458   1.204
16936WAT      O51049   5.564   6.801   9.709
16936WAT     H151050   5.507   6.869   9.662
16936WAT     H251051   5.627   6.760   9.643
16937WAT      O51052   9.606   0.541   8.378
16937WAT     H151053   9.509   0.554   8.397
16937WAT     H251054   9.659   0.611   8.427
16938WAT      O51055   1.152   2.610   2.796
16938WAT     H151056   1.136   2.545   2.722
16938WAT     H251057   1.194   2.563   2.873
16939WAT      O51058   5.587   4.768   0.471
16939WAT     H151059   5.641   4.851   0.468
16939WAT     H251060   5.503   4.781   0.418
16940WAT      O51061   7.973   9.715   7.067
16940WAT     H151062   7.979   9.731   7.165
16940WAT     H251063   8.050   9.658   7.038
16941WAT      O51064   2.994   2.677   4.894
16941WAT     H151065   2.993   2.768   4.938
16941WAT     H251066   3.089   2.647   4.885
16942WAT      O51067   1.079   4.849   3.037
16942WAT     H151068   0.991   4.842   2.990
16942WAT     H251069   1.091   4.770   3.097
16943WAT      O51070   3.717   6.722   4.656
16943WAT     H151071   3.657   6.799   4.677
16943WAT     H251072   3.754   6.733   4.564
16944WAT      O51073   4.661   6.763   1.059
16944WAT     H151074   4.669   6.678   1.006
16944WAT     H251075   4.566   6.795   1.057
16945WAT      O51076   4.476   5.756   2.701
16945WAT     H151077   4.544   5.683   2.711
16945WAT     H251078   4.494   5.808   2.618
16946WAT      O51079   5.166   4.557   9.486
16946WAT     H151080   5.210   4.508   9.562
16946WAT     H251081   5.097   4.619   9.522
16947WAT      O51082   1.491   4.948   0.558
16947WAT     H151083   1.476   4.942   0.657
16947WAT     H251084   1.490   4.856   0.519
16948WAT      O51085   3.902   3.785   6.039
16948WAT     H151086   3.867   3.859   6.097
16948WAT     H251087   3.949   3.717   6.096
16949WAT      O51088   2.325   1.041   6.552
16949WAT     H151089   2.383   0.960   6.537
16949WAT     H251090   2.294   1.042   6.647
16950WAT      O51091   8.615   2.093   0.921
16950WAT     H151092   8.650   2.101   0.827
16950WAT     H251093   8.530   2.144   0.929
16951WAT      O51094   4.741   6.317   3.701
16951WAT     H151095   4.776   6.382   3.633
16951WAT     H251096   4.772   6.225   3.678
16952WAT      O51097   6.711   7.251   7.324
16952WAT     H151098   6.676   7.328   7.271
16952WAT     H251099   6.795   7.278   7.372
16953WAT      O51100   6.743   5.030   7.665
16953WAT     H151101   6.682   5.054   7.741
16953WAT     H251102   6.689   4.995   7.589
16954WAT      O51103   6.035   2.375   9.200
16954WAT     H151104   6.083   2.306   9.254
16954WAT     H251105   6.091   2.400   9.121
16955WAT      O51106   7.033   0.131   8.511
16955WAT     H151107   6.963   0.170   8.450
16955WAT     H251108   7.022   0.169   8.603
16956WAT      O51109   3.873   0.338   2.588
16956WAT     H151110   3.819   0.259   2.620
16956WAT     H251111   3.817   0.396   2.530
16957WAT      O51112   1.390   6.261   6.957
16957WAT     H151113   1.437   6.349   6.950
16957WAT     H251114   1.363   6.230   6.866
16958WAT      O51115   5.275   6.541   9.237
16958WAT     H151116   5.258   6.579   9.328
16958WAT     H251117   5.206   6.473   9.216
16959WAT      O51118   5.964   0.238   8.227
16959WAT     H151119   5.905   0.286   8.292
16959WAT     H251120   5.925   0.245   8.135
16960WAT      O51121   0.787   1.052   9.172
16960WAT     H151122   0.726   1.012   9.240
16960WAT     H251123   0.847   0.981   9.135
16961WAT      O51124   6.121   8.020   6.408
16961WAT     H151125   6.145   7.943   6.349
16961WAT     H251126   6.154   8.105   6.367
16962WAT      O51127   6.209   3.076   4.251
16962WAT     H151128   6.256   3.005   4.198
16962WAT     H251129   6.212   3.052   4.348
16963WAT      O51130   4.610   9.071   6.587
16963WAT     H151131   4.567   9.144   6.642
16963WAT     H251132   4.642   8.999   6.648
16964WAT      O51133   9.565   6.407   7.111
16964WAT     H151134   9.639   6.410   7.178
16964WAT     H251135   9.549   6.499   7.075
16965WAT      O51136   0.836   2.918   6.561
16965WAT     H151137   0.855   2.825   6.591
16965WAT     H251138   0.774   2.962   6.627
16966WAT      O51139   7.296   9.079   8.247
16966WAT     H151140   7.367   9.136   8.287
16966WAT     H251141   7.210   9.131   8.242
16967WAT      O51142   9.836   5.467   3.767
16967WAT     H151143   9.841   5.379   3.814
16967WAT     H251144   9.742   5.503   3.773
16968WAT      O51145   6.414   8.446   5.815
16968WAT     H151146   6.372   8.428   5.727
16968WAT     H251147   6.358   8.510   5.867
16969WAT      O51148   9.515   6.882   1.757
16969WAT     H151149   9.570   6.921   1.831
16969WAT     H251150   9.573   6.827   1.697
16970WAT      O51151   0.904   0.259   9.454
16970WAT     H151152   0.853   0.334   9.496
16970WAT     H251153   0.901   0.270   9.354
16971WAT      O51154   5.750   1.350   2.253
16971WAT     H151155   5.767   1.442   2.219
16971WAT     H251156   5.837   1.306   2.277
16972WAT      O51157   1.755   6.848   7.402
16972WAT     H151158   1.737   6.761   7.448
16972WAT     H251159   1.733   6.840   7.305
16973WAT      O51160   2.351   5.402   8.916
16973WAT     H151161   2.277   5.350   8.874
16973WAT     H251162   2.414   5.435   8.845
16974WAT      O51163   3.052   6.302   6.882
16974WAT     H151164   3.129   6.307   6.945
16974WAT     H251165   3.001   6.217   6.898
16975WAT      O51166   2.077   2.095   4.900
16975WAT     H151167   2.005   2.069   4.964
16975WAT     H251168   2.039   2.101   4.808
16976WAT      O51169   6.652   3.229   5.069
16976WAT     H151170   6.698   3.174   5.138
16976WAT     H251171   6.709   3.235   4.987
16977WAT      O51172   9.225   3.753   4.197
16977WAT     H151173   9.261   3.842   4.169
16977WAT     H251174   9.238   3.741   4.295
16978WAT      O51175   1.544   7.861   8.933
16978WAT     H151176   1.481   7.936   8.955
16978WAT     H251177   1.638   7.895   8.930
16979WAT      O51178   6.725   0.361   1.744
16979WAT     H151179   6.713   0.272   1.700
16979WAT     H251180   6.817   0.365   1.783
16980WAT      O51181   3.022   5.828   2.834
16980WAT     H151182   2.941   5.861   2.786
16980WAT     H251183   3.058   5.748   2.787
16981WAT      O51184   8.549   4.132   4.899
16981WAT     H151185   8.538   4.232   4.900
16981WAT     H251186   8.522   4.095   4.988
16982WAT      O51187   8.224   1.906   6.053
16982WAT     H151188   8.170   1.830   6.015
16982WAT     H251189   8.259   1.962   5.978
16983WAT      O51190   0.574   2.360   4.947
16983WAT     H151191   0.544   2.314   4.863
16983WAT     H251192   0.503   2.422   4.979
16984WAT      O51193   7.163   6.860   1.001
16984WAT     H151194   7.229   6.931   0.981
16984WAT     H251195   7.161   6.842   1.099
16985WAT      O51196   7.890   4.854   8.382
16985WAT     H151197   7.822   4.895   8.444
16985WAT     H251198   7.982   4.876   8.414
16986WAT      O51199   6.208   1.888   8.195
16986WAT     H151200   6.211   1.824   8.272
16986WAT     H251201   6.238   1.978   8.226
16987WAT      O51202   4.457   2.685   9.282
16987WAT     H151203   4.437   2.770   9.234
16987WAT     H251204   4.378   2.657   9.336
16988WAT      O51205   6.987   4.731   7.605
16988WAT     H151206   6.985   4.830   7.591
16988WAT     H251207   6.982   4.685   7.516
16989WAT      O51208   5.236   2.615   2.735
16989WAT     H151209   5.270   2.547   2.670
16989WAT     H251210   5.288   2.700   2.724
16990WAT      O51211   8.978   6.706   1.715
16990WAT     H151212   9.002   6.803   1.704
16990WAT     H251213   8.995   6.658   1.629
16991WAT      O51214   8.342   8.835   8.388
16991WAT     H151215   8.426   8.803   8.432
16991WAT     H251216   8.305   8.913   8.439
16992WAT      O51217   1.759   6.301   6.047
16992WAT     H151218   1.720   6.212   6.024
16992WAT     H251219   1.717   6.335   6.131
16993WAT      O51220   7.925   7.489   1.758
16993WAT     H151221   7.903   7.582   1.727
16993WAT     H251222   8.024   7.481   1.769
16994WAT      O51223   7.499   0.091   1.863
16994WAT     H151224   7.482   0.009   1.918
16994WAT     H251225   7.413   0.125   1.826
16995WAT      O51226   5.252   8.508   5.397
16995WAT     H151227   5.313   8.584   5.378
16995WAT     H251228   5.201   8.526   5.481
16996WAT      O51229   5.782   6.051   4.462
16996WAT     H151230   5.795   6.149   4.475
16996WAT     H251231   5.725   6.035   4.382
16997WAT      O51232   6.836   9.237   7.751
16997WAT     H151233   6.855   9.148   7.793
16997WAT     H251234   6.898   9.306   7.789
16998WAT      O51235   8.376   0.696   0.716
16998WAT     H151236   8.396   0.758   0.792
16998WAT     H251237   8.370   0.602   0.751
16999WAT      O51238   9.014   6.197   3.376
16999WAT     H151239   9.052   6.203   3.468
16999WAT     H251240   8.915   6.200   3.380
17000WAT      O51241   6.528   3.688   6.932
17000WAT     H151242   6.501   3.774   6.975
17000WAT     H251243   6.619   3.698   6.893
17001WAT      O51244   3.299   5.805   1.683
17001WAT     H151245   3.240   5.749   1.741
17001WAT     H251246   3.329   5.886   1.734
17002WAT      O51247   9.053   9.276   5.042
17002WAT     H151248   9.076   9.350   4.979
17002WAT     H251249   9.012   9.200   4.991
17003WAT      O51250   9.433   1.892   6.989
17003WAT     H151251   9.512   1.933   6.944
17003WAT     H251252   9.366   1.863   6.921
17004WAT      O51253   7.559   5.509   7.981
17004WAT     H151254   7.623   5.484   7.909
17004WAT     H251255   7.475   5.456   7.972
17005WAT      O51256   4.670   2.633   5.296
17005WAT     H151257   4.590   2.649   5.238
17005WAT     H251258   4.646   2.570   5.370
17006WAT      O51259   5.463   7.624   9.332
17006WAT     H151260   5.549   7.647   9.287
17006WAT     H251261   5.469   7.532   9.371
17007WAT      O51262   8.558   3.001   6.403
17007WAT     H151263   8.485   3.016   6.336
17007WAT     H251264   8.555   2.906   6.434
17008WAT      O51265   5.926   9.459   2.754
17008WAT     H151266   5.936   9.531   2.823
17008WAT     H251267   5.867   9.387   2.791
17009WAT      O51268   0.928   1.421   8.193
17009WAT     H151269   0.928   1.497   8.128
17009WAT     H251270   1.007   1.430   8.254
17010WAT      O51271   0.780   7.272   8.344
17010WAT     H151272   0.768   7.224   8.431
17010WAT     H251273   0.762   7.210   8.269
17011WAT      O51274   7.007   1.466   4.362
17011WAT     H151275   7.018   1.384   4.417
17011WAT     H251276   6.926   1.457   4.304
17012WAT      O51277   7.430   9.087   3.455
17012WAT     H151278   7.475   9.015   3.507
17012WAT     H251279   7.484   9.171   3.461
17013WAT      O51280   0.429   6.137   5.157
17013WAT     H151281   0.488   6.200   5.107
17013WAT     H251282   0.460   6.132   5.252
17014WAT      O51283   9.525   1.435   3.004
17014WAT     H151284   9.594   1.370   2.971
17014WAT     H251285   9.433   1.400   2.983
17015WAT      O51286   0.838   1.524   9.117
17015WAT     H151287   0.834   1.614   9.160
17015WAT     H251288   0.825   1.454   9.187
17016WAT      O51289   9.870   2.736   3.982
17016WAT     H151290   9.848   2.711   4.077
17016WAT     H251291   9.969   2.732   3.969
17017WAT      O51292   7.372   2.012   0.137
17017WAT     H151293   7.431   1.940   0.173
17017WAT     H251294   7.400   2.100   0.175
17018WAT      O51295   1.710   4.993   5.238
17018WAT     H151296   1.643   5.046   5.186
17018WAT     H251297   1.793   5.049   5.252
17019WAT      O51298   9.225   3.974   2.825
17019WAT     H151299   9.135   3.941   2.851
17019WAT     H251300   9.280   3.991   2.907
17020WAT      O51301   7.659   7.128   2.703
17020WAT     H151302   7.560   7.143   2.703
17020WAT     H251303   7.705   7.207   2.743
17021WAT      O51304   9.166   3.366   9.405
17021WAT     H151305   9.169   3.398   9.310
17021WAT     H251306   9.249   3.314   9.425
17022WAT      O51307   4.298   1.094   1.036
17022WAT     H151308   4.232   1.169   1.039
17022WAT     H251309   4.274   1.030   0.963
17023WAT      O51310   0.186   3.722   3.369
17023WAT     H151311   0.170   3.706   3.467
17023WAT     H251312   0.179   3.635   3.320
17024WAT      O51313   9.811   5.039   0.598
17024WAT     H151314   9.781   5.006   0.687
17024WAT     H251315   9.865   4.968   0.552
17025WAT      O51316   0.642   9.083   4.862
17025WAT     H151317   0.602   8.992   4.866
17025WAT     H251318   0.683   9.098   4.772
17026WAT      O51319   6.903   9.233   8.510
17026WAT     H151320   6.923   9.135   8.501
17026WAT     H251321   6.805   9.249   8.499
17027WAT      O51322   3.629   6.249   3.774
17027WAT     H151323   3.542   6.252   3.726
17027WAT     H251324   3.629   6.172   3.838
17028WAT      O51325   7.834   3.952   1.600
17028WAT     H151326   7.933   3.960   1.594
17028WAT     H251327   7.799   3.913   1.515
17029WAT      O51328   5.592   2.690   3.410
17029WAT     H151329   5.637   2.729   3.491
17029WAT     H251330   5.609   2.592   3.407
17030WAT      O51331   9.448   0.623   4.187
17030WAT     H151332   9.460   0.546   4.124
17030WAT     H251333   9.535   0.669   4.200
17031WAT      O51334   1.361   7.520   2.562
17031WAT     H151335   1.282   7.536   2.622
17031WAT     H251336   1.445   7.525   2.616
17032WAT      O51337   9.106   5.314   9.544
17032WAT     H151338   9.197   5.353   9.561
17032WAT     H251339   9.083   5.250   9.617
17033WAT      O51340   6.677   0.731   7.469
17033WAT     H151341   6.683   0.829   7.452
17033WAT     H251342   6.707   0.680   7.388
17034WAT      O51343   1.403   2.829   1.540
17034WAT     H151344   1.371   2.922   1.554
17034WAT     H251345   1.422   2.786   1.628
17035WAT      O51346   6.123   9.612   8.544
17035WAT     H151347   6.161   9.646   8.629
17035WAT     H251348   6.082   9.688   8.493
17036WAT      O51349   5.519   8.184   9.504
17036WAT     H151350   5.548   8.249   9.574
17036WAT     H251351   5.463   8.113   9.545
17037WAT      O51352   2.985   1.542   8.642
17037WAT     H151353   3.018   1.555   8.736
17037WAT     H251354   3.034   1.605   8.581
17038WAT      O51355   1.581   1.650   9.036
17038WAT     H151356   1.679   1.669   9.040
17038WAT     H251357   1.564   1.579   8.967
17039WAT      O51358   2.385   4.205   2.687
17039WAT     H151359   2.303   4.196   2.743
17039WAT     H251360   2.405   4.302   2.672
17040WAT      O51361   4.303   4.409   0.960
17040WAT     H151362   4.264   4.417   0.869
17040WAT     H251363   4.253   4.339   1.011
17041WAT      O51364   1.657   5.174   6.966
17041WAT     H151365   1.731   5.236   6.993
17041WAT     H251366   1.569   5.219   6.981
17042WAT      O51367   2.219   1.317   6.242
17042WAT     H151368   2.304   1.352   6.204
17042WAT     H251369   2.231   1.222   6.270
17043WAT      O51370   7.221   7.567   1.635
17043WAT     H151371   7.175   7.634   1.577
17043WAT     H251372   7.161   7.489   1.651
17044WAT      O51373   2.045   2.944   6.957
17044WAT     H151374   1.947   2.945   6.938
17044WAT     H251375   2.072   3.030   7.000
17045WAT      O51376   3.911   8.721   4.647
17045WAT     H151377   3.963   8.785   4.705
17045WAT     H251378   3.930   8.741   4.551
17046WAT      O51379   1.084   6.475   5.162
17046WAT     H151380   1.060   6.570   5.181
17046WAT     H251381   1.117   6.432   5.246
17047WAT      O51382   4.338   6.476   4.207
17047WAT     H151383   4.412   6.536   4.236
17047WAT     H251384   4.365   6.427   4.124
17048WAT      O51385   7.862   3.167   5.248
17048WAT     H151386   7.959   3.189   5.237
17048WAT     H251387   7.835   3.102   5.178
17049WAT      O51388   4.403   9.765   0.172
17049WAT     H151389   4.490   9.801   0.204
17049WAT     H251390   4.395   9.668   0.198
17050WAT      O51391   9.132   2.483   6.741
17050WAT     H151392   9.051   2.522   6.785
17050WAT     H251393   9.203   2.467   6.809
17051WAT      O51394   7.033   1.267   4.538
17051WAT     H151395   7.065   1.297   4.627
17051WAT     H251396   6.941   1.228   4.547
17052WAT      O51397   4.688   3.128   7.151
17052WAT     H151398   4.762   3.130   7.218
17052WAT     H251399   4.691   3.213   7.097
17053WAT      O51400   8.927   0.039   4.259
17053WAT     H151401   8.858   0.111   4.251
17053WAT     H251402   8.962   0.015   4.169
17054WAT      O51403   0.907   7.378   8.082
17054WAT     H151404   0.904   7.290   8.129
17054WAT     H251405   0.984   7.432   8.117
17055WAT      O51406   9.080   9.263   0.301
17055WAT     H151407   8.993   9.281   0.346
17055WAT     H251408   9.142   9.217   0.365
17056WAT      O51409   3.791   4.591   8.847
17056WAT     H151410   3.841   4.664   8.799
17056WAT     H251411   3.708   4.629   8.888
17057WAT      O51412   8.877   1.733   1.230
17057WAT     H151413   8.953   1.755   1.292
17057WAT     H251414   8.848   1.816   1.183
17058WAT      O51415   2.840   5.497   6.203
17058WAT     H151416   2.835   5.539   6.112
17058WAT     H251417   2.931   5.511   6.241
17059WAT      O51418   2.741   4.669   0.564
17059WAT     H151419   2.659   4.694   0.615
17059WAT     H251420   2.817   4.656   0.628
17060WAT      O51421   8.964   2.932   0.734
17060WAT     H151422   8.986   3.029   0.744
17060WAT     H251423   9.042   2.884   0.695
17061WAT      O51424   2.414   9.550   1.612
17061WAT     H151425   2.395   9.628   1.553
17061WAT     H251426   2.466   9.482   1.561
17062WAT      O51427   4.896   6.133   6.323
17062WAT     H151428   4.932   6.178   6.405
17062WAT     H251429   4.950   6.051   6.304
17063WAT      O51430   3.691   6.277   8.150
17063WAT     H151431   3.727   6.365   8.178
17063WAT     H251432   3.704   6.265   8.051
17064WAT      O51433   7.554   1.655   7.380
17064WAT     H151434   7.505   1.639   7.295
17064WAT     H251435   7.488   1.667   7.455
17065WAT      O51436   9.632   1.176   2.969
17065WAT     H151437   9.722   1.135   2.983
17065WAT     H251438   9.593   1.143   2.883
17066WAT      O51439   3.811   5.582   1.420
17066WAT     H151440   3.867   5.536   1.352
17066WAT     H251441   3.715   5.582   1.392
17067WAT      O51442   1.847   9.586   9.474
17067WAT     H151443   1.822   9.621   9.383
17067WAT     H251444   1.945   9.602   9.490
17068WAT      O51445   5.250   5.552   6.104
17068WAT     H151446   5.334   5.600   6.079
17068WAT     H251447   5.181   5.568   6.034
17069WAT      O51448   6.065   0.986   4.631
17069WAT     H151449   6.158   0.986   4.666
17069WAT     H251450   6.005   1.032   4.696
17070WAT      O51451   3.660   8.511   8.703
17070WAT     H151452   3.673   8.440   8.635
17070WAT     H251453   3.594   8.578   8.669
17071WAT      O51454   4.639  -0.002   0.265
17071WAT     H151455   4.639   0.092   0.298
17071WAT     H251456   4.733  -0.033   0.251
17072WAT      O51457   1.590   0.265   1.849
17072WAT     H151458   1.600   0.165   1.846
17072WAT     H251459   1.627   0.300   1.935
17073WAT      O51460   7.632   7.030   8.342
17073WAT     H151461   7.564   7.023   8.269
17073WAT     H251462   7.598   6.981   8.423
17074WAT      O51463   8.395   9.469   9.401
17074WAT     H151464   8.393   9.489   9.499
17074WAT     H251465   8.413   9.553   9.350
17075WAT      O51466   2.711   6.414   1.169
17075WAT     H151467   2.807   6.385   1.165
17075WAT     H251468   2.705   6.511   1.146
17076WAT      O51469   1.530   9.503   3.265
17076WAT     H151470   1.525   9.593   3.223
17076WAT     H251471   1.455   9.493   3.331
17077WAT      O51472   2.055   1.204   7.004
17077WAT     H151473   1.976   1.173   6.951
17077WAT     H251474   2.139   1.182   6.954
17078WAT      O51475   8.953   8.050   3.552
17078WAT     H151476   9.016   7.980   3.584
17078WAT     H251477   8.996   8.102   3.478
17079WAT      O51478   2.388   8.254   8.774
17079WAT     H151479   2.423   8.189   8.842
17079WAT     H251480   2.443   8.248   8.691
17080WAT      O51481   0.144   3.494   8.748
17080WAT     H151482   0.058   3.506   8.700
17080WAT     H251483   0.197   3.579   8.743
17081WAT      O51484   0.964   1.459   5.098
17081WAT     H151485   0.913   1.490   5.018
17081WAT     H251486   1.054   1.502   5.099
17082WAT      O51487   9.696   2.434   7.835
17082WAT     H151488   9.634   2.452   7.912
17082WAT     H251489   9.686   2.506   7.766
17083WAT      O51490   0.390   1.721   3.999
17083WAT     H151491   0.311   1.728   3.938
17083WAT     H251492   0.414   1.624   4.012
17084WAT      O51493   9.841   0.784   6.392
17084WAT     H151494   9.822   0.794   6.490
17084WAT     H251495   9.929   0.826   6.370
17085WAT      O51496   9.676   2.169   9.894
17085WAT     H151497   9.707   2.264   9.898
17085WAT     H251498   9.699   2.130   9.805
17086WAT      O51499   0.472   6.341   7.041
17086WAT     H151500   0.417   6.415   7.000
17086WAT     H251501   0.474   6.264   6.978
17087WAT      O51502   5.850   0.556   7.205
17087WAT     H151503   5.776   0.489   7.197
17087WAT     H251504   5.876   0.588   7.114
17088WAT      O51505   2.948   2.343   5.356
17088WAT     H151506   2.945   2.366   5.259
17088WAT     H251507   3.043   2.340   5.387
17089WAT      O51508   4.592   8.220   2.561
17089WAT     H151509   4.514   8.282   2.548
17089WAT     H251510   4.672   8.273   2.589
17090WAT      O51511   5.775   5.398   6.725
17090WAT     H151512   5.843   5.355   6.666
17090WAT     H251513   5.704   5.440   6.669
17091WAT      O51514   8.624   4.093   3.233
17091WAT     H151515   8.601   3.997   3.250
17091WAT     H251516   8.715   4.112   3.269
17092WAT      O51517   2.894   0.355   3.309
17092WAT     H151518   2.951   0.436   3.324
17092WAT     H251519   2.945   0.273   3.336
17093WAT      O51520   9.093   5.882   2.709
17093WAT     H151521   9.012   5.844   2.663
17093WAT     H251522   9.150   5.930   2.642
17094WAT      O51523   6.275   5.580   6.389
17094WAT     H151524   6.181   5.564   6.360
17094WAT     H251525   6.321   5.492   6.403
17095WAT      O51526   8.057   1.740   5.880
17095WAT     H151527   7.964   1.776   5.894
17095WAT     H251528   8.054   1.640   5.879
17096WAT      O51529   8.699   3.671   1.791
17096WAT     H151530   8.703   3.583   1.744
17096WAT     H251531   8.790   3.713   1.791
17097WAT      O51532   6.524   6.485   4.986
17097WAT     H151533   6.540   6.491   5.085
17097WAT     H251534   6.557   6.397   4.951
17098WAT      O51535   2.864   7.291   3.426
17098WAT     H151536   2.930   7.222   3.455
17098WAT     H251537   2.911   7.364   3.377
17099WAT      O51538   2.715   5.578   6.453
17099WAT     H151539   2.739   5.512   6.524
17099WAT     H251540   2.734   5.539   6.363
17100WAT      O51541   3.062   8.860   0.332
17100WAT     H151542   3.161   8.848   0.324
17100WAT     H251543   3.022   8.876   0.242
17101WAT      O51544   5.171   1.234   0.623
17101WAT     H151545   5.233   1.309   0.647
17101WAT     H251546   5.077   1.261   0.641
17102WAT      O51547   0.773   7.594   0.880
17102WAT     H151548   0.751   7.668   0.817
17102WAT     H251549   0.873   7.586   0.887
17103WAT      O51550   4.381   1.586   3.034
17103WAT     H151551   4.316   1.662   3.037
17103WAT     H251552   4.358   1.520   3.105
17104WAT      O51553   4.134   9.043   6.589
17104WAT     H151554   4.091   9.039   6.679
17104WAT     H251555   4.070   9.009   6.520
17105WAT      O51556   6.485   7.974   6.962
17105WAT     H151557   6.409   7.923   6.923
17105WAT     H251558   6.456   8.068   6.982
17106WAT      O51559   4.917   2.887   3.570
17106WAT     H151560   4.821   2.863   3.555
17106WAT     H251561   4.928   2.922   3.664
17107WAT      O51562   8.970   6.458   8.324
17107WAT     H151563   9.032   6.428   8.252
17107WAT     H251564   8.875   6.440   8.297
17108WAT      O51565   4.982   1.761   2.257
17108WAT     H151566   4.891   1.737   2.222
17108WAT     H251567   4.974   1.792   2.351
17109WAT      O51568   4.780   6.134   4.697
17109WAT     H151569   4.719   6.148   4.619
17109WAT     H251570   4.749   6.189   4.774
17110WAT      O51571   9.253   4.383   5.890
17110WAT     H151572   9.352   4.398   5.893
17110WAT     H251573   9.232   4.312   5.823
17111WAT      O51574   9.130   0.303   9.463
17111WAT     H151575   9.137   0.370   9.536
17111WAT     H251576   9.177   0.219   9.490
17112WAT      O51577   4.447   8.715   1.810
17112WAT     H151578   4.355   8.727   1.848
17112WAT     H251579   4.441   8.684   1.715
17113WAT      O51580   4.174   4.529   1.595
17113WAT     H151581   4.139   4.589   1.523
17113WAT     H251582   4.198   4.584   1.675
17114WAT      O51583   6.367   2.394   9.654
17114WAT     H151584   6.381   2.348   9.566
17114WAT     H251585   6.455   2.429   9.687
17115WAT      O51586   5.906   7.323   3.976
17115WAT     H151587   5.924   7.380   3.895
17115WAT     H251588   5.991   7.280   4.006
17116WAT      O51589   8.997   6.295   1.885
17116WAT     H151590   9.042   6.360   1.823
17116WAT     H251591   9.056   6.279   1.964
17117WAT      O51592   5.336   3.672   8.174
17117WAT     H151593   5.287   3.634   8.096
17117WAT     H251594   5.297   3.761   8.198
17118WAT      O51595   0.471   4.826   2.639
17118WAT     H151596   0.413   4.889   2.691
17118WAT     H251597   0.553   4.875   2.607
17119WAT      O51598   3.977   7.411   4.219
17119WAT     H151599   3.895   7.468   4.207
17119WAT     H251600   3.951   7.323   4.259
17120WAT      O51601   6.230   8.569   5.990
17120WAT     H151602   6.276   8.655   6.012
17120WAT     H251603   6.272   8.495   6.043
17121WAT      O51604   1.278   0.774   6.839
17121WAT     H151605   1.339   0.705   6.878
17121WAT     H251606   1.309   0.865   6.866
17122WAT      O51607   6.531   0.289   6.769
17122WAT     H151608   6.529   0.288   6.669
17122WAT     H251609   6.615   0.331   6.801
17123WAT      O51610   4.920   6.763   9.724
17123WAT     H151611   4.923   6.846   9.668
17123WAT     H251612   4.966   6.780   9.811
17124WAT      O51613   7.227   4.698   3.895
17124WAT     H151614   7.318   4.693   3.854
17124WAT     H251615   7.226   4.767   3.967
17125WAT      O51616   9.297   2.850   8.140
17125WAT     H151617   9.250   2.935   8.164
17125WAT     H251618   9.239   2.772   8.166
17126WAT      O51619   0.420   4.031   7.488
17126WAT     H151620   0.373   4.088   7.555
17126WAT     H251621   0.504   3.995   7.529
17127WAT      O51622   2.800   4.242   0.773
17127WAT     H151623   2.715   4.257   0.824
17127WAT     H251624   2.864   4.317   0.792
17128WAT      O51625   7.370   7.103   2.593
17128WAT     H151626   7.362   7.041   2.672
17128WAT     H251627   7.299   7.082   2.527
17129WAT      O51628   1.931   6.520   2.312
17129WAT     H151629   1.880   6.511   2.398
17129WAT     H251630   1.894   6.597   2.259
17130WAT      O51631   2.807   5.628   9.199
17130WAT     H151632   2.835   5.721   9.176
17130WAT     H251633   2.709   5.617   9.184
17131WAT      O51634   3.648   5.010   8.056
17131WAT     H151635   3.648   4.913   8.031
17131WAT     H251636   3.670   5.020   8.152
17132WAT      O51637   7.409   7.090   9.123
17132WAT     H151638   7.396   7.083   9.222
17132WAT     H251639   7.325   7.124   9.081
17133WAT      O51640   5.436   9.755   9.845
17133WAT     H151641   5.346   9.765   9.804
17133WAT     H251642   5.507   9.783   9.780
17134WAT      O51643   2.197   1.078   6.336
17134WAT     H151644   2.102   1.053   6.356
17134WAT     H251645   2.251   1.074   6.420
17135WAT      O51646   3.385   2.345   4.254
17135WAT     H151647   3.343   2.422   4.302
17135WAT     H251648   3.317   2.273   4.240
17136WAT      O51649   2.237   3.748   7.507
17136WAT     H151650   2.214   3.800   7.590
17136WAT     H251651   2.161   3.753   7.443
17137WAT      O51652   0.314   5.586   7.505
17137WAT     H151653   0.309   5.686   7.501
17137WAT     H251654   0.405   5.556   7.476
17138WAT      O51655   9.185   8.854   7.943
17138WAT     H151656   9.091   8.853   7.911
17138WAT     H251657   9.206   8.943   7.982
17139WAT      O51658   1.006   1.272   8.915
17139WAT     H151659   1.072   1.347   8.924
17139WAT     H251660   1.055   1.185   8.920
17140WAT      O51661   1.058   9.176   7.158
17140WAT     H151662   1.118   9.222   7.093
17140WAT     H251663   0.966   9.216   7.152
17141WAT      O51664   8.531   7.236   1.037
17141WAT     H151665   8.568   7.185   0.959
17141WAT     H251666   8.568   7.197   1.122
17142WAT      O51667   3.902   2.328   4.355
17142WAT     H151668   3.802   2.331   4.351
17142WAT     H251669   3.932   2.233   4.345
17143WAT      O51670   0.253   9.082   1.266
17143WAT     H151671   0.272   9.077   1.168
17143WAT     H251672   0.339   9.074   1.317
17144WAT      O51673   2.943   2.060   3.836
17144WAT     H151674   3.011   2.023   3.773
17144WAT     H251675   2.982   2.140   3.883
17145WAT      O51676   2.728   3.898   5.177
17145WAT     H151677   2.730   3.980   5.120
17145WAT     H251678   2.636   3.859   5.176
17146WAT      O51679   7.192   0.185   9.206
17146WAT     H151680   7.190   0.198   9.305
17146WAT     H251681   7.287   0.190   9.174
17147WAT      O51682   6.864   2.057   5.420
17147WAT     H151683   6.807   2.023   5.495
17147WAT     H251684   6.807   2.076   5.340
17148WAT      O51685   3.744   2.613   7.674
17148WAT     H151686   3.682   2.689   7.659
17148WAT     H251687   3.816   2.614   7.605
17149WAT      O51688   4.704   8.178   4.956
17149WAT     H151689   4.637   8.237   4.911
17149WAT     H251690   4.796   8.207   4.929
17150WAT      O51691   1.620   2.756   5.641
17150WAT     H151692   1.716   2.770   5.620
17150WAT     H251693   1.609   2.740   5.739
17151WAT      O51694   5.773   6.585   4.398
17151WAT     H151695   5.845   6.633   4.347
17151WAT     H251696   5.700   6.649   4.422
17152WAT      O51697   0.356   6.936   9.263
17152WAT     H151698   0.362   6.973   9.356
17152WAT     H251699   0.363   6.836   9.267
17153WAT      O51700   0.320   1.044   7.102
17153WAT     H151701   0.352   0.950   7.110
17153WAT     H251702   0.394   1.102   7.068
17154WAT      O51703   6.777   5.729   4.173
17154WAT     H151704   6.802   5.712   4.078
17154WAT     H251705   6.794   5.647   4.227
17155WAT      O51706   3.017   6.504   9.146
17155WAT     H151707   3.113   6.477   9.141
17155WAT     H251708   2.980   6.481   9.236
17156WAT      O51709   7.076   9.112   6.742
17156WAT     H151710   7.163   9.096   6.697
17156WAT     H251711   7.029   9.189   6.698
17157WAT      O51712   7.934   9.537   6.591
17157WAT     H151713   7.873   9.525   6.670
17157WAT     H251714   7.885   9.511   6.508
17158WAT      O51715   6.846   4.865   1.575
17158WAT     H151716   6.792   4.853   1.659
17158WAT     H251717   6.905   4.945   1.585
17159WAT      O51718   4.030   9.318   8.778
17159WAT     H151719   4.107   9.290   8.721
17159WAT     H251720   4.064   9.350   8.866
17160WAT      O51721   0.258   2.682   5.617
17160WAT     H151722   0.332   2.745   5.595
17160WAT     H251723   0.170   2.728   5.604
17161WAT      O51724   6.215   1.091   2.794
17161WAT     H151725   6.181   1.182   2.820
17161WAT     H251726   6.213   1.082   2.694
17162WAT      O51727   8.032   8.861   9.025
17162WAT     H151728   8.081   8.908   9.098
17162WAT     H251729   7.951   8.913   8.999
17163WAT      O51730   9.049   0.239   2.588
17163WAT     H151731   9.103   0.156   2.601
17163WAT     H251732   9.066   0.275   2.497
17164WAT      O51733   8.240   3.188   3.992
17164WAT     H151734   8.321   3.210   3.937
17164WAT     H251735   8.253   3.099   4.035
17165WAT      O51736   7.779   6.529   5.022
17165WAT     H151737   7.853   6.590   5.049
17165WAT     H251738   7.789   6.441   5.069
17166WAT      O51739   7.266   8.032   5.154
17166WAT     H151740   7.266   7.938   5.189
17166WAT     H251741   7.244   8.031   5.056
17167WAT      O51742   5.466   9.609   4.995
17167WAT     H151743   5.429   9.520   4.970
17167WAT     H251744   5.480   9.664   4.912
17168WAT      O51745   2.300   6.158   1.405
17168WAT     H151746   2.383   6.116   1.442
17168WAT     H251747   2.261   6.221   1.473
17169WAT      O51748   4.398   1.055   3.831
17169WAT     H151749   4.422   1.095   3.920
17169WAT     H251750   4.396   0.956   3.839
17170WAT      O51751   0.278   8.955   0.257
17170WAT     H151752   0.194   8.905   0.236
17170WAT     H251753   0.353   8.921   0.200
17171WAT      O51754   6.237   4.570   0.440
17171WAT     H151755   6.215   4.483   0.397
17171WAT     H251756   6.156   4.607   0.485
17172WAT      O51757   1.162   8.185   0.376
17172WAT     H151758   1.087   8.167   0.440
17172WAT     H251759   1.209   8.269   0.403
17173WAT      O51760   8.684   2.658   0.332
17173WAT     H151761   8.752   2.679   0.402
17173WAT     H251762   8.658   2.562   0.339
17174WAT      O51763   5.058   8.785   4.765
17174WAT     H151764   5.056   8.802   4.666
17174WAT     H251765   5.152   8.793   4.798
17175WAT      O51766   3.660   2.704   6.156
17175WAT     H151767   3.619   2.722   6.246
17175WAT     H251768   3.654   2.786   6.100
17176WAT      O51769   6.155   8.552   4.741
17176WAT     H151770   6.166   8.546   4.840
17176WAT     H251771   6.119   8.642   4.717
17177WAT      O51772   6.772   4.395   0.088
17177WAT     H151773   6.783   4.342   0.172
17177WAT     H251774   6.779   4.335   0.009
17178WAT      O51775   6.520   7.039   3.283
17178WAT     H151776   6.524   7.136   3.263
17178WAT     H251777   6.488   7.025   3.377
17179WAT      O51778   2.002   4.500   5.744
17179WAT     H151779   1.949   4.550   5.812
17179WAT     H251780   2.084   4.553   5.721
17180WAT      O51781   0.521   5.250   8.001
17180WAT     H151782   0.494   5.201   7.918
17180WAT     H251783   0.519   5.348   7.984
17181WAT      O51784   6.692   3.037   8.021
17181WAT     H151785   6.751   3.117   8.015
17181WAT     H251786   6.603   3.063   8.058
17182WAT      O51787   0.137   0.121   8.693
17182WAT     H151788   0.063   0.179   8.727
17182WAT     H251789   0.110   0.025   8.700
17183WAT      O51790   5.901   1.655   4.057
17183WAT     H151791   5.808   1.619   4.055
17183WAT     H251792   5.929   1.669   4.152
17184WAT      O51793   4.942   6.809   3.456
17184WAT     H151794   4.924   6.899   3.496
17184WAT     H251795   5.040   6.791   3.458
17185WAT      O51796   7.791   1.742   1.255
17185WAT     H151797   7.720   1.682   1.290
17185WAT     H251798   7.866   1.747   1.320
17186WAT      O51799   3.289   5.568   7.271
17186WAT     H151800   3.311   5.489   7.214
17186WAT     H251801   3.195   5.559   7.306
17187WAT      O51802   6.979   6.817   9.686
17187WAT     H151803   6.968   6.719   9.669
17187WAT     H251804   7.069   6.847   9.655
17188WAT      O51805   9.807   2.410   9.876
17188WAT     H151806   9.861   2.457   9.806
17188WAT     H251807   9.843   2.432   9.967
17189WAT      O51808   7.755   1.811   5.864
17189WAT     H151809   7.720   1.887   5.918
17189WAT     H251810   7.746   1.726   5.916
17190WAT      O51811   8.495   4.413   4.409
17190WAT     H151812   8.490   4.400   4.310
17190WAT     H251813   8.508   4.510   4.429
17191WAT      O51814   4.358   2.638   5.922
17191WAT     H151815   4.275   2.582   5.915
17191WAT     H251816   4.366   2.673   6.016
17192WAT      O51817   3.343   0.695   4.997
17192WAT     H151818   3.421   0.756   5.011
17192WAT     H251819   3.364   0.632   4.922
17193WAT      O51820   8.525   3.764   6.920
17193WAT     H151821   8.557   3.716   6.839
17193WAT     H251822   8.425   3.775   6.915
17194WAT      O51823   5.660   7.375   5.190
17194WAT     H151824   5.744   7.367   5.136
17194WAT     H251825   5.615   7.286   5.193
17195WAT      O51826   5.072   6.452   8.397
17195WAT     H151827   5.161   6.490   8.374
17195WAT     H251828   5.081   6.386   8.471
17196WAT      O51829   1.615   5.871   3.007
17196WAT     H151830   1.680   5.817   2.954
17196WAT     H251831   1.574   5.940   2.948
17197WAT      O51832   4.823   1.345   1.097
17197WAT     H151833   4.805   1.276   1.027
17197WAT     H251834   4.832   1.301   1.186
17198WAT      O51835   5.248   5.915   0.582
17198WAT     H151836   5.287   5.976   0.651
17198WAT     H251837   5.269   5.820   0.604
17199WAT      O51838   4.721   9.503   5.881
17199WAT     H151839   4.778   9.582   5.860
17199WAT     H251840   4.624   9.529   5.874
17200WAT      O51841   2.243   8.262   9.151
17200WAT     H151842   2.208   8.197   9.218
17200WAT     H251843   2.341   8.246   9.136
17201WAT      O51844   0.293   6.652   9.275
17201WAT     H151845   0.379   6.603   9.285
17201WAT     H251846   0.238   6.642   9.358
17202WAT      O51847   7.551   9.151   0.697
17202WAT     H151848   7.483   9.182   0.764
17202WAT     H251849   7.504   9.102   0.623
17203WAT      O51850   8.552   5.738   3.556
17203WAT     H151851   8.648   5.712   3.569
17203WAT     H251852   8.511   5.760   3.645
17204WAT      O51853   2.469   4.035   7.370
17204WAT     H151854   2.522   4.099   7.315
17204WAT     H251855   2.505   3.942   7.357
17205WAT      O51856   8.912   0.020   1.084
17205WAT     H151857   8.975  -0.050   1.117
17205WAT     H251858   8.963   0.092   1.037
17206WAT      O51859   6.108   8.584   2.621
17206WAT     H151860   6.037   8.564   2.554
17206WAT     H251861   6.094   8.530   2.703
17207WAT      O51862   2.904   4.867   8.393
17207WAT     H151863   2.988   4.848   8.341
17207WAT     H251864   2.860   4.948   8.355
17208WAT      O51865   0.135   1.616   4.338
17208WAT     H151866   0.171   1.550   4.404
17208WAT     H251867   0.149   1.581   4.245
17209WAT      O51868   1.347   2.846   5.656
17209WAT     H151869   1.430   2.797   5.628
17209WAT     H251870   1.341   2.847   5.756
17210WAT      O51871   7.943   6.895   7.245
17210WAT     H151872   8.014   6.950   7.202
17210WAT     H251873   7.983   6.837   7.316
17211WAT      O51874   3.131   3.767   7.393
17211WAT     H151875   3.230   3.762   7.378
17211WAT     H251876   3.113   3.764   7.492
17212WAT      O51877   3.052   8.869   4.210
17212WAT     H151878   3.058   8.800   4.137
17212WAT     H251879   2.956   8.892   4.226
17213WAT      O51880   7.265   2.297   3.882
17213WAT     H151881   7.328   2.298   3.959
17213WAT     H251882   7.315   2.321   3.798
17214WAT      O51883   1.722   3.958   8.341
17214WAT     H151884   1.679   3.872   8.313
17214WAT     H251885   1.732   4.018   8.261
17215WAT      O51886   6.563   9.210   4.618
17215WAT     H151887   6.499   9.285   4.604
17215WAT     H251888   6.513   9.126   4.637
17216WAT      O51889   5.226   0.477   4.464
17216WAT     H151890   5.202   0.569   4.495
17216WAT     H251891   5.152   0.414   4.485
17217WAT      O51892   9.510   2.699   5.821
17217WAT     H151893   9.553   2.609   5.831
17217WAT     H251894   9.415   2.688   5.794
17218WAT      O51895   2.304   4.341   1.779
17218WAT     H151896   2.336   4.306   1.691
17218WAT     H251897   2.373   4.324   1.849
17219WAT      O51898   4.842   3.604   9.771
17219WAT     H151899   4.783   3.663   9.716
17219WAT     H251900   4.924   3.654   9.798
17220WAT      O51901   7.455   8.623   5.101
17220WAT     H151902   7.363   8.615   5.137
17220WAT     H251903   7.508   8.686   5.158
17221WAT      O51904   2.460   5.709   5.764
17221WAT     H151905   2.441   5.755   5.677
17221WAT     H251906   2.502   5.774   5.827
17222WAT      O51907   9.642   3.259   0.248
17222WAT     H151908   9.600   3.349   0.265
17222WAT     H251909   9.666   3.217   0.335
17223WAT      O51910   8.785   7.057   5.241
17223WAT     H151911   8.771   6.974   5.295
17223WAT     H251912   8.732   7.050   5.156
17224WAT      O51913   5.693   8.730   2.865
17224WAT     H151914   5.594   8.729   2.879
17224WAT     H251915   5.716   8.801   2.798
17225WAT      O51916   2.089   1.698   3.074
17225WAT     H151917   2.119   1.603   3.087
17225WAT     H251918   2.043   1.706   2.986
17226WAT      O51919   5.917   6.701   0.969
17226WAT     H151920   5.922   6.632   0.896
17226WAT     H251921   5.900   6.791   0.928
17227WAT      O51922   6.129   5.677   1.349
17227WAT     H151923   6.225   5.649   1.339
17227WAT     H251924   6.069   5.604   1.316
17228WAT      O51925   6.602   1.787   0.939
17228WAT     H151926   6.507   1.791   0.968
17228WAT     H251927   6.611   1.827   0.847
17229WAT      O51928   6.712   4.886   1.055
17229WAT     H151929   6.724   4.894   1.154
17229WAT     H251930   6.654   4.960   1.021
17230WAT      O51931   0.374   0.630   5.808
17230WAT     H151932   0.324   0.713   5.786
17230WAT     H251933   0.375   0.569   5.728
17231WAT      O51934   3.191   3.985   8.122
17231WAT     H151935   3.150   3.928   8.193
17231WAT     H251936   3.142   3.971   8.036
17232WAT      O51937   3.720   3.600   5.930
17232WAT     H151938   3.795   3.661   5.956
17232WAT     H251939   3.703   3.608   5.832
17233WAT      O51940   6.783   2.398   1.120
17233WAT     H151941   6.829   2.332   1.180
17233WAT     H251942   6.849   2.461   1.082
17234WAT      O51943   1.241   3.357   5.448
17234WAT     H151944   1.249   3.258   5.464
17234WAT     H251945   1.158   3.375   5.394
17235WAT      O51946   1.923   0.959   8.117
17235WAT     H151947   1.995   0.989   8.054
17235WAT     H251948   1.862   0.896   8.070
17236WAT      O51949   2.319   8.921   9.204
17236WAT     H151950   2.409   8.893   9.236
17236WAT     H251951   2.314   8.911   9.104
17237WAT      O51952   5.906   5.873   5.554
17237WAT     H151953   5.977   5.843   5.491
17237WAT     H251954   5.945   5.939   5.619
17238WAT      O51955   6.189   8.263   8.281
17238WAT     H151956   6.268   8.228   8.331
17238WAT     H251957   6.108   8.257   8.339
17239WAT      O51958   2.087   9.757   8.696
17239WAT     H151959   2.130   9.681   8.647
17239WAT     H251960   2.005   9.724   8.742
17240WAT      O51961   5.113   8.178   3.757
17240WAT     H151962   5.033   8.188   3.698
17240WAT     H251963   5.153   8.268   3.774
17241WAT      O51964   8.374   0.427   2.658
17241WAT     H151965   8.341   0.346   2.707
17241WAT     H251966   8.471   0.416   2.637
17242WAT      O51967   6.365   3.342   7.850
17242WAT     H151968   6.439   3.384   7.903
17242WAT     H251969   6.351   3.248   7.881
17243WAT      O51970   8.102   8.428   0.977
17243WAT     H151971   8.123   8.521   1.010
17243WAT     H251972   8.054   8.434   0.890
17244WAT      O51973   9.329   1.887   5.767
17244WAT     H151974   9.248   1.832   5.787
17244WAT     H251975   9.322   1.974   5.815
17245WAT      O51976   1.969   0.421   2.837
17245WAT     H151977   1.877   0.388   2.818
17245WAT     H251978   1.986   0.419   2.935
17246WAT      O51979   2.936   2.157   4.472
17246WAT     H151980   2.879   2.239   4.477
17246WAT     H251981   2.881   2.076   4.492
17247WAT      O51982   7.170   8.184   1.393
17247WAT     H151983   7.233   8.239   1.338
17247WAT     H251984   7.076   8.215   1.377
17248WAT      O51985   7.467   9.166   8.956
17248WAT     H151986   7.510   9.227   9.023
17248WAT     H251987   7.493   9.195   8.863
17249WAT      O51988   8.758   0.082   5.887
17249WAT     H151989   8.851   0.090   5.922
17249WAT     H251990   8.692   0.104   5.960
17250WAT      O51991   0.632   4.090   7.795
17250WAT     H151992   0.656   4.035   7.715
17250WAT     H251993   0.597   4.031   7.867
17251WAT      O51994   3.986   8.498   5.400
17251WAT     H151995   3.935   8.577   5.433
17251WAT     H251996   4.030   8.521   5.313
17252WAT      O51997   1.351   7.352   6.578
17252WAT     H151998   1.348   7.256   6.606
17252WAT     H251999   1.308   7.409   6.648
17253WAT      O52000   8.244   1.203   7.413
17253WAT     H152001   8.283   1.236   7.328
17253WAT     H252002   8.302   1.130   7.450
17254WAT      O52003   4.959   3.589   4.912
17254WAT     H152004   4.994   3.553   4.998
17254WAT     H252005   4.941   3.513   4.849
17255WAT      O52006   6.671   3.537   9.697
17255WAT     H152007   6.628   3.450   9.720
17255WAT     H252008   6.753   3.550   9.753
17256WAT      O52009   4.995   2.532   6.766
17256WAT     H152010   4.980   2.459   6.700
17256WAT     H252011   4.911   2.586   6.774
17257WAT      O52012   3.319   7.827   2.604
17257WAT     H152013   3.415   7.849   2.621
17257WAT     H252014   3.286   7.766   2.675
17258WAT      O52015   3.335   0.347   8.484
17258WAT     H152016   3.324   0.350   8.384
17258WAT     H252017   3.432   0.341   8.506
17259WAT      O52018   2.444   8.978   2.345
17259WAT     H152019   2.448   8.991   2.444
17259WAT     H252020   2.466   8.883   2.323
17260WAT      O52021   8.070   0.399   1.142
17260WAT     H152022   8.149   0.351   1.180
17260WAT     H252023   8.002   0.332   1.111
17261WAT      O52024   6.756   6.199   2.248
17261WAT     H152025   6.822   6.145   2.196
17261WAT     H252026   6.703   6.138   2.307
17262WAT      O52027   1.775   2.108   7.349
17262WAT     H152028   1.695   2.055   7.378
17262WAT     H252029   1.814   2.068   7.267
17263WAT      O52030   3.745   3.408   7.801
17263WAT     H152031   3.705   3.493   7.835
17263WAT     H252032   3.834   3.394   7.844
17264WAT      O52033   4.814   2.465   1.698
17264WAT     H152034   4.880   2.416   1.640
17264WAT     H252035   4.863   2.532   1.754
17265WAT      O52036   2.736   9.682   1.241
17265WAT     H152037   2.792   9.760   1.213
17265WAT     H252038   2.643   9.714   1.261
17266WAT      O52039   7.417   4.544   9.229
17266WAT     H152040   7.482   4.499   9.291
17266WAT     H252041   7.355   4.601   9.283
17267WAT      O52042   7.229   4.088   0.725
17267WAT     H152043   7.263   4.102   0.818
17267WAT     H252044   7.289   4.136   0.660
17268WAT      O52045   2.655   8.096   4.288
17268WAT     H152046   2.620   8.079   4.196
17268WAT     H252047   2.751   8.125   4.283
17269WAT      O52048   3.952   0.206   9.848
17269WAT     H152049   3.969   0.123   9.902
17269WAT     H252050   3.868   0.250   9.880
17270WAT      O52051   3.913   1.452   5.990
17270WAT     H152052   3.827   1.429   6.036
17270WAT     H252053   3.990   1.413   6.040
17271WAT      O52054   7.171   3.053   6.478
17271WAT     H152055   7.254   3.027   6.430
17271WAT     H252056   7.127   2.971   6.515
17272WAT      O52057   6.975   6.221   0.637
17272WAT     H152058   6.982   6.305   0.689
17272WAT     H252059   6.899   6.166   0.673
17273WAT      O52060   4.406   8.942   9.438
17273WAT     H152061   4.321   8.968   9.393
17273WAT     H252062   4.413   8.842   9.440
17274WAT      O52063   9.834   8.384   1.577
17274WAT     H152064   9.752   8.364   1.631
17274WAT     H252065   9.902   8.428   1.635
17275WAT      O52066   4.788   0.880   9.801
17275WAT     H152067   4.741   0.805   9.847
17275WAT     H252068   4.828   0.847   9.716
17276WAT      O52069   7.597   7.191   4.432
17276WAT     H152070   7.512   7.177   4.381
17276WAT     H252071   7.661   7.245   4.376
17277WAT      O52072   3.842   7.324   4.993
17277WAT     H152073   3.846   7.236   5.041
17277WAT     H252074   3.853   7.308   4.895
17278WAT      O52075   2.094   9.654   0.288
17278WAT     H152076   2.012   9.600   0.272
17278WAT     H252077   2.069   9.748   0.312
17279WAT      O52078   1.923   2.562   0.073
17279WAT     H152079   1.986   2.595   0.003
17279WAT     H252080   1.968   2.568   0.163
17280WAT      O52081   2.919   8.734   5.499
17280WAT     H152082   2.885   8.646   5.533
17280WAT     H252083   2.865   8.763   5.420
17281WAT      O52084   6.551   1.310   3.479
17281WAT     H152085   6.555   1.211   3.493
17281WAT     H252086   6.643   1.345   3.463
17282WAT      O52087   5.783   8.674   8.419
17282WAT     H152088   5.781   8.770   8.394
17282WAT     H252089   5.756   8.618   8.340
17283WAT      O52090   6.387   8.878   9.606
17283WAT     H152091   6.352   8.787   9.585
17283WAT     H252092   6.486   8.875   9.617
17284WAT      O52093   6.540   8.515   5.542
17284WAT     H152094   6.604   8.444   5.571
17284WAT     H252095   6.446   8.486   5.561
17285WAT      O52096   4.380   2.121   5.616
17285WAT     H152097   4.306   2.130   5.683
17285WAT     H252098   4.359   2.174   5.535
17286WAT      O52099   0.597   1.965   0.443
17286WAT     H152100   0.683   1.950   0.492
17286WAT     H252101   0.616   2.012   0.357
17287WAT      O52102   1.433   6.908   1.103
17287WAT     H152103   1.482   6.994   1.093
17287WAT     H252104   1.360   6.904   1.034
17288WAT      O52105   7.103   9.508   7.505
17288WAT     H152106   7.013   9.470   7.479
17288WAT     H252107   7.106   9.605   7.481
17289WAT      O52108   3.730   1.693   5.753
17289WAT     H152109   3.819   1.707   5.710
17289WAT     H252110   3.722   1.599   5.786
17290WAT      O52111   1.870   2.603   3.779
17290WAT     H152112   1.923   2.559   3.852
17290WAT     H252113   1.920   2.593   3.692
17291WAT      O52114   5.424   8.034   6.819
17291WAT     H152115   5.469   8.062   6.904
17291WAT     H252116   5.365   8.108   6.787
17292WAT      O52117   5.233   4.652   5.051
17292WAT     H152118   5.135   4.638   5.038
17292WAT     H252119   5.251   4.676   5.146
17293WAT      O52120   0.603   9.063   5.164
17293WAT     H152121   0.694   9.042   5.198
17293WAT     H252122   0.608   9.086   5.067
17294WAT      O52123   7.498   4.217   2.511
17294WAT     H152124   7.595   4.234   2.529
17294WAT     H252125   7.461   4.159   2.583
17295WAT      O52126   7.133   9.540   9.282
17295WAT     H152127   7.043   9.503   9.304
17295WAT     H252128   7.131   9.639   9.291
17296WAT      O52129   4.939   9.427   0.978
17296WAT     H152130   5.029   9.386   0.969
17296WAT     H252131   4.932   9.472   1.068
17297WAT      O52132   4.836   3.156   1.315
17297WAT     H152133   4.743   3.167   1.280
17297WAT     H252134   4.900   3.198   1.251
17298WAT      O52135   8.473   0.676   1.587
17298WAT     H152136   8.460   0.775   1.593
17298WAT     H252137   8.444   0.644   1.497
17299WAT      O52138   8.724   3.907   9.239
17299WAT     H152139   8.703   3.814   9.210
17299WAT     H252140   8.823   3.919   9.244
17300WAT      O52141   2.126   3.604   5.670
17300WAT     H152142   2.041   3.638   5.709
17300WAT     H252143   2.195   3.676   5.673
17301WAT      O52144   0.288   9.360   1.312
17301WAT     H152145   0.387   9.345   1.313
17301WAT     H252146   0.242   9.281   1.273
17302WAT      O52147   0.008   0.493   4.367
17302WAT     H152148   0.019   0.555   4.289
17302WAT     H252149  -0.058   0.533   4.432
17303WAT      O52150   1.616   0.131   1.426
17303WAT     H152151   1.612   0.212   1.484
17303WAT     H252152   1.526   0.112   1.388
17304WAT      O52153   7.416   5.001   5.973
17304WAT     H152154   7.458   5.072   6.030
17304WAT     H252155   7.431   5.023   5.876
17305WAT      O52156   8.929   2.747   6.378
17305WAT     H152157   8.978   2.795   6.451
17305WAT     H252158   8.917   2.651   6.405
17306WAT      O52159   3.862   5.351   1.127
17306WAT     H152160   3.941   5.406   1.102
17306WAT     H252161   3.781   5.386   1.080
17307WAT      O52162   7.786   1.542   7.470
17307WAT     H152163   7.869   1.546   7.413
17307WAT     H252164   7.709   1.578   7.417
17308WAT      O52165   6.637   8.426   5.137
17308WAT     H152166   6.658   8.354   5.204
17308WAT     H252167   6.716   8.439   5.077
17309WAT      O52168   0.100   9.496   9.061
17309WAT     H152169   0.009   9.486   9.099
17309WAT     H252170   0.166   9.513   9.134
17310WAT      O52171   9.241   5.097   8.836
17310WAT     H152172   9.217   5.019   8.894
17310WAT     H252173   9.169   5.166   8.839
17311WAT      O52174   1.191   1.897   2.199
17311WAT     H152175   1.204   1.996   2.202
17311WAT     H252176   1.270   1.854   2.155
17312WAT      O52177   9.631   8.800   1.754
17312WAT     H152178   9.609   8.882   1.702
17312WAT     H252179   9.560   8.731   1.738
17313WAT      O52180   2.225   6.557   9.653
17313WAT     H152181   2.251   6.648   9.685
17313WAT     H252182   2.195   6.502   9.731
17314WAT      O52183   2.378   0.430   0.132
17314WAT     H152184   2.446   0.360   0.111
17314WAT     H252185   2.291   0.387   0.155
17315WAT      O52186   4.987   5.935   4.717
17315WAT     H152187   5.002   5.901   4.810
17315WAT     H252188   4.895   5.973   4.710
17316WAT      O52189   1.188   6.990   8.126
17316WAT     H152190   1.256   7.000   8.199
17316WAT     H252191   1.230   6.947   8.047
17317WAT      O52192   8.493   8.927   5.024
17317WAT     H152193   8.417   8.986   4.997
17317WAT     H252194   8.493   8.917   5.124
17318WAT      O52195   0.198   8.249   9.269
17318WAT     H152196   0.100   8.235   9.280
17318WAT     H252197   0.233   8.304   9.345
17319WAT      O52198   3.212   3.624   5.019
17319WAT     H152199   3.116   3.650   5.011
17319WAT     H252200   3.219   3.525   5.033
17320WAT      O52201   0.407   6.136   1.775
17320WAT     H152202   0.463   6.218   1.766
17320WAT     H252203   0.442   6.079   1.850
17321WAT      O52204   4.778   2.293   8.185
17321WAT     H152205   4.751   2.212   8.133
17321WAT     H252206   4.750   2.282   8.280
17322WAT      O52207   0.819   4.425   7.526
17322WAT     H152208   0.802   4.524   7.529
17322WAT     H252209   0.800   4.385   7.616
17323WAT      O52210   9.765   5.337   7.918
17323WAT     H152211   9.789   5.283   7.999
17323WAT     H252212   9.734   5.427   7.946
17324WAT      O52213   9.683   8.370   4.286
17324WAT     H152214   9.769   8.413   4.315
17324WAT     H252215   9.633   8.434   4.227
17325WAT      O52216   7.121   2.305   7.356
17325WAT     H152217   7.213   2.268   7.342
17325WAT     H252218   7.113   2.343   7.449
17326WAT      O52219   7.391   4.928   3.710
17326WAT     H152220   7.319   4.922   3.641
17326WAT     H252221   7.420   4.835   3.736
17327WAT      O52222   2.327   3.347   3.041
17327WAT     H152223   2.341   3.446   3.031
17327WAT     H252224   2.256   3.331   3.110
17328WAT      O52225   3.117   2.112   8.437
17328WAT     H152226   3.117   2.163   8.351
17328WAT     H252227   3.206   2.069   8.450
17329WAT      O52228   6.116   2.959   9.858
17329WAT     H152229   6.130   2.862   9.876
17329WAT     H252230   6.134   2.979   9.762
17330WAT      O52231   8.102   0.140   5.274
17330WAT     H152232   8.102   0.084   5.191
17330WAT     H252233   8.155   0.093   5.345
17331WAT      O52234   0.573   7.341   6.093
17331WAT     H152235   0.662   7.388   6.092
17331WAT     H252236   0.553   7.310   6.186
17332WAT      O52237   5.929   6.402   7.703
17332WAT     H152238   5.865   6.383   7.777
17332WAT     H252239   5.878   6.429   7.621
17333WAT      O52240   6.330   3.852   5.100
17333WAT     H152241   6.397   3.779   5.095
17333WAT     H252242   6.357   3.917   5.171
17334WAT      O52243   7.801   8.915   2.971
17334WAT     H152244   7.824   8.922   3.068
17334WAT     H252245   7.714   8.867   2.960
17335WAT      O52246   2.123   8.877   0.265
17335WAT     H152247   2.133   8.840   0.172
17335WAT     H252248   2.117   8.802   0.331
17336WAT      O52249   3.334   4.693   8.089
17336WAT     H152250   3.303   4.608   8.133
17336WAT     H252251   3.361   4.673   7.994
17337WAT      O52252   7.368   0.807   2.846
17337WAT     H152253   7.467   0.810   2.853
17337WAT     H252254   7.334   0.718   2.877
17338WAT      O52255   0.682   0.734   8.881
17338WAT     H152256   0.617   0.805   8.907
17338WAT     H252257   0.644   0.679   8.806
17339WAT      O52258   3.303   9.157   5.537
17339WAT     H152259   3.246   9.078   5.560
17339WAT     H252260   3.361   9.135   5.458
17340WAT      O52261   7.547   8.885   0.979
17340WAT     H152262   7.628   8.826   0.980
17340WAT     H252263   7.496   8.869   0.894
17341WAT      O52264   5.162   2.991   8.293
17341WAT     H152265   5.106   3.073   8.286
17341WAT     H252266   5.132   2.935   8.370
17342WAT      O52267   7.971   9.568   4.400
17342WAT     H152268   7.956   9.472   4.425
17342WAT     H252269   7.909   9.593   4.326
17343WAT      O52270   3.325   5.081   0.656
17343WAT     H152271   3.348   4.983   0.656
17343WAT     H252272   3.271   5.102   0.737
17344WAT      O52273   8.894   4.865   6.684
17344WAT     H152274   8.993   4.873   6.670
17344WAT     H252275   8.848   4.943   6.643
17345WAT      O52276   2.470   1.094   9.807
17345WAT     H152277   2.555   1.110   9.857
17345WAT     H252278   2.491   1.062   9.715
17346WAT      O52279   5.643   7.453   5.456
17346WAT     H152280   5.667   7.404   5.372
17346WAT     H252281   5.547   7.435   5.478
17347WAT      O52282   9.586   8.322   5.227
17347WAT     H152283   9.492   8.322   5.193
17347WAT     H252284   9.587   8.356   5.321
17348WAT      O52285   8.643   6.457   2.992
17348WAT     H152286   8.701   6.403   3.054
17348WAT     H252287   8.547   6.435   3.010
17349WAT      O52288   2.789   7.356   4.044
17349WAT     H152289   2.753   7.277   4.095
17349WAT     H252290   2.882   7.375   4.074
17350WAT      O52291   7.302   5.879   8.519
17350WAT     H152292   7.361   5.885   8.439
17350WAT     H252293   7.283   5.782   8.540
17351WAT      O52294   0.674   4.784   9.711
17351WAT     H152295   0.760   4.811   9.754
17351WAT     H252296   0.598   4.824   9.761
17352WAT      O52297   4.127   9.258   6.304
17352WAT     H152298   4.223   9.262   6.332
17352WAT     H252299   4.098   9.163   6.298
17353WAT      O52300   7.739   9.267   6.284
17353WAT     H152301   7.694   9.244   6.198
17353WAT     H252302   7.826   9.220   6.290
17354WAT      O52303   8.336   0.159   7.826
17354WAT     H152304   8.402   0.186   7.756
17354WAT     H252305   8.309   0.064   7.811
17355WAT      O52306   1.750   9.727   4.389
17355WAT     H152307   1.789   9.681   4.468
17355WAT     H252308   1.700   9.808   4.418
17356WAT      O52309   5.709   2.608   2.978
17356WAT     H152310   5.625   2.651   3.010
17356WAT     H252311   5.752   2.667   2.909
17357WAT      O52312   5.993   2.673   7.007
17357WAT     H152313   5.998   2.766   7.043
17357WAT     H252314   5.988   2.609   7.083
17358WAT      O52315   3.915   1.133   1.779
17358WAT     H152316   3.861   1.136   1.863
17358WAT     H252317   3.954   1.224   1.761
17359WAT      O52318   0.854   2.635   3.941
17359WAT     H152319   0.949   2.606   3.954
17359WAT     H252320   0.851   2.711   3.876
17360WAT      O52321   0.290   1.170   2.930
17360WAT     H152322   0.353   1.205   3.000
17360WAT     H252323   0.321   1.081   2.899
17361WAT      O52324   8.293   0.220   5.886
17361WAT     H152325   8.300   0.306   5.936
17361WAT     H252326   8.296   0.143   5.950
17362WAT      O52327   8.755   0.667   1.069
17362WAT     H152328   8.772   0.744   1.008
17362WAT     H252329   8.703   0.698   1.148
17363WAT      O52330   1.215   3.433   4.304
17363WAT     H152331   1.248   3.382   4.224
17363WAT     H252332   1.266   3.518   4.313
17364WAT      O52333   4.918   6.052   1.156
17364WAT     H152334   4.848   5.982   1.143
17364WAT     H252335   4.966   6.068   1.069
17365WAT      O52336   3.113   9.111   7.865
17365WAT     H152337   3.114   9.045   7.789
17365WAT     H252338   3.018   9.140   7.882
17366WAT      O52339   8.531   0.648   3.542
17366WAT     H152340   8.620   0.621   3.506
17366WAT     H252341   8.498   0.578   3.606
17367WAT      O52342   9.071   3.645   3.461
17367WAT     H152343   8.977   3.662   3.490
17367WAT     H252344   9.127   3.623   3.541
17368WAT      O52345   4.521   4.921   0.020
17368WAT     H152346   4.545   4.976   0.099
17368WAT     H252347   4.453   4.970  -0.035
17369WAT      O52348   1.461   7.568   4.271
17369WAT     H152349   1.438   7.538   4.364
17369WAT     H252350   1.378   7.575   4.217
17370WAT      O52351   1.534   0.026   7.015
17370WAT     H152352   1.584   0.101   7.059
17370WAT     H252353   1.596  -0.052   7.001
17371WAT      O52354   9.731   6.288   8.022
17371WAT     H152355   9.714   6.191   8.004
17371WAT     H252356   9.790   6.325   7.951
17372WAT      O52357   0.169   0.995   9.071
17372WAT     H152358   0.226   0.913   9.081
17372WAT     H252359   0.130   1.020   9.159
17373WAT      O52360   1.512   2.742   9.133
17373WAT     H152361   1.502   2.716   9.037
17373WAT     H252362   1.432   2.794   9.162
17374WAT      O52363   3.073   1.584   0.243
17374WAT     H152364   3.035   1.510   0.187
17374WAT     H252365   3.071   1.558   0.339
17375WAT      O52366   0.284   8.832   8.147
17375WAT     H152367   0.365   8.793   8.103
17375WAT     H252368   0.281   8.930   8.130
17376WAT      O52369   2.211   8.701   5.928
17376WAT     H152370   2.152   8.746   5.996
17376WAT     H252371   2.215   8.603   5.946
17377WAT      O52372   1.923   9.272   4.727
17377WAT     H152373   2.009   9.311   4.697
17377WAT     H252374   1.914   9.282   4.826
17378WAT      O52375   2.687   9.468   2.607
17378WAT     H152376   2.762   9.532   2.624
17378WAT     H252377   2.653   9.433   2.694
17379WAT      O52378   9.665   2.241   3.381
17379WAT     H152379   9.676   2.301   3.461
17379WAT     H252380   9.731   2.267   3.311
17380WAT      O52381   3.246   3.923   6.774
17380WAT     H152382   3.261   3.993   6.844
17380WAT     H252383   3.334   3.891   6.739
17381WAT      O52384   9.557   4.504   3.123
17381WAT     H152385   9.633   4.450   3.084
17381WAT     H252386   9.471   4.476   3.079
17382WAT      O52387   3.759   4.150   0.121
17382WAT     H152388   3.674   4.098   0.125
17382WAT     H252389   3.833   4.095   0.160
17383WAT      O52390   1.842   7.359   4.885
17383WAT     H152391   1.785   7.282   4.913
17383WAT     H252392   1.831   7.434   4.951
17384WAT      O52393   7.688   6.051   8.743
17384WAT     H152394   7.617   6.121   8.728
17384WAT     H252395   7.778   6.095   8.741
17385WAT      O52396   5.924   5.989   9.234
17385WAT     H152397   5.858   6.064   9.245
17385WAT     H252398   5.902   5.916   9.298
17386WAT      O52399   8.020   5.882   1.047
17386WAT     H152400   8.118   5.883   1.066
17386WAT     H252401   7.970   5.850   1.127
17387WAT      O52402   0.255   3.005   1.174
17387WAT     H152403   0.349   2.971   1.175
17387WAT     H252404   0.233   3.043   1.264
17388WAT      O52405   8.182   5.393   5.320
17388WAT     H152406   8.181   5.293   5.318
17388WAT     H252407   8.203   5.428   5.229
17389WAT      O52408   1.393   0.077   5.162
17389WAT     H152409   1.474   0.033   5.203
17389WAT     H252410   1.416   0.170   5.135
17390WAT      O52411   6.202   1.090   0.992
17390WAT     H152412   6.244   1.071   0.903
17390WAT     H252413   6.255   1.160   1.039
17391WAT      O52414   0.377   4.479   3.044
17391WAT     H152415   0.384   4.395   2.991
17391WAT     H252416   0.361   4.556   2.982
17392WAT      O52417   2.553   0.270   6.416
17392WAT     H152418   2.586   0.177   6.433
17392WAT     H252419   2.538   0.282   6.318
17393WAT      O52420   8.777   6.740   5.160
17393WAT     H152421   8.841   6.802   5.113
17393WAT     H252422   8.693   6.734   5.107
17394WAT      O52423   4.560   6.352   8.068
17394WAT     H152424   4.592   6.351   8.163
17394WAT     H252425   4.460   6.356   8.067
17395WAT      O52426   8.028   2.522   6.603
17395WAT     H152427   7.990   2.478   6.521
17395WAT     H252428   8.080   2.603   6.576
17396WAT      O52429   8.741   0.175   3.126
17396WAT     H152430   8.833   0.148   3.096
17396WAT     H252431   8.730   0.274   3.112
17397WAT      O52432   2.221   0.060   1.262
17397WAT     H152433   2.285   0.136   1.270
17397WAT     H252434   2.128   0.093   1.280
17398WAT      O52435   3.615   7.480   4.922
17398WAT     H152436   3.706   7.447   4.949
17398WAT     H252437   3.589   7.556   4.982
17399WAT      O52438   2.641   6.069   3.615
17399WAT     H152439   2.621   5.979   3.576
17399WAT     H252440   2.677   6.129   3.544
17400WAT      O52441   0.717   1.453   5.696
17400WAT     H152442   0.776   1.518   5.648
17400WAT     H252443   0.691   1.491   5.785
17401WAT      O52444   1.337   7.235   0.249
17401WAT     H152445   1.402   7.303   0.285
17401WAT     H252446   1.262   7.282   0.204
17402WAT      O52447   8.301   8.383   0.503
17402WAT     H152448   8.371   8.355   0.569
17402WAT     H252449   8.345   8.416   0.420
17403WAT      O52450   7.390   6.623   2.001
17403WAT     H152451   7.445   6.661   2.075
17403WAT     H252452   7.307   6.582   2.039
17404WAT      O52453   3.451   1.003   6.820
17404WAT     H152454   3.395   0.928   6.854
17404WAT     H252455   3.429   1.087   6.871
17405WAT      O52456   7.494   3.672   6.392
17405WAT     H152457   7.406   3.702   6.427
17405WAT     H252458   7.543   3.621   6.462
17406WAT      O52459   8.320   2.758   8.755
17406WAT     H152460   8.225   2.726   8.748
17406WAT     H252461   8.355   2.736   8.846
17407WAT      O52462   7.337   2.527   2.263
17407WAT     H152463   7.320   2.585   2.183
17407WAT     H252464   7.405   2.457   2.240
17408WAT      O52465   2.660   0.620   7.962
17408WAT     H152466   2.629   0.699   7.909
17408WAT     H252467   2.753   0.635   7.993
17409WAT      O52468   9.839   4.410   8.210
17409WAT     H152469   9.922   4.384   8.259
17409WAT     H252470   9.765   4.425   8.275
17410WAT      O52471   2.516   3.614   9.768
17410WAT     H152472   2.539   3.670   9.689
17410WAT     H252473   2.557   3.653   9.850
17411WAT      O52474   6.113   8.085   4.542
17411WAT     H152475   6.067   8.024   4.477
17411WAT     H252476   6.047   8.115   4.611
17412WAT      O52477   0.220   6.831   2.933
17412WAT     H152478   0.228   6.792   3.025
17412WAT     H252479   0.227   6.759   2.865
17413WAT      O52480   2.262   4.027   9.020
17413WAT     H152481   2.325   4.043   8.944
17413WAT     H252482   2.173   3.999   8.985
17414WAT      O52483   2.686   3.385   9.664
17414WAT     H152484   2.783   3.397   9.689
17414WAT     H252485   2.632   3.460   9.703
17415WAT      O52486   8.023   2.679   6.193
17415WAT     H152487   7.962   2.619   6.243
17415WAT     H252488   7.986   2.772   6.193
17416WAT      O52489   4.094   3.666   4.685
17416WAT     H152490   4.172   3.603   4.679
17416WAT     H252491   4.123   3.756   4.655
17417WAT      O52492   1.889   4.662   5.934
17417WAT     H152493   1.967   4.698   5.987
17417WAT     H252494   1.805   4.701   5.969
17418WAT      O52495   8.716   6.933   8.427
17418WAT     H152496   8.774   6.875   8.369
17418WAT     H252497   8.738   7.029   8.409
17419WAT      O52498   9.273   8.148   6.619
17419WAT     H152499   9.249   8.052   6.611
17419WAT     H252500   9.282   8.172   6.716
17420WAT      O52501   1.296   3.276   2.259
17420WAT     H152502   1.329   3.285   2.353
17420WAT     H252503   1.244   3.191   2.250
17421WAT      O52504   5.840   7.850   0.062
17421WAT     H152505   5.751   7.823   0.024
17421WAT     H252506   5.854   7.804   0.150
17422WAT      O52507   6.495   3.829   8.335
17422WAT     H152508   6.459   3.921   8.323
17422WAT     H252509   6.511   3.812   8.432
17423WAT      O52510   4.700   9.721   2.376
17423WAT     H152511   4.747   9.809   2.364
17423WAT     H252512   4.755   9.662   2.435
17424WAT      O52513   5.726   7.708   2.738
17424WAT     H152514   5.673   7.637   2.693
17424WAT     H252515   5.711   7.796   2.692
17425WAT      O52516   7.442   2.735   6.449
17425WAT     H152517   7.390   2.673   6.391
17425WAT     H252518   7.427   2.829   6.417
17426WAT      O52519   3.427   4.731   5.732
17426WAT     H152520   3.437   4.643   5.684
17426WAT     H252521   3.346   4.778   5.699
17427WAT      O52522   9.740   6.475   3.383
17427WAT     H152523   9.786   6.497   3.297
17427WAT     H252524   9.651   6.433   3.364
17428WAT      O52525   0.820   0.929   1.382
17428WAT     H152526   0.860   0.928   1.474
17428WAT     H252527   0.820   1.023   1.348
17429WAT      O52528   1.445   9.693   3.946
17429WAT     H152529   1.514   9.766   3.948
17429WAT     H252530   1.477   9.615   4.000
17430WAT      O52531   1.827   9.562   3.215
17430WAT     H152532   1.730   9.552   3.240
17430WAT     H252533   1.847   9.658   3.196
17431WAT      O52534   6.915   8.594   2.349
17431WAT     H152535   6.865   8.646   2.280
17431WAT     H252536   6.975   8.528   2.304
17432WAT      O52537   8.028   3.009   8.064
17432WAT     H152538   7.986   2.961   7.987
17432WAT     H252539   7.958   3.057   8.116
17433WAT      O52540   3.842   8.329   7.641
17433WAT     H152541   3.828   8.252   7.702
17433WAT     H252542   3.892   8.298   7.559
17434WAT      O52543   2.417   5.443   1.630
17434WAT     H152544   2.438   5.358   1.678
17434WAT     H252545   2.477   5.454   1.551
17435WAT      O52546   9.850   2.630   4.239
17435WAT     H152547   9.944   2.635   4.274
17435WAT     H252548   9.787   2.670   4.305
17436WAT      O52549   8.086   0.909   0.828
17436WAT     H152550   8.073   1.007   0.820
17436WAT     H252551   8.178   0.890   0.863
17437WAT      O52552   1.387   4.423   5.155
17437WAT     H152553   1.296   4.449   5.187
17437WAT     H252554   1.451   4.498   5.172
17438WAT      O52555   1.810   7.224   8.712
17438WAT     H152556   1.793   7.180   8.623
17438WAT     H252557   1.863   7.163   8.770
17439WAT      O52558   7.524   0.483   9.676
17439WAT     H152559   7.468   0.445   9.750
17439WAT     H252560   7.480   0.464   9.588
17440WAT      O52561   1.801   6.076   8.512
17440WAT     H152562   1.753   6.160   8.539
17440WAT     H252563   1.745   6.024   8.448
17441WAT      O52564   1.983   8.299   7.392
17441WAT     H152565   1.986   8.213   7.341
17441WAT     H252566   2.070   8.347   7.383
17442WAT      O52567   0.448   6.156   5.721
17442WAT     H152568   0.465   6.125   5.815
17442WAT     H252569   0.351   6.179   5.711
17443WAT      O52570   0.812   8.364   7.908
17443WAT     H152571   0.767   8.350   7.820
17443WAT     H252572   0.839   8.275   7.946
17444WAT      O52573   3.241   7.721   8.651
17444WAT     H152574   3.232   7.766   8.740
17444WAT     H252575   3.190   7.635   8.652
17445WAT      O52576   8.239   0.941   3.783
17445WAT     H152577   8.147   0.929   3.747
17445WAT     H252578   8.262   1.039   3.784
17446WAT      O52579   0.813   6.880   3.930
17446WAT     H152580   0.764   6.967   3.919
17446WAT     H252581   0.862   6.858   3.846
17447WAT      O52582   6.666   9.587   1.574
17447WAT     H152583   6.707   9.500   1.603
17447WAT     H252584   6.711   9.662   1.622
17448WAT      O52585   6.402   7.176   9.652
17448WAT     H152586   6.355   7.215   9.574
17448WAT     H252587   6.465   7.104   9.621
17449WAT      O52588   7.984   3.188   9.862
17449WAT     H152589   7.891   3.166   9.832
17449WAT     H252590   7.998   3.153   9.955
17450WAT      O52591   3.583   0.385   2.174
17450WAT     H152592   3.659   0.328   2.145
17450WAT     H252593   3.595   0.410   2.270
17451WAT      O52594   4.829   2.371   9.165
17451WAT     H152595   4.776   2.419   9.095
17451WAT     H252596   4.774   2.297   9.203
17452WAT      O52597   3.270   2.056   2.558
17452WAT     H152598   3.301   2.142   2.600
17452WAT     H252599   3.216   2.004   2.625
17453WAT      O52600   7.585   0.578   6.151
17453WAT     H152601   7.559   0.504   6.089
17453WAT     H252602   7.679   0.605   6.133
17454WAT      O52603   1.769   0.953   8.523
17454WAT     H152604   1.766   1.010   8.441
17454WAT     H252605   1.862   0.951   8.560
17455WAT      O52606   7.494   3.401   0.823
17455WAT     H152607   7.544   3.447   0.897
17455WAT     H252608   7.450   3.469   0.765
17456WAT      O52609   9.289   6.716   5.104
17456WAT     H152610   9.358   6.711   5.032
17456WAT     H252611   9.207   6.761   5.068
17457WAT      O52612   6.416   8.770   6.732
17457WAT     H152613   6.415   8.724   6.643
17457WAT     H252614   6.348   8.728   6.792
17458WAT      O52615   0.152   6.139   1.171
17458WAT     H152616   0.157   6.137   1.071
17458WAT     H252617   0.155   6.046   1.207
17459WAT      O52618   9.484   3.560   5.604
17459WAT     H152619   9.514   3.608   5.686
17459WAT     H252620   9.491   3.621   5.525
17460WAT      O52621   6.895   4.986   0.437
17460WAT     H152622   6.988   4.953   0.422
17460WAT     H252623   6.829   4.916   0.408
17461WAT      O52624   6.887   7.404   4.377
17461WAT     H152625   6.914   7.336   4.309
17461WAT     H252626   6.788   7.407   4.383
17462WAT      O52627   8.959   5.387   4.047
17462WAT     H152628   9.056   5.396   4.024
17462WAT     H252629   8.942   5.294   4.081
17463WAT      O52630   0.123   9.050   1.578
17463WAT     H152631   0.210   9.028   1.621
17463WAT     H252632   0.050   9.049   1.647
17464WAT      O52633   7.618   4.914   9.107
17464WAT     H152634   7.573   4.966   9.034
17464WAT     H252635   7.580   4.941   9.195
17465WAT      O52636   3.402   0.264   3.691
17465WAT     H152637   3.456   0.209   3.627
17465WAT     H252638   3.364   0.204   3.762
17466WAT      O52639   3.723   5.681   7.996
17466WAT     H152640   3.647   5.617   7.987
17466WAT     H252641   3.796   5.656   7.933
17467WAT      O52642   3.150   6.867   7.753
17467WAT     H152643   3.228   6.910   7.798
17467WAT     H252644   3.108   6.933   7.690
17468WAT      O52645   1.212   5.192   7.239
17468WAT     H152646   1.253   5.108   7.201
17468WAT     H252647   1.189   5.178   7.335
17469WAT      O52648   8.273   7.782   3.968
17469WAT     H152649   8.320   7.810   3.885
17469WAT     H252650   8.223   7.860   4.006
17470WAT      O52651   5.817   6.109   8.554
17470WAT     H152652   5.877   6.137   8.628
17470WAT     H252653   5.772   6.023   8.578
17471WAT      O52654   5.089   0.545   3.396
17471WAT     H152655   5.005   0.491   3.390
17471WAT     H252656   5.067   0.639   3.419
17472WAT      O52657   0.523   5.637   3.912
17472WAT     H152658   0.514   5.726   3.867
17472WAT     H252659   0.453   5.575   3.877
17473WAT      O52660   6.377   1.110   6.552
17473WAT     H152661   6.377   1.012   6.572
17473WAT     H252662   6.448   1.130   6.484
17474WAT      O52663   3.472   2.513   8.223
17474WAT     H152664   3.498   2.604   8.254
17474WAT     H252665   3.508   2.497   8.131
17475WAT      O52666   3.282   8.286   0.180
17475WAT     H152667   3.198   8.293   0.126
17475WAT     H252668   3.291   8.367   0.238
17476WAT      O52669   6.735   6.407   8.253
17476WAT     H152670   6.786   6.352   8.186
17476WAT     H252671   6.652   6.442   8.211
17477WAT      O52672   2.793   7.118   7.298
17477WAT     H152673   2.815   7.069   7.213
17477WAT     H252674   2.827   7.066   7.376
17478WAT      O52675   2.548   0.904   4.554
17478WAT     H152676   2.604   0.867   4.480
17478WAT     H252677   2.588   0.881   4.642
17479WAT      O52678   0.469   8.624   5.038
17479WAT     H152679   0.385   8.640   4.987
17479WAT     H252680   0.471   8.684   5.118
17480WAT      O52681   7.285   4.897   6.539
17480WAT     H152682   7.268   4.846   6.456
17480WAT     H252683   7.371   4.866   6.581
17481WAT      O52684   5.651   2.699   7.804
17481WAT     H152685   5.607   2.623   7.852
17481WAT     H252686   5.603   2.784   7.825
17482WAT      O52687   3.251   1.765   1.810
17482WAT     H152688   3.289   1.836   1.870
17482WAT     H252689   3.284   1.676   1.841
17483WAT      O52690   0.527   9.089   3.799
17483WAT     H152691   0.527   9.005   3.744
17483WAT     H252692   0.439   9.134   3.791
17484WAT      O52693   2.498   2.846   4.921
17484WAT     H152694   2.590   2.812   4.903
17484WAT     H252695   2.439   2.825   4.843
17485WAT      O52696   1.152   8.380   7.236
17485WAT     H152697   1.094   8.450   7.278
17485WAT     H252698   1.234   8.423   7.199
17486WAT      O52699   0.903   7.048   9.290
17486WAT     H152700   0.805   7.029   9.291
17486WAT     H252701   0.928   7.098   9.373
17487WAT      O52702   5.206   0.024   4.370
17487WAT     H152703   5.125   0.081   4.356
17487WAT     H252704   5.281   0.080   4.406
17488WAT      O52705   5.835   3.451   7.348
17488WAT     H152706   5.796   3.534   7.389
17488WAT     H252707   5.800   3.440   7.255
17489WAT      O52708   6.722   3.327   4.641
17489WAT     H152709   6.750   3.419   4.668
17489WAT     H252710   6.748   3.262   4.713
17490WAT      O52711   1.754   8.991   9.752
17490WAT     H152712   1.710   8.943   9.828
17490WAT     H252713   1.804   8.925   9.695
17491WAT      O52714   0.831   4.961   6.702
17491WAT     H152715   0.925   4.968   6.667
17491WAT     H252716   0.822   4.876   6.753
17492WAT      O52717   8.720   2.085   6.145
17492WAT     H152718   8.815   2.054   6.138
17492WAT     H252719   8.659   2.008   6.130
17493WAT      O52720   0.445   7.247   6.317
17493WAT     H152721   0.499   7.163   6.311
17493WAT     H252722   0.350   7.224   6.341
17494WAT      O52723   3.081   7.765   1.856
17494WAT     H152724   3.071   7.853   1.809
17494WAT     H252725   3.105   7.780   1.952
17495WAT      O52726   7.256   7.054   3.288
17495WAT     H152727   7.257   6.967   3.240
17495WAT     H252728   7.194   7.049   3.366
17496WAT      O52729   6.138   6.733   8.663
17496WAT     H152730   6.225   6.692   8.633
17496WAT     H252731   6.086   6.761   8.583
17497WAT      O52732   4.264   9.320   2.042
17497WAT     H152733   4.201   9.292   1.970
17497WAT     H252734   4.341   9.369   2.002
17498WAT      O52735   4.908   3.985   9.680
17498WAT     H152736   4.888   3.980   9.582
17498WAT     H252737   4.926   4.080   9.706
17499WAT      O52738   8.365   8.675   2.694
17499WAT     H152739   8.404   8.762   2.726
17499WAT     H252740   8.419   8.599   2.729
17500WAT      O52741   7.872   1.467   5.354
17500WAT     H152742   7.857   1.519   5.438
17500WAT     H252743   7.970   1.464   5.334
17501WAT      O52744   0.170   6.001   7.302
17501WAT     H152745   0.222   6.074   7.257
17501WAT     H252746   0.072   6.020   7.295
17502WAT      O52747   2.603   0.297   5.011
17502WAT     H152748   2.689   0.299   5.062
17502WAT     H252749   2.529   0.328   5.070
17503WAT      O52750   9.279   2.127   9.238
17503WAT     H152751   9.324   2.078   9.164
17503WAT     H252752   9.207   2.185   9.199
17504WAT      O52753   0.741   9.786   7.324
17504WAT     H152754   0.690   9.715   7.275
17504WAT     H252755   0.755   9.865   7.264
17505WAT      O52756   4.604   8.177   7.679
17505WAT     H152757   4.700   8.154   7.698
17505WAT     H252758   4.589   8.176   7.580
17506WAT      O52759   5.993   4.770   2.520
17506WAT     H152760   6.005   4.838   2.592
17506WAT     H252761   6.066   4.702   2.525
17507WAT      O52762   9.121   1.064   7.483
17507WAT     H152763   9.211   1.088   7.519
17507WAT     H252764   9.129   1.046   7.385
17508WAT      O52765   6.483   3.426   5.829
17508WAT     H152766   6.573   3.390   5.854
17508WAT     H252767   6.482   3.525   5.843
17509WAT      O52768   6.883   3.688   0.930
17509WAT     H152769   6.868   3.712   1.026
17509WAT     H252770   6.798   3.653   0.890
17510WAT      O52771   8.890   4.653   0.424
17510WAT     H152772   8.802   4.653   0.471
17510WAT     H252773   8.881   4.697   0.335
17511WAT      O52774   2.084   1.579   2.622
17511WAT     H152775   2.015   1.527   2.571
17511WAT     H252776   2.111   1.527   2.703
17512WAT      O52777   4.082   3.756   3.832
17512WAT     H152778   4.179   3.759   3.812
17512WAT     H252779   4.060   3.672   3.881
17513WAT      O52780   5.188   6.115   6.419
17513WAT     H152781   5.178   6.024   6.380
17513WAT     H252782   5.248   6.110   6.499
17514WAT      O52783   9.836   0.824   4.950
17514WAT     H152784   9.845   0.910   4.900
17514WAT     H252785   9.792   0.840   5.038
17515WAT      O52786   0.390   8.847   1.140
17515WAT     H152787   0.363   8.898   1.222
17515WAT     H252788   0.308   8.813   1.093
17516WAT      O52789   7.566   2.194   3.669
17516WAT     H152790   7.507   2.266   3.631
17516WAT     H252791   7.512   2.111   3.682
17517WAT      O52792   7.017   8.740   6.935
17517WAT     H152793   7.061   8.704   7.017
17517WAT     H252794   7.064   8.704   6.854
17518WAT      O52795   8.438   3.619   3.126
17518WAT     H152796   8.418   3.524   3.148
17518WAT     H252797   8.494   3.623   3.043
17519WAT      O52798   9.809   6.944   7.360
17519WAT     H152799   9.858   7.029   7.376
17519WAT     H252800   9.858   6.869   7.405
17520WAT      O52801   4.269   4.706   6.505
17520WAT     H152802   4.334   4.631   6.516
17520WAT     H252803   4.198   4.679   6.440
17521WAT      O52804   6.289   7.126   5.324
17521WAT     H152805   6.241   7.047   5.287
17521WAT     H252806   6.372   7.142   5.272
17522WAT      O52807   5.976   4.076   8.415
17522WAT     H152808   6.016   4.069   8.323
17522WAT     H252809   5.919   4.158   8.420
17523WAT      O52810   6.527   2.668   3.371
17523WAT     H152811   6.490   2.607   3.441
17523WAT     H252812   6.470   2.750   3.364
17524WAT      O52813   9.299   9.551   4.950
17524WAT     H152814   9.345   9.615   4.889
17524WAT     H252815   9.360   9.474   4.970
17525WAT      O52816   5.413   2.474   7.652
17525WAT     H152817   5.435   2.379   7.629
17525WAT     H252818   5.465   2.501   7.733
17526WAT      O52819   6.164   2.854   1.363
17526WAT     H152820   6.183   2.924   1.432
17526WAT     H252821   6.241   2.791   1.357
17527WAT      O52822   9.071   0.485   4.522
17527WAT     H152823   9.028   0.564   4.478
17527WAT     H252824   9.020   0.462   4.604
17528WAT      O52825   9.721   0.059   1.938
17528WAT     H152826   9.695   0.128   2.004
17528WAT     H252827   9.640   0.024   1.891
17529WAT      O52828   7.399   7.785   7.790
17529WAT     H152829   7.415   7.686   7.796
17529WAT     H252830   7.443   7.830   7.867
17530WAT      O52831   1.578   2.471   9.265
17530WAT     H152832   1.577   2.568   9.244
17530WAT     H252833   1.604   2.419   9.183
17531WAT      O52834   7.144   0.461   1.169
17531WAT     H152835   7.183   0.545   1.207
17531WAT     H252836   7.192   0.438   1.084
17532WAT      O52837   0.938   7.098   0.222
17532WAT     H152838   0.991   7.155   0.285
17532WAT     H252839   0.855   7.066   0.269
17533WAT      O52840   5.779   2.499   4.573
17533WAT     H152841   5.822   2.581   4.611
17533WAT     H252842   5.850   2.433   4.550
17534WAT      O52843   6.108   6.137   8.441
17534WAT     H152844   6.178   6.155   8.510
17534WAT     H252845   6.031   6.199   8.454
17535WAT      O52846   8.888   9.101   5.917
17535WAT     H152847   8.792   9.121   5.934
17535WAT     H252848   8.919   9.151   5.836
17536WAT      O52849   2.094   1.891   2.765
17536WAT     H152850   2.055   1.931   2.848
17536WAT     H252851   2.063   1.942   2.685
17537WAT      O52852   3.661   9.660   7.750
17537WAT     H152853   3.734   9.689   7.813
17537WAT     H252854   3.615   9.579   7.787
17538WAT      O52855   6.303   3.974   0.730
17538WAT     H152856   6.398   3.948   0.712
17538WAT     H252857   6.283   4.061   0.686
17539WAT      O52858   5.565   8.227   4.150
17539WAT     H152859   5.549   8.190   4.059
17539WAT     H252860   5.511   8.310   4.162
17540WAT      O52861   3.886   2.295   1.575
17540WAT     H152862   3.953   2.366   1.553
17540WAT     H252863   3.919   2.241   1.652
17541WAT      O52864   5.441   0.230   0.400
17541WAT     H152865   5.414   0.183   0.485
17541WAT     H252866   5.537   0.210   0.380
17542WAT      O52867   6.438   6.749   8.353
17542WAT     H152868   6.354   6.715   8.309
17542WAT     H252869   6.516   6.733   8.292
17543WAT      O52870   3.092   9.393   4.179
17543WAT     H152871   3.163   9.370   4.246
17543WAT     H252872   3.084   9.320   4.112
17544WAT      O52873   9.135   6.383   8.067
17544WAT     H152874   9.192   6.441   8.010
17544WAT     H252875   9.097   6.308   8.013
17545WAT      O52876   3.494   2.531   4.007
17545WAT     H152877   3.473   2.434   3.999
17545WAT     H252878   3.430   2.573   4.072
17546WAT      O52879   4.940   2.726   5.301
17546WAT     H152880   4.970   2.680   5.385
17546WAT     H252881   4.847   2.698   5.279
17547WAT      O52882   6.460   5.358   6.776
17547WAT     H152883   6.395   5.282   6.773
17547WAT     H252884   6.531   5.337   6.844
17548WAT      O52885   3.491   9.690   9.779
17548WAT     H152886   3.400   9.649   9.775
17548WAT     H252887   3.527   9.700   9.686
17549WAT      O52888   1.594   8.004   8.209
17549WAT     H152889   1.626   7.932   8.146
17549WAT     H252890   1.661   8.078   8.210
17550WAT      O52891   9.701   5.569   8.032
17550WAT     H152892   9.604   5.547   8.043
17550WAT     H252893   9.726   5.640   8.097
17551WAT      O52894   6.564   3.108   6.607
17551WAT     H152895   6.513   3.183   6.564
17551WAT     H252896   6.656   3.103   6.567
17552WAT      O52897   3.030   5.381   9.564
17552WAT     H152898   2.977   5.465   9.552
17552WAT     H252899   2.993   5.329   9.641
17553WAT      O52900   3.505   0.209   1.246
17553WAT     H152901   3.595   0.173   1.272
17553WAT     H252902   3.508   0.237   1.149
17554WAT      O52903   1.341   0.387   1.831
17554WAT     H152904   1.440   0.395   1.845
17554WAT     H252905   1.298   0.357   1.916
17555WAT      O52906   0.455   3.240   0.532
17555WAT     H152907   0.526   3.181   0.494
17555WAT     H252908   0.370   3.188   0.541
17556WAT      O52909   3.771   4.703   0.679
17556WAT     H152910   3.797   4.799   0.670
17556WAT     H252911   3.724   4.690   0.766
17557WAT      O52912   8.909   5.825   4.182
17557WAT     H152913   8.988   5.872   4.143
17557WAT     H252914   8.931   5.728   4.195
17558WAT      O52915   9.419   8.777   4.909
17558WAT     H152916   9.491   8.713   4.933
17558WAT     H252917   9.459   8.863   4.879
17559WAT      O52918   4.216   9.823   9.597
17559WAT     H152919   4.161   9.770   9.532
17559WAT     H252920   4.188   9.801   9.690
17560WAT      O52921   4.681   8.892   4.768
17560WAT     H152922   4.670   8.985   4.735
17560WAT     H252923   4.762   8.886   4.826
17561WAT      O52924   7.132   3.676   4.118
17561WAT     H152925   7.212   3.618   4.101
17561WAT     H252926   7.084   3.694   4.032
17562WAT      O52927   3.746   5.380   4.000
17562WAT     H152928   3.701   5.462   4.035
17562WAT     H252929   3.777   5.324   4.077
17563WAT      O52930   0.038   4.840   3.458
17563WAT     H152931   0.047   4.784   3.541
17563WAT     H252932   0.106   4.811   3.391
17564WAT      O52933   4.235   9.386   2.666
17564WAT     H152934   4.256   9.449   2.741
17564WAT     H252935   4.303   9.313   2.664
17565WAT      O52936   9.507   6.688   6.137
17565WAT     H152937   9.594   6.726   6.105
17565WAT     H252938   9.515   6.666   6.235
17566WAT      O52939   7.374   9.575   4.651
17566WAT     H152940   7.371   9.591   4.750
17566WAT     H252941   7.440   9.638   4.610
17567WAT      O52942   5.396   3.278   8.868
17567WAT     H152943   5.475   3.279   8.929
17567WAT     H252944   5.383   3.186   8.831
17568WAT      O52945   1.780   6.879   6.882
17568WAT     H152946   1.715   6.882   6.806
17568WAT     H252947   1.871   6.904   6.848
17569WAT      O52948   2.542   1.306   2.283
17569WAT     H152949   2.512   1.346   2.196
17569WAT     H252950   2.483   1.229   2.306
17570WAT      O52951   0.825   6.125   4.156
17570WAT     H152952   0.879   6.164   4.230
17570WAT     H252953   0.870   6.142   4.068
17571WAT      O52954   6.376   7.496   6.383
17571WAT     H152955   6.329   7.575   6.344
17571WAT     H252956   6.430   7.451   6.312
17572WAT      O52957   0.326   2.760   2.720
17572WAT     H152958   0.361   2.847   2.758
17572WAT     H252959   0.244   2.733   2.770
17573WAT      O52960   3.272   9.836   6.826
17573WAT     H152961   3.217   9.809   6.747
17573WAT     H252962   3.270   9.764   6.894
17574WAT      O52963   5.814   5.446   0.215
17574WAT     H152964   5.755   5.513   0.260
17574WAT     H252965   5.761   5.365   0.191
17575WAT      O52966   5.678   5.633   0.356
17575WAT     H152967   5.667   5.732   0.369
17575WAT     H252968   5.731   5.596   0.432
17576WAT      O52969   2.814   4.066   5.462
17576WAT     H152970   2.792   3.974   5.427
17576WAT     H252971   2.791   4.070   5.560
17577WAT      O52972   6.627   6.860   3.096
17577WAT     H152973   6.594   6.932   3.157
17577WAT     H252974   6.664   6.900   3.013
17578WAT      O52975   0.267   3.241   7.570
17578WAT     H152976   0.240   3.204   7.659
17578WAT     H252977   0.199   3.216   7.502
17579WAT      O52978   9.630   7.854   6.320
17579WAT     H152979   9.582   7.936   6.350
17579WAT     H252980   9.729   7.867   6.329
17580WAT      O52981   1.613   8.220   2.000
17580WAT     H152982   1.551   8.283   2.048
17580WAT     H252983   1.573   8.128   1.999
17581WAT      O52984   3.854   3.172   5.476
17581WAT     H152985   3.923   3.166   5.549
17581WAT     H252986   3.764   3.187   5.517
17582WAT      O52987   2.367   8.811   2.621
17582WAT     H152988   2.430   8.753   2.674
17582WAT     H252989   2.401   8.905   2.619
17583WAT      O52990   6.318   9.584   7.375
17583WAT     H152991   6.370   9.500   7.389
17583WAT     H252992   6.336   9.619   7.283
17584WAT      O52993   7.843   0.114   1.381
17584WAT     H152994   7.784   0.079   1.453
17584WAT     H252995   7.830   0.213   1.372
17585WAT      O52996   8.859   0.755   5.585
17585WAT     H152997   8.801   0.705   5.520
17585WAT     H252998   8.941   0.701   5.604
17586WAT      O52999   5.416   2.344   1.262
17586WAT     H153000   5.365   2.399   1.328
17586WAT     H253001   5.396   2.247   1.277
17587WAT      O53002   0.357   7.479   2.302
17587WAT     H153003   0.316   7.456   2.214
17587WAT     H253004   0.402   7.569   2.295
17588WAT      O53005   1.135   3.687   7.531
17588WAT     H153006   1.216   3.666   7.478
17588WAT     H253007   1.064   3.725   7.470
17589WAT      O53008   3.078   6.541   1.521
17589WAT     H153009   2.981   6.561   1.538
17589WAT     H253010   3.089   6.443   1.505
17590WAT      O53011   0.714   8.277   8.584
17590WAT     H153012   0.660   8.332   8.648
17590WAT     H253013   0.729   8.186   8.623
17591WAT      O53014   0.411   2.402   3.352
17591WAT     H153015   0.472   2.361   3.420
17591WAT     H253016   0.329   2.346   3.342
17592WAT      O53017   5.566   0.195   6.572
17592WAT     H153018   5.517   0.264   6.519
17592WAT     H253019   5.515   0.174   6.655
17593WAT      O53020   7.938   8.719   0.472
17593WAT     H153021   7.917   8.691   0.379
17593WAT     H253022   7.986   8.807   0.470
17594WAT      O53023   1.480   1.566   5.237
17594WAT     H153024   1.489   1.640   5.303
17594WAT     H253025   1.502   1.599   5.145
17595WAT      O53026   7.186   9.469   8.007
17595WAT     H153027   7.135   9.534   8.064
17595WAT     H253028   7.273   9.448   8.052
17596WAT      O53029   8.795   8.164   3.784
17596WAT     H153030   8.849   8.228   3.840
17596WAT     H253031   8.844   8.144   3.699
17597WAT      O53032   9.375   6.355   2.142
17597WAT     H153033   9.390   6.353   2.241
17597WAT     H253034   9.433   6.287   2.097
17598WAT      O53035   1.516   8.471   2.134
17598WAT     H153036   1.441   8.537   2.128
17598WAT     H253037   1.550   8.468   2.228
17599WAT      O53038   2.414   9.085   2.605
17599WAT     H153039   2.348   9.138   2.658
17599WAT     H253040   2.507   9.114   2.629
17600WAT      O53041   9.715   2.921   6.985
17600WAT     H153042   9.688   2.910   7.081
17600WAT     H253043   9.658   2.862   6.928
17601WAT      O53044   1.593   9.204   0.007
17601WAT     H153045   1.673   9.254  -0.026
17601WAT     H253046   1.551   9.254   0.083
17602WAT      O53047   3.145   5.074   4.950
17602WAT     H153048   3.182   5.153   4.901
17602WAT     H253049   3.078   5.105   5.017
17603WAT      O53050   2.095   3.530   4.548
17603WAT     H153051   2.027   3.600   4.568
17603WAT     H253052   2.153   3.516   4.629
17604WAT      O53053   5.533   0.610   7.218
17604WAT     H153054   5.573   0.673   7.151
17604WAT     H253055   5.573   0.520   7.207
17605WAT      O53056   1.828   3.624   9.686
17605WAT     H153057   1.838   3.705   9.743
17605WAT     H253058   1.904   3.619   9.621
17606WAT      O53059   2.934   9.566   7.795
17606WAT     H153060   2.867   9.502   7.833
17606WAT     H253061   2.911   9.585   7.699
17607WAT      O53062   2.284   6.445   6.092
17607WAT     H153063   2.367   6.499   6.080
17607WAT     H253064   2.291   6.362   6.035
17608WAT      O53065   3.567   8.387   1.195
17608WAT     H153066   3.595   8.400   1.290
17608WAT     H253067   3.483   8.333   1.191
17609WAT      O53068   7.957   1.533   8.731
17609WAT     H153069   7.964   1.434   8.740
17609WAT     H253070   7.927   1.556   8.638
17610WAT      O53071   3.810   7.727   5.649
17610WAT     H153072   3.772   7.818   5.662
17610WAT     H253073   3.881   7.730   5.579
17611WAT      O53074   8.084   4.722   1.953
17611WAT     H153075   8.130   4.772   2.026
17611WAT     H253076   8.021   4.655   1.992
17612WAT      O53077   5.219   9.117   2.764
17612WAT     H153078   5.201   9.019   2.773
17612WAT     H253079   5.173   9.166   2.838
17613WAT      O53080   7.226   0.943   2.453
17613WAT     H153081   7.287   0.865   2.437
17613WAT     H253082   7.194   0.941   2.547
17614WAT      O53083   9.334   1.700   2.996
17614WAT     H153084   9.392   1.698   3.077
17614WAT     H253085   9.389   1.684   2.914
17615WAT      O53086   3.262   4.136   7.749
17615WAT     H153087   3.171   4.178   7.748
17615WAT     H253088   3.272   4.076   7.670
17616WAT      O53089   8.934   6.960   4.472
17616WAT     H153090   8.840   6.943   4.502
17616WAT     H253091   8.984   6.873   4.469
17617WAT      O53092   6.367   1.485   0.852
17617WAT     H153093   6.359   1.508   0.949
17617WAT     H253094   6.431   1.410   0.841
17618WAT      O53095   7.435   1.963   4.783
17618WAT     H153096   7.495   1.926   4.712
17618WAT     H253097   7.344   1.921   4.775
17619WAT      O53098   3.498   9.304   8.466
17619WAT     H153099   3.555   9.328   8.388
17619WAT     H253100   3.512   9.371   8.539
17620WAT      O53101   4.662   4.583   0.810
17620WAT     H153102   4.761   4.597   0.818
17620WAT     H253103   4.615   4.646   0.871
17621WAT      O53104   9.655   2.444   5.979
17621WAT     H153105   9.745   2.479   6.006
17621WAT     H253106   9.647   2.448   5.880
17622WAT      O53107   0.081   6.426   2.572
17622WAT     H153108   0.140   6.501   2.602
17622WAT     H253109   0.122   6.338   2.597
17623WAT      O53110   2.120   3.327   3.204
17623WAT     H153111   2.070   3.411   3.185
17623WAT     H253112   2.073   3.250   3.161
17624WAT      O53113   2.568   8.860   5.689
17624WAT     H153114   2.618   8.842   5.774
17624WAT     H253115   2.470   8.858   5.707
17625WAT      O53116   8.040   9.744   5.621
17625WAT     H153117   8.002   9.760   5.530
17625WAT     H253118   8.117   9.681   5.614
17626WAT      O53119   9.420   2.255   6.341
17626WAT     H153120   9.491   2.290   6.403
17626WAT     H253121   9.390   2.165   6.373
17627WAT      O53122   8.576   7.348   3.804
17627WAT     H153123   8.622   7.260   3.816
17627WAT     H253124   8.488   7.347   3.852
17628WAT      O53125   5.626   5.203   5.025
17628WAT     H153126   5.552   5.260   4.989
17628WAT     H253127   5.649   5.232   5.117
17629WAT      O53128   0.769   0.282   5.178
17629WAT     H153129   0.792   0.354   5.243
17629WAT     H253130   0.753   0.323   5.088
17630WAT      O53131   7.338   8.500   9.300
17630WAT     H153132   7.347   8.432   9.227
17630WAT     H253133   7.424   8.550   9.310
17631WAT      O53134   3.541   9.265   2.696
17631WAT     H153135   3.604   9.199   2.735
17631WAT     H253136   3.528   9.247   2.599
17632WAT      O53137   9.734   3.744   8.689
17632WAT     H153138   9.724   3.684   8.768
17632WAT     H253139   9.825   3.785   8.689
17633WAT      O53140   5.223   7.967   0.173
17633WAT     H153141   5.159   7.895   0.148
17633WAT     H253142   5.174   8.052   0.191
17634WAT      O53143   2.800   8.646   2.324
17634WAT     H153144   2.850   8.714   2.377
17634WAT     H253145   2.835   8.644   2.230
17635WAT      O53146   4.563   2.865   2.048
17635WAT     H153147   4.496   2.830   2.113
17635WAT     H253148   4.585   2.795   1.981
17636WAT      O53149   6.832   3.011   6.101
17636WAT     H153150   6.849   2.914   6.089
17636WAT     H253151   6.901   3.064   6.052
17637WAT      O53152   1.740   5.613   8.279
17637WAT     H153153   1.745   5.614   8.379
17637WAT     H253154   1.662   5.668   8.249
17638WAT      O53155   7.027   2.646   4.974
17638WAT     H153156   6.946   2.596   5.005
17638WAT     H253157   7.109   2.606   5.016
17639WAT      O53158   1.373   6.531   5.189
17639WAT     H153159   1.402   6.571   5.102
17639WAT     H253160   1.297   6.585   5.226
17640WAT      O53161   7.563   4.755   9.888
17640WAT     H153162   7.535   4.691   9.817
17640WAT     H253163   7.540   4.717   9.978
17641WAT      O53164   5.867   0.188   4.397
17641WAT     H153165   5.826   0.134   4.323
17641WAT     H253166   5.964   0.204   4.377
17642WAT      O53167   4.498   4.320   2.253
17642WAT     H153168   4.412   4.305   2.301
17642WAT     H253169   4.558   4.378   2.308
17643WAT      O53170   4.619   0.031   5.318
17643WAT     H153171   4.660  -0.013   5.238
17643WAT     H253172   4.682   0.025   5.396
17644WAT      O53173   7.797   8.504   5.137
17644WAT     H153174   7.868   8.571   5.158
17644WAT     H253175   7.744   8.535   5.058
17645WAT      O53176   2.524   1.331   6.726
17645WAT     H153177   2.445   1.280   6.759
17645WAT     H253178   2.543   1.407   6.788
17646WAT      O53179   4.371   4.969   9.427
17646WAT     H153180   4.400   4.969   9.332
17646WAT     H253181   4.312   5.048   9.444
17647WAT      O53182   7.138   0.309   0.441
17647WAT     H153183   7.068   0.251   0.482
17647WAT     H253184   7.095   0.385   0.393
17648WAT      O53185   4.302   5.002   9.781
17648WAT     H153186   4.229   4.985   9.847
17648WAT     H253187   4.271   5.065   9.711
17649WAT      O53188   9.251   5.424   9.234
17649WAT     H153189   9.308   5.477   9.296
17649WAT     H253190   9.155   5.435   9.260
17650WAT      O53191   1.570   5.048   9.117
17650WAT     H153192   1.487   4.999   9.089
17650WAT     H253193   1.593   5.117   9.048
17651WAT      O53194   6.759   2.605   6.771
17651WAT     H153195   6.808   2.659   6.702
17651WAT     H253196   6.792   2.630   6.862
17652WAT      O53197   5.504   5.018   7.314
17652WAT     H153198   5.549   5.084   7.374
17652WAT     H253199   5.483   5.062   7.226
17653WAT      O53200   0.798   2.341   6.190
17653WAT     H153201   0.790   2.438   6.166
17653WAT     H253202   0.870   2.329   6.258
17654WAT      O53203   8.897   8.486   8.755
17654WAT     H153204   8.895   8.463   8.853
17654WAT     H253205   8.989   8.473   8.719
17655WAT      O53206   3.306   7.212   2.136
17655WAT     H153207   3.216   7.179   2.106
17655WAT     H253208   3.306   7.224   2.235
17656WAT      O53209   4.815   1.280   0.372
17656WAT     H153210   4.834   1.318   0.463
17656WAT     H253211   4.720   1.301   0.347
17657WAT      O53212   8.674   1.624   7.070
17657WAT     H153213   8.658   1.713   7.114
17657WAT     H253214   8.707   1.639   6.977
17658WAT      O53215   4.799   8.356   7.398
17658WAT     H153216   4.750   8.269   7.402
17658WAT     H253217   4.737   8.428   7.365
17659WAT      O53218   7.177   8.249   0.984
17659WAT     H153219   7.233   8.170   1.008
17659WAT     H253220   7.222   8.299   0.909
17660WAT      O53221   6.441   4.361   0.454
17660WAT     H153222   6.453   4.417   0.372
17660WAT     H253223   6.493   4.401   0.530
17661WAT      O53224   7.209   0.477   0.866
17661WAT     H153225   7.228   0.521   0.778
17661WAT     H253226   7.243   0.382   0.863
17662WAT      O53227   3.389   8.244   8.942
17662WAT     H153228   3.453   8.320   8.943
17662WAT     H253229   3.301   8.275   8.908
17663WAT      O53230   6.668   6.591   1.534
17663WAT     H153231   6.756   6.609   1.492
17663WAT     H253232   6.666   6.498   1.570
17664WAT      O53233   1.890   9.100   5.149
17664WAT     H153234   1.795   9.107   5.181
17664WAT     H253235   1.891   9.066   5.055
17665WAT      O53236   0.298   8.626   9.756
17665WAT     H153237   0.341   8.537   9.772
17665WAT     H253238   0.360   8.685   9.706
17666WAT      O53239   5.695   7.339   8.124
17666WAT     H153240   5.629   7.410   8.148
17666WAT     H253241   5.657   7.282   8.052
17667WAT      O53242   5.057   8.920   6.560
17667WAT     H153243   5.011   9.004   6.532
17667WAT     H253244   5.017   8.886   6.645
17668WAT      O53245   5.569   2.117   1.109
17668WAT     H153246   5.485   2.128   1.162
17668WAT     H253247   5.548   2.103   1.013
17669WAT      O53248   1.413   4.098   1.190
17669WAT     H153249   1.432   4.000   1.186
17669WAT     H253250   1.482   4.144   1.246
17670WAT      O53251   6.924   3.003   3.395
17670WAT     H153252   7.012   2.997   3.443
17670WAT     H253253   6.933   2.965   3.303
17671WAT      O53254   2.571   5.727   1.491
17671WAT     H153255   2.568   5.633   1.457
17671WAT     H253256   2.541   5.790   1.420
17672WAT      O53257   4.656   2.208   1.234
17672WAT     H153258   4.669   2.111   1.253
17672WAT     H253259   4.596   2.219   1.155
17673WAT      O53260   9.024   9.203   0.047
17673WAT     H153261   8.964   9.271   0.005
17673WAT     H253262   9.050   9.234   0.139
17674WAT      O53263   3.560   4.946   3.685
17674WAT     H153264   3.594   4.852   3.693
17674WAT     H253265   3.539   4.982   3.775
17675WAT      O53266   9.118   1.812   4.306
17675WAT     H153267   9.152   1.772   4.221
17675WAT     H253268   9.175   1.782   4.382
17676WAT      O53269   5.203   4.378   4.603
17676WAT     H153270   5.215   4.435   4.521
17676WAT     H253271   5.241   4.426   4.682
17677WAT      O53272   4.577   2.059   6.607
17677WAT     H153273   4.583   2.158   6.596
17677WAT     H253274   4.596   2.034   6.702
17678WAT      O53275   3.008   1.164   8.793
17678WAT     H153276   2.923   1.202   8.757
17678WAT     H253277   3.011   1.175   8.892
17679WAT      O53278   4.317   1.545   9.154
17679WAT     H153279   4.302   1.451   9.185
17679WAT     H253280   4.321   1.547   9.055
17680WAT      O53281   2.960   0.685   1.028
17680WAT     H153282   2.893   0.664   0.956
17680WAT     H253283   2.933   0.769   1.074
17681WAT      O53284   5.303   9.706   6.618
17681WAT     H153285   5.336   9.759   6.697
17681WAT     H253286   5.362   9.626   6.606
17682WAT      O53287   1.154   9.295   1.841
17682WAT     H153288   1.070   9.343   1.815
17682WAT     H253289   1.225   9.363   1.862
17683WAT      O53290   7.626   6.587   1.366
17683WAT     H153291   7.586   6.563   1.278
17683WAT     H253292   7.694   6.659   1.354
17684WAT      O53293   7.204   2.950   7.004
17684WAT     H153294   7.215   2.987   7.096
17684WAT     H253295   7.143   3.009   6.951
17685WAT      O53296   8.259   5.117   1.460
17685WAT     H153297   8.303   5.121   1.550
17685WAT     H253298   8.168   5.076   1.469
17686WAT      O53299   8.313   2.952   9.596
17686WAT     H153300   8.343   2.972   9.503
17686WAT     H253301   8.217   2.981   9.606
17687WAT      O53302   9.234   4.211   5.650
17687WAT     H153303   9.306   4.238   5.586
17687WAT     H253304   9.156   4.274   5.640
17688WAT      O53305   5.522   3.372   5.139
17688WAT     H153306   5.544   3.334   5.229
17688WAT     H253307   5.423   3.377   5.128
17689WAT      O53308   0.052   0.519   0.961
17689WAT     H153309   0.083   0.527   1.055
17689WAT     H253310   0.045   0.611   0.921
17690WAT      O53311   2.020   3.836   3.181
17690WAT     H153312   2.084   3.875   3.248
17690WAT     H253313   2.050   3.861   3.089
17691WAT      O53314   8.018   5.286   0.067
17691WAT     H153315   8.055   5.284  -0.026
17691WAT     H253316   7.987   5.194   0.092
17692WAT      O53317   7.072   1.586   1.288
17692WAT     H153318   7.006   1.649   1.245
17692WAT     H253319   7.111   1.527   1.218
17693WAT      O53320   6.131   0.045   5.441
17693WAT     H153321   6.192   0.123   5.452
17693WAT     H253322   6.064   0.044   5.516
17694WAT      O53323   0.705   4.190   3.425
17694WAT     H153324   0.699   4.220   3.521
17694WAT     H253325   0.705   4.090   3.421
17695WAT      O53326   3.965   3.194   5.734
17695WAT     H153327   3.967   3.293   5.720
17695WAT     H253328   3.907   3.172   5.813
17696WAT      O53329   4.013   0.214   3.333
17696WAT     H153330   3.935   0.272   3.309
17696WAT     H253331   4.028   0.146   3.261
17697WAT      O53332   2.794   5.247   4.520
17697WAT     H153333   2.873   5.305   4.541
17697WAT     H253334   2.763   5.202   4.604
17698WAT      O53335   2.803   8.663   9.495
17698WAT     H153336   2.794   8.613   9.581
17698WAT     H253337   2.896   8.698   9.486
17699WAT      O53338   1.151   8.816   8.295
17699WAT     H153339   1.235   8.851   8.254
17699WAT     H253340   1.072   8.864   8.257
17700WAT      O53341   8.833   1.699   0.884
17700WAT     H153342   8.853   1.766   0.956
17700WAT     H253343   8.914   1.687   0.826
17701WAT      O53344   5.832   8.050   6.424
17701WAT     H153345   5.930   8.040   6.437
17701WAT     H253346   5.789   8.073   6.512
17702WAT      O53347   0.488   3.260   0.224
17702WAT     H153348   0.537   3.335   0.269
17702WAT     H253349   0.551   3.185   0.205
17703WAT      O53350   2.191   4.677   5.685
17703WAT     H153351   2.224   4.747   5.747
17703WAT     H253352   2.258   4.660   5.613
17704WAT      O53353   7.418   4.049   1.307
17704WAT     H153354   7.451   4.097   1.388
17704WAT     H253355   7.347   3.984   1.333
17705WAT      O53356   3.067   1.040   6.731
17705WAT     H153357   3.115   1.094   6.662
17705WAT     H253358   2.971   1.065   6.732
17706WAT      O53359   0.992   6.602   2.439
17706WAT     H153360   0.979   6.503   2.449
17706WAT     H253361   0.936   6.650   2.506
17707WAT      O53362   8.131   4.959   8.432
17707WAT     H153363   8.184   4.894   8.487
17707WAT     H253364   8.145   5.051   8.467
17708WAT      O53365   4.792   5.611   7.164
17708WAT     H153366   4.696   5.629   7.144
17708WAT     H253367   4.846   5.692   7.141
17709WAT      O53368   4.560   3.124   5.731
17709WAT     H153369   4.506   3.147   5.649
17709WAT     H253370   4.520   3.044   5.775
17710WAT      O53371   9.304   6.940   9.824
17710WAT     H153372   9.392   6.950   9.870
17710WAT     H253373   9.314   6.877   9.747
17711WAT      O53374   4.951   4.714   3.021
17711WAT     H153375   5.022   4.684   3.086
17711WAT     H253376   4.923   4.637   2.964
17712WAT      O53377   8.131   0.460   5.145
17712WAT     H153378   8.077   0.487   5.224
17712WAT     H253379   8.142   0.538   5.084
17713WAT      O53380   8.953   8.207   7.297
17713WAT     H153381   8.992   8.154   7.223
17713WAT     H253382   8.853   8.196   7.297
17714WAT      O53383   4.233   3.362   5.764
17714WAT     H153384   4.271   3.273   5.790
17714WAT     H253385   4.286   3.435   5.808
17715WAT      O53386   4.931   7.418   1.598
17715WAT     H153387   4.945   7.482   1.673
17715WAT     H253388   4.844   7.371   1.610
17716WAT      O53389   2.176   7.723   2.387
17716WAT     H153390   2.183   7.759   2.294
17716WAT     H253391   2.223   7.635   2.392
17717WAT      O53392   6.306   3.619   7.338
17717WAT     H153393   6.224   3.563   7.346
17717WAT     H253394   6.373   3.589   7.405
17718WAT      O53395   5.984   9.527   1.321
17718WAT     H153396   6.068   9.524   1.375
17718WAT     H253397   6.000   9.579   1.238
17719WAT      O53398   3.979   2.453   7.621
17719WAT     H153399   3.996   2.406   7.534
17719WAT     H253400   4.065   2.493   7.654
17720WAT      O53401   9.385   7.826   0.105
17720WAT     H153402   9.428   7.758   0.046
17720WAT     H253403   9.400   7.801   0.201
17721WAT      O53404   9.072   1.252   0.432
17721WAT     H153405   9.116   1.282   0.516
17721WAT     H253406   9.009   1.322   0.400
17722WAT      O53407   0.559   0.310   0.751
17722WAT     H153408   0.495   0.283   0.678
17722WAT     H253409   0.539   0.403   0.780
17723WAT      O53410   4.253   2.375   0.104
17723WAT     H153411   4.211   2.465   0.088
17723WAT     H253412   4.307   2.350   0.024
17724WAT      O53413   8.749   2.404   6.929
17724WAT     H153414   8.653   2.401   6.902
17724WAT     H253415   8.796   2.323   6.894
17725WAT      O53416   3.177   2.666   7.065
17725WAT     H153417   3.241   2.602   7.022
17725WAT     H253418   3.180   2.655   7.164
17726WAT      O53419   6.630   1.057   9.365
17726WAT     H153420   6.664   1.021   9.279
17726WAT     H253421   6.536   1.089   9.354
17727WAT      O53422   6.182   4.909   5.813
17727WAT     H153423   6.209   4.948   5.725
17727WAT     H253424   6.252   4.929   5.881
17728WAT      O53425   1.078   9.660   8.658
17728WAT     H153426   1.124   9.749   8.661
17728WAT     H253427   1.146   9.587   8.660
17729WAT      O53428   7.502   5.708   4.048
17729WAT     H153429   7.513   5.765   4.129
17729WAT     H253430   7.473   5.766   3.971
17730WAT      O53431   9.766   6.640   6.890
17730WAT     H153432   9.856   6.605   6.914
17730WAT     H253433   9.714   6.658   6.973
17731WAT      O53434   3.288   1.711   8.016
17731WAT     H153435   3.261   1.682   7.925
17731WAT     H253436   3.216   1.769   8.055
17732WAT      O53437   4.684   0.837   9.181
17732WAT     H153438   4.665   0.865   9.275
17732WAT     H253439   4.714   0.742   9.180
17733WAT      O53440   5.137   6.992   9.284
17733WAT     H153441   5.096   7.082   9.271
17733WAT     H253442   5.164   6.955   9.196
17734WAT      O53443   6.077   2.607   0.666
17734WAT     H153444   6.099   2.612   0.569
17734WAT     H253445   6.076   2.700   0.704
17735WAT      O53446   5.135   2.937   7.126
17735WAT     H153447   5.175   3.020   7.087
17735WAT     H253448   5.038   2.953   7.146
17736WAT      O53449   7.175   0.894   9.465
17736WAT     H153450   7.105   0.960   9.439
17736WAT     H253451   7.238   0.936   9.530
17737WAT      O53452   2.193   0.334   0.460
17737WAT     H153453   2.171   0.410   0.522
17737WAT     H253454   2.149   0.350   0.371
17738WAT      O53455   0.614   8.961   8.369
17738WAT     H153456   0.596   9.052   8.331
17738WAT     H253457   0.668   8.969   8.453
17739WAT      O53458   4.945   4.798   9.163
17739WAT     H153459   4.873   4.800   9.232
17739WAT     H253460   5.034   4.807   9.208
17740WAT      O53461   6.094   4.400   7.635
17740WAT     H153462   6.034   4.333   7.680
17740WAT     H253463   6.124   4.365   7.546
17741WAT      O53464   2.076   8.848   2.540
17741WAT     H153465   2.007   8.806   2.600
17741WAT     H253466   2.166   8.838   2.582
17742WAT      O53467   6.456   4.982   1.332
17742WAT     H153468   6.424   4.963   1.424
17742WAT     H253469   6.379   4.979   1.268
17743WAT      O53470   7.124   7.112   8.020
17743WAT     H153471   7.180   7.066   7.950
17743WAT     H253472   7.033   7.131   7.983
17744WAT      O53473   7.856   7.089   8.024
17744WAT     H153474   7.944   7.040   8.028
17744WAT     H253475   7.848   7.149   8.104
17745WAT      O53476   7.603   7.471   3.291
17745WAT     H153477   7.699   7.443   3.293
17745WAT     H253478   7.587   7.528   3.210
17746WAT      O53479   7.870   7.005   6.695
17746WAT     H153480   7.875   7.074   6.622
17746WAT     H253481   7.960   6.965   6.709
17747WAT      O53482   6.115   1.640   9.461
17747WAT     H153483   6.079   1.573   9.525
17747WAT     H253484   6.202   1.607   9.423
17748WAT      O53485   1.994   5.945   2.772
17748WAT     H153486   1.954   6.035   2.759
17748WAT     H253487   2.065   5.949   2.842
17749WAT      O53488   8.410   0.659   3.876
17749WAT     H153489   8.499   0.619   3.896
17749WAT     H253490   8.423   0.751   3.840
17750WAT      O53491   3.761   2.228   1.946
17750WAT     H153492   3.778   2.271   2.035
17750WAT     H253493   3.790   2.291   1.874
17751WAT      O53494   8.660   0.891   5.202
17751WAT     H153495   8.596   0.920   5.274
17751WAT     H253496   8.749   0.933   5.218
17752WAT      O53497   7.025   3.549   9.519
17752WAT     H153498   6.967   3.529   9.598
17752WAT     H253499   7.099   3.482   9.515
17753WAT      O53500   2.785   6.660   3.225
17753WAT     H153501   2.734   6.577   3.201
17753WAT     H253502   2.745   6.701   3.308
17754WAT      O53503   7.933   6.653   8.137
17754WAT     H153504   7.916   6.727   8.071
17754WAT     H253505   7.982   6.579   8.093
17755WAT      O53506   3.761   2.475   1.021
17755WAT     H153507   3.831   2.545   1.039
17755WAT     H253508   3.704   2.463   1.102
17756WAT      O53509   8.165   6.527   4.928
17756WAT     H153510   8.234   6.514   4.856
17756WAT     H253511   8.092   6.586   4.894
17757WAT      O53512   0.103   5.459   7.413
17757WAT     H153513   0.044   5.485   7.489
17757WAT     H253514   0.196   5.492   7.430
17758WAT      O53515   5.218   3.608   7.793
17758WAT     H153516   5.209   3.707   7.778
17758WAT     H253517   5.177   3.584   7.881
17759WAT      O53518   4.959   5.735   6.858
17759WAT     H153519   5.003   5.645   6.853
17759WAT     H253520   4.973   5.774   6.948
17760WAT      O53521   0.353   8.813   4.270
17760WAT     H153522   0.410   8.888   4.306
17760WAT     H253523   0.362   8.733   4.330
17761WAT      O53524   3.700   5.039   4.475
17761WAT     H153525   3.672   5.014   4.567
17761WAT     H253526   3.704   4.956   4.418
17762WAT      O53527   8.230   9.184   8.239
17762WAT     H153528   8.303   9.171   8.172
17762WAT     H253529   8.205   9.280   8.243
17763WAT      O53530   9.722   7.202   6.800
17763WAT     H153531   9.647   7.246   6.751
17763WAT     H253532   9.806   7.256   6.787
17764WAT      O53533   3.982   5.336   6.458
17764WAT     H153534   3.965   5.405   6.387
17764WAT     H253535   3.906   5.336   6.523
17765WAT      O53536   9.334   9.537   7.207
17765WAT     H153537   9.425   9.558   7.244
17765WAT     H253538   9.312   9.601   7.134
17766WAT      O53539   3.179   3.975   9.602
17766WAT     H153540   3.238   3.977   9.521
17766WAT     H253541   3.149   3.882   9.619
17767WAT      O53542   8.677   8.123   8.778
17767WAT     H153543   8.595   8.180   8.768
17767WAT     H253544   8.752   8.163   8.726
17768WAT      O53545   6.095   3.104   3.012
17768WAT     H153546   6.112   3.039   3.086
17768WAT     H253547   6.081   3.054   2.927
17769WAT      O53548   1.283   5.112   1.770
17769WAT     H153549   1.223   5.172   1.822
17769WAT     H253550   1.324   5.045   1.831
17770WAT      O53551   1.114   0.922   3.261
17770WAT     H153552   1.095   0.859   3.186
17770WAT     H253553   1.132   1.014   3.224
17771WAT      O53554   8.934   8.276   2.434
17771WAT     H153555   9.029   8.279   2.405
17771WAT     H253556   8.888   8.198   2.391
17772WAT      O53557   7.918   4.840   4.821
17772WAT     H153558   7.934   4.836   4.919
17772WAT     H253559   7.994   4.795   4.773
17773WAT      O53560   1.016   5.126   3.166
17773WAT     H153561   0.977   5.173   3.087
17773WAT     H253562   1.042   5.033   3.139
17774WAT      O53563   1.477   0.304   2.178
17774WAT     H153564   1.572   0.306   2.146
17774WAT     H253565   1.473   0.332   2.274
17775WAT      O53566   1.878   5.144   6.447
17775WAT     H153567   1.806   5.132   6.515
17775WAT     H253568   1.933   5.060   6.443
17776WAT      O53569   7.397   2.961   3.909
17776WAT     H153570   7.378   3.058   3.896
17776WAT     H253571   7.329   2.907   3.859
17777WAT      O53572   1.503   8.400   1.796
17777WAT     H153573   1.531   8.346   1.716
17777WAT     H253574   1.537   8.356   1.879
17778WAT      O53575   0.593   1.860   3.894
17778WAT     H153576   0.518   1.806   3.932
17778WAT     H253577   0.575   1.878   3.797
17779WAT      O53578   8.690   3.452   1.629
17779WAT     H153579   8.761   3.394   1.669
17779WAT     H253580   8.608   3.398   1.613
17780WAT      O53581   2.843   1.108   2.472
17780WAT     H153582   2.936   1.145   2.467
17780WAT     H253583   2.791   1.159   2.541
17781WAT      O53584   0.796   3.051   0.184
17781WAT     H153585   0.861   3.117   0.146
17781WAT     H253586   0.722   3.036   0.118
17782WAT      O53587   9.819   6.841   3.515
17782WAT     H153588   9.818   6.743   3.536
17782WAT     H253589   9.726   6.872   3.497
17783WAT      O53590   8.105   3.444   5.823
17783WAT     H153591   8.143   3.357   5.854
17783WAT     H253592   8.132   3.517   5.885
17784WAT      O53593   6.194   9.405   6.265
17784WAT     H153594   6.165   9.401   6.360
17784WAT     H253595   6.168   9.494   6.226
17785WAT      O53596   9.577   2.648   5.485
17785WAT     H153597   9.507   2.616   5.422
17785WAT     H253598   9.563   2.745   5.504
17786WAT      O53599   1.746   7.747   7.176
17786WAT     H153600   1.667   7.703   7.133
17786WAT     H253601   1.819   7.680   7.187
17787WAT      O53602   3.973   3.413   5.997
17787WAT     H153603   3.893   3.421   6.056
17787WAT     H253604   4.056   3.407   6.053
17788WAT      O53605   0.531   4.044   4.967
17788WAT     H153606   0.534   3.979   5.043
17788WAT     H253607   0.506   3.997   4.883
17789WAT      O53608   7.968   7.211   8.500
17789WAT     H153609   7.923   7.250   8.581
17789WAT     H253610   7.928   7.252   8.417
17790WAT      O53611   8.521   5.287   8.968
17790WAT     H153612   8.463   5.282   9.049
17790WAT     H253613   8.522   5.380   8.933
17791WAT      O53614   7.812   2.822   2.293
17791WAT     H153615   7.802   2.794   2.389
17791WAT     H253616   7.900   2.866   2.280
17792WAT      O53617   5.725   0.115   8.745
17792WAT     H153618   5.635   0.072   8.737
17792WAT     H253619   5.715   0.203   8.792
17793WAT      O53620   0.642   4.328   6.014
17793WAT     H153621   0.581   4.249   6.005
17793WAT     H253622   0.606   4.404   5.959
17794WAT      O53623   3.943   2.816   7.481
17794WAT     H153624   3.853   2.806   7.439
17794WAT     H253625   4.013   2.813   7.410
17795WAT      O53626   9.573   1.780   0.230
17795WAT     H153627   9.655   1.837   0.221
17795WAT     H253628   9.554   1.735   0.143
17796WAT      O53629   3.641   9.635   7.086
17796WAT     H153630   3.694   9.562   7.127
17796WAT     H253631   3.580   9.675   7.155
17797WAT      O53632   5.173   7.719   5.768
17797WAT     H153633   5.252   7.680   5.721
17797WAT     H253634   5.134   7.651   5.830
17798WAT      O53635   1.716   1.015   2.827
17798WAT     H153636   1.648   1.006   2.755
17798WAT     H253637   1.687   0.965   2.909
17799WAT      O53638   0.482   0.308   8.371
17799WAT     H153639   0.504   0.227   8.425
17799WAT     H253640   0.559   0.330   8.311
17800WAT      O53641   6.581   9.117   2.225
17800WAT     H153642   6.575   9.192   2.291
17800WAT     H253643   6.625   9.038   2.268
17801WAT      O53644   0.860   8.641   8.326
17801WAT     H153645   0.767   8.659   8.295
17801WAT     H253646   0.923   8.704   8.280
17802WAT      O53647   0.997   3.912   5.444
17802WAT     H153648   0.967   3.999   5.482
17802WAT     H253649   0.992   3.841   5.515
17803WAT      O53650   9.522   1.016   3.748
17803WAT     H153651   9.446   1.080   3.730
17803WAT     H253652   9.573   1.002   3.663
17804WAT      O53653   3.636   7.476   5.666
17804WAT     H153654   3.713   7.419   5.696
17804WAT     H253655   3.653   7.571   5.690
17805WAT      O53656   2.609   6.378   8.446
17805WAT     H153657   2.527   6.436   8.453
17805WAT     H253658   2.581   6.283   8.433
17806WAT      O53659   0.214   0.496   3.854
17806WAT     H153660   0.178   0.483   3.761
17806WAT     H253661   0.228   0.594   3.871
17807WAT      O53662   5.197   8.010   1.397
17807WAT     H153663   5.221   8.064   1.478
17807WAT     H253664   5.106   7.972   1.409
17808WAT      O53665   4.438   7.409   3.050
17808WAT     H153666   4.531   7.411   3.014
17808WAT     H253667   4.393   7.324   3.023
17809WAT      O53668   8.187   7.217   9.708
17809WAT     H153669   8.168   7.221   9.610
17809WAT     H253670   8.136   7.141   9.748
17810WAT      O53671   1.475   7.547   4.798
17810WAT     H153672   1.461   7.452   4.825
17810WAT     H253673   1.544   7.551   4.726
17811WAT      O53674   7.422   1.712   0.710
17811WAT     H153675   7.522   1.715   0.714
17811WAT     H253676   7.385   1.710   0.803
17812WAT      O53677   9.700   0.303   0.450
17812WAT     H153678   9.717   0.223   0.392
17812WAT     H253679   9.777   0.314   0.513
17813WAT      O53680   0.770   9.049   3.492
17813WAT     H153681   0.699   9.116   3.469
17813WAT     H253682   0.812   9.016   3.408
17814WAT      O53683   3.332   5.256   8.646
17814WAT     H153684   3.409   5.200   8.616
17814WAT     H253685   3.337   5.269   8.745
17815WAT      O53686   5.180   8.446   4.817
17815WAT     H153687   5.255   8.512   4.824
17815WAT     H253688   5.093   8.495   4.809
17816WAT      O53689   4.528   6.247   8.992
17816WAT     H153690   4.572   6.270   9.079
17816WAT     H253691   4.482   6.159   9.001
17817WAT      O53692   8.705   7.139   8.239
17817WAT     H153693   8.797   7.158   8.206
17817WAT     H253694   8.657   7.225   8.254
17818WAT      O53695   2.340   6.659   7.271
17818WAT     H153696   2.279   6.717   7.325
17818WAT     H253697   2.430   6.701   7.267
17819WAT      O53698   0.038   8.428   9.445
17819WAT     H153699  -0.010   8.448   9.359
17819WAT     H253700   0.017   8.499   9.512
17820WAT      O53701   6.495   5.549   7.064
17820WAT     H153702   6.478   5.480   7.135
17820WAT     H253703   6.570   5.518   7.005
17821WAT      O53704   5.855   0.179   6.526
17821WAT     H153705   5.767   0.194   6.571
17821WAT     H253706   5.904   0.265   6.519
17822WAT      O53707   2.010   6.337   7.271
17822WAT     H153708   1.984   6.399   7.345
17822WAT     H253709   2.108   6.346   7.253
17823WAT      O53710   6.793   3.966   9.830
17823WAT     H153711   6.714   3.912   9.801
17823WAT     H253712   6.784   4.059   9.794
17824WAT      O53713   6.257   3.957   0.292
17824WAT     H153714   6.329   4.022   0.318
17824WAT     H253715   6.298   3.869   0.267
17825WAT      O53716   9.807   1.374   5.944
17825WAT     H153717   9.837   1.467   5.924
17825WAT     H253718   9.802   1.321   5.859
17826WAT      O53719   9.752   7.491   9.155
17826WAT     H153720   9.736   7.417   9.089
17826WAT     H253721   9.850   7.511   9.158
17827WAT      O53722   4.382   7.769   9.138
17827WAT     H153723   4.313   7.824   9.185
17827WAT     H253724   4.468   7.773   9.189
17828WAT      O53725   1.526   1.647   4.970
17828WAT     H153726   1.512   1.554   4.935
17828WAT     H253727   1.593   1.694   4.912
17829WAT      O53728   4.613   3.028   0.392
17829WAT     H153729   4.700   3.074   0.373
17829WAT     H253730   4.609   2.941   0.344
17830WAT      O53731   0.188   4.607   7.492
17830WAT     H153732   0.103   4.599   7.545
17830WAT     H253733   0.266   4.590   7.552
17831WAT      O53734   5.688   2.281   2.107
17831WAT     H153735   5.636   2.365   2.124
17831WAT     H253736   5.753   2.296   2.033
17832WAT      O53737   0.439   9.121   0.399
17832WAT     H153738   0.394   9.061   0.334
17832WAT     H253739   0.449   9.074   0.487
17833WAT      O53740   7.028   4.648   5.038
17833WAT     H153741   7.107   4.685   4.989
17833WAT     H253742   7.029   4.679   5.133
17834WAT      O53743   2.632   8.440   7.212
17834WAT     H153744   2.600   8.491   7.132
17834WAT     H253745   2.686   8.362   7.183
17835WAT      O53746   5.670   2.445   7.497
17835WAT     H153747   5.597   2.457   7.564
17835WAT     H253748   5.633   2.399   7.416
17836WAT      O53749   2.959   8.943   8.551
17836WAT     H153750   3.014   9.022   8.525
17836WAT     H253751   2.869   8.950   8.506
17837WAT      O53752   1.066   5.980   0.383
17837WAT     H153753   0.994   5.914   0.401
17837WAT     H253754   1.155   5.933   0.381
17838WAT      O53755   3.243   0.159   7.883
17838WAT     H153756   3.337   0.132   7.861
17838WAT     H253757   3.214   0.114   7.967
17839WAT      O53758   9.194   6.143   5.948
17839WAT     H153759   9.184   6.048   5.916
17839WAT     H253760   9.174   6.148   6.046
17840WAT      O53761   6.535   4.971   0.422
17840WAT     H153762   6.610   4.920   0.381
17840WAT     H253763   6.458   4.975   0.357
17841WAT      O53764   0.258   7.942   2.220
17841WAT     H153765   0.251   8.035   2.254
17841WAT     H253766   0.192   7.929   2.145
17842WAT      O53767   2.017   8.199   0.261
17842WAT     H153768   1.946   8.225   0.195
17842WAT     H253769   2.098   8.168   0.212
17843WAT      O53770   7.822   4.029   2.973
17843WAT     H153771   7.884   3.995   2.902
17843WAT     H253772   7.766   4.103   2.935
17844WAT      O53773   6.903   3.654   6.367
17844WAT     H153774   6.972   3.623   6.431
17844WAT     H253775   6.878   3.579   6.305
17845WAT      O53776   5.183   6.074   2.928
17845WAT     H153777   5.269   6.108   2.891
17845WAT     H253778   5.121   6.049   2.853
17846WAT      O53779   0.087   5.544   8.713
17846WAT     H153780   0.174   5.496   8.714
17846WAT     H253781   0.103   5.641   8.693
17847WAT      O53782   2.437   5.105   1.434
17847WAT     H153783   2.532   5.082   1.411
17847WAT     H253784   2.430   5.121   1.532
17848WAT      O53785   3.701   3.339   6.712
17848WAT     H153786   3.771   3.268   6.702
17848WAT     H253787   3.705   3.377   6.804
17849WAT      O53788   2.363   4.214   3.887
17849WAT     H153789   2.333   4.158   3.965
17849WAT     H253790   2.430   4.281   3.918
17850WAT      O53791   2.934   8.426   9.415
17850WAT     H153792   2.874   8.500   9.443
17850WAT     H253793   2.939   8.422   9.315
17851WAT      O53794   5.702   3.867   6.109
17851WAT     H153795   5.762   3.796   6.146
17851WAT     H253796   5.659   3.917   6.184
17852WAT      O53797   7.815   1.431   6.104
17852WAT     H153798   7.792   1.389   6.016
17852WAT     H253799   7.847   1.361   6.167
17853WAT      O53800   4.667   9.415   5.191
17853WAT     H153801   4.725   9.433   5.111
17853WAT     H253802   4.578   9.459   5.177
17854WAT      O53803   0.718   0.577   5.060
17854WAT     H153804   0.690   0.579   4.964
17854WAT     H253805   0.637   0.567   5.118
17855WAT      O53806   7.194   8.647   6.681
17855WAT     H153807   7.256   8.724   6.667
17855WAT     H253808   7.125   8.646   6.609
17856WAT      O53809   5.603   1.545   3.289
17856WAT     H153810   5.694   1.554   3.249
17856WAT     H253811   5.612   1.516   3.385
17857WAT      O53812   6.252   4.368   8.602
17857WAT     H153813   6.308   4.316   8.666
17857WAT     H253814   6.282   4.464   8.601
17858WAT      O53815   7.298   8.955   1.144
17858WAT     H153816   7.359   8.914   1.076
17858WAT     H253817   7.204   8.956   1.109
17859WAT      O53818   4.303   2.639   0.905
17859WAT     H153819   4.221   2.629   0.848
17859WAT     H253820   4.293   2.721   0.962
17860WAT      O53821   5.637   1.122   2.240
17860WAT     H153822   5.682   1.212   2.248
17860WAT     H253823   5.578   1.108   2.320
17861WAT      O53824   5.466   5.277   5.822
17861WAT     H153825   5.391   5.256   5.759
17861WAT     H253826   5.523   5.350   5.783
17862WAT      O53827   3.310   2.719   0.523
17862WAT     H153828   3.242   2.671   0.579
17862WAT     H253829   3.387   2.747   0.581
17863WAT      O53830   5.204   1.413   4.361
17863WAT     H153831   5.239   1.383   4.450
17863WAT     H253832   5.199   1.335   4.299
17864WAT      O53833   4.461   9.800   9.499
17864WAT     H153834   4.371   9.815   9.538
17864WAT     H253835   4.458   9.721   9.437
17865WAT      O53836   2.886   9.485   6.630
17865WAT     H153837   2.883   9.497   6.729
17865WAT     H253838   2.912   9.391   6.608
17866WAT      O53839   6.730   5.793   0.843
17866WAT     H153840   6.795   5.738   0.896
17866WAT     H253841   6.641   5.747   0.842
17867WAT      O53842   5.959   4.799   0.810
17867WAT     H153843   5.936   4.884   0.856
17867WAT     H253844   6.058   4.784   0.814
17868WAT      O53845   7.305   2.267   1.569
17868WAT     H153846   7.256   2.218   1.641
17868WAT     H253847   7.288   2.366   1.578
17869WAT      O53848   1.445   6.357   8.940
17869WAT     H153849   1.487   6.445   8.917
17869WAT     H253850   1.492   6.284   8.890
17870WAT      O53851   2.540   9.540   5.443
17870WAT     H153852   2.533   9.476   5.366
17870WAT     H253853   2.626   9.590   5.436
17871WAT      O53854   8.924   3.161   9.034
17871WAT     H153855   8.832   3.154   9.073
17871WAT     H253856   8.918   3.161   8.934
17872WAT      O53857   8.776   0.267   9.014
17872WAT     H153858   8.730   0.180   9.001
17872WAT     H253859   8.875   0.253   9.010
17873WAT      O53860   3.558   1.544   8.722
17873WAT     H153861   3.539   1.549   8.624
17873WAT     H253862   3.655   1.563   8.739
17874WAT      O53863   6.323   1.885   6.582
17874WAT     H153864   6.351   1.789   6.578
17874WAT     H253865   6.256   1.897   6.655
17875WAT      O53866   1.851   6.744   2.190
17875WAT     H153867   1.826   6.832   2.150
17875WAT     H253868   1.927   6.757   2.253
17876WAT      O53869   5.902   6.344   8.061
17876WAT     H153870   5.948   6.371   8.146
17876WAT     H253871   5.909   6.244   8.050
17877WAT      O53872   2.900   6.637   9.399
17877WAT     H153873   2.869   6.549   9.364
17877WAT     H253874   2.826   6.704   9.389
17878WAT      O53875   0.314   1.390   7.655
17878WAT     H153876   0.248   1.422   7.587
17878WAT     H253877   0.328   1.461   7.724
17879WAT      O53878   9.370   4.258   9.579
17879WAT     H153879   9.408   4.286   9.668
17879WAT     H253880   9.342   4.339   9.528
17880WAT      O53881   8.520   2.136   3.533
17880WAT     H153882   8.511   2.092   3.444
17880WAT     H253883   8.444   2.199   3.546
17881WAT      O53884   6.046   1.378   8.995
17881WAT     H153885   6.071   1.475   9.003
17881WAT     H253886   5.955   1.370   8.956
17882WAT      O53887   3.942   4.052   0.794
17882WAT     H153888   3.887   4.135   0.795
17882WAT     H253889   3.934   4.005   0.882
17883WAT      O53890   1.475   0.336   7.011
17883WAT     H153891   1.380   0.311   7.024
17883WAT     H253892   1.534   0.266   7.051
17884WAT      O53893   0.516   1.501   4.652
17884WAT     H153894   0.582   1.435   4.617
17884WAT     H253895   0.424   1.474   4.625
17885WAT      O53896   6.826   0.152   8.326
17885WAT     H153897   6.738   0.190   8.356
17885WAT     H253898   6.817   0.053   8.315
17886WAT      O53899   7.124   2.567   8.900
17886WAT     H153900   7.191   2.529   8.836
17886WAT     H253901   7.106   2.663   8.877
17887WAT      O53902   5.001   3.048   9.516
17887WAT     H153903   4.928   3.076   9.579
17887WAT     H253904   5.083   3.024   9.568
17888WAT      O53905   4.622   8.905   1.392
17888WAT     H153906   4.636   8.822   1.446
17888WAT     H253907   4.680   8.902   1.311
17889WAT      O53908   9.822   1.626   1.215
17889WAT     H153909   9.829   1.721   1.246
17889WAT     H253910   9.773   1.572   1.283
17890WAT      O53911   8.238   3.257   2.514
17890WAT     H153912   8.241   3.319   2.592
17890WAT     H253913   8.257   3.164   2.545
17891WAT      O53914   9.750   1.248   6.759
17891WAT     H153915   9.845   1.233   6.787
17891WAT     H253916   9.748   1.296   6.672
17892WAT      O53917   7.435   6.984   8.144
17892WAT     H153918   7.340   6.957   8.134
17892WAT     H253919   7.443   7.082   8.125
17893WAT      O53920   0.420   9.803   6.554
17893WAT     H153921   0.466   9.799   6.465
17893WAT     H253922   0.324   9.828   6.540
17894WAT      O53923   3.652   2.549   3.576
17894WAT     H153924   3.604   2.583   3.656
17894WAT     H253925   3.607   2.584   3.493
17895WAT      O53926   9.312   1.576   6.677
17895WAT     H153927   9.333   1.674   6.683
17895WAT     H253928   9.346   1.530   6.759
17896WAT      O53929   1.444   7.081   8.602
17896WAT     H153930   1.378   7.105   8.673
17896WAT     H253931   1.529   7.050   8.644
17897WAT      O53932   1.445   9.687   8.323
17897WAT     H153933   1.461   9.668   8.420
17897WAT     H253934   1.386   9.768   8.314
17898WAT      O53935   5.346   5.556   3.106
17898WAT     H153936   5.395   5.642   3.119
17898WAT     H253937   5.398   5.496   3.045
17899WAT      O53938   2.027   6.808   4.888
17899WAT     H153939   1.984   6.897   4.905
17899WAT     H253940   2.056   6.804   4.792
17900WAT      O53941   7.906   6.439   2.814
17900WAT     H153942   7.953   6.480   2.736
17900WAT     H253943   7.972   6.423   2.888
17901WAT      O53944   2.274   4.544   7.653
17901WAT     H153945   2.371   4.521   7.640
17901WAT     H253946   2.244   4.514   7.743
17902WAT      O53947   4.404   7.068   1.054
17902WAT     H153948   4.492   7.072   1.102
17902WAT     H253949   4.381   6.972   1.034
17903WAT      O53950   0.740   5.181   5.479
17903WAT     H153951   0.707   5.133   5.561
17903WAT     H253952   0.822   5.135   5.445
17904WAT      O53953   1.336   5.539   7.904
17904WAT     H153954   1.324   5.636   7.884
17904WAT     H253955   1.365   5.491   7.821
17905WAT      O53956   7.656   5.755   1.712
17905WAT     H153957   7.568   5.709   1.713
17905WAT     H253958   7.642   5.854   1.701
17906WAT      O53959   8.218   9.471   5.854
17906WAT     H153960   8.142   9.421   5.812
17906WAT     H253961   8.267   9.523   5.784
17907WAT      O53962   4.117   0.610   3.120
17907WAT     H153963   4.178   0.608   3.199
17907WAT     H253964   4.023   0.626   3.151
17908WAT      O53965   7.851   8.155   0.710
17908WAT     H153966   7.775   8.135   0.648
17908WAT     H253967   7.823   8.139   0.804
17909WAT      O53968   2.586   9.734   4.758
17909WAT     H153969   2.625   9.687   4.837
17909WAT     H253970   2.535   9.814   4.788
17910WAT      O53971   8.357   7.375   3.007
17910WAT     H153972   8.380   7.305   3.075
17910WAT     H253973   8.377   7.465   3.045
17911WAT      O53974   7.310   6.991   7.575
17911WAT     H153975   7.226   7.006   7.522
17911WAT     H253976   7.376   7.063   7.553
17912WAT      O53977   2.397   6.562   4.278
17912WAT     H153978   2.306   6.556   4.318
17912WAT     H253979   2.397   6.523   4.186
17913WAT      O53980   7.452   2.786   7.279
17913WAT     H153981   7.393   2.730   7.220
17913WAT     H253982   7.535   2.811   7.229
17914WAT      O53983   3.905   9.201   4.094
17914WAT     H153984   3.943   9.198   4.002
17914WAT     H253985   3.979   9.188   4.161
17915WAT      O53986   0.496   3.085   1.407
17915WAT     H153987   0.407   3.105   1.449
17915WAT     H253988   0.549   3.025   1.467
17916WAT      O53989   0.601   1.918   3.629
17916WAT     H153990   0.691   1.952   3.603
17916WAT     H253991   0.578   1.837   3.574
17917WAT      O53992   1.616   5.172   5.850
17917WAT     H153993   1.598   5.263   5.813
17917WAT     H253994   1.715   5.161   5.865
17918WAT      O53995   4.929   0.868   1.134
17918WAT     H153996   4.870   0.893   1.211
17918WAT     H253997   5.016   0.832   1.169
17919WAT      O53998   3.665   2.541   6.695
17919WAT     H153999   3.626   2.599   6.766
17919WAT     H254000   3.593   2.515   6.630
17920WAT      O54001   0.722   0.089   0.326
17920WAT     H154002   0.786   0.139   0.268
17920WAT     H254003   0.658   0.153   0.369
17921WAT      O54004   5.128   6.814   5.248
17921WAT     H154005   5.184   6.791   5.168
17921WAT     H254006   5.047   6.865   5.218
17922WAT      O54007   1.655   8.519   0.896
17922WAT     H154008   1.695   8.537   0.987
17922WAT     H254009   1.614   8.428   0.896
17923WAT      O54010   8.300   7.922   6.595
17923WAT     H154011   8.203   7.938   6.578
17923WAT     H254012   8.350   7.924   6.509
17924WAT      O54013   0.444   2.868   5.581
17924WAT     H154014   0.521   2.804   5.580
17924WAT     H254015   0.478   2.961   5.598
17925WAT      O54016   0.631   5.411   5.558
17925WAT     H154017   0.680   5.333   5.519
17925WAT     H254018   0.627   5.402   5.657
17926WAT      O54019   7.536   2.640   3.008
17926WAT     H154020   7.528   2.611   2.912
17926WAT     H254021   7.446   2.663   3.044
17927WAT      O54022   5.771   0.507   6.404
17927WAT     H154023   5.830   0.445   6.352
17927WAT     H254024   5.820   0.540   6.484
17928WAT      O54025   1.289   7.551   0.585
17928WAT     H154026   1.283   7.488   0.663
17928WAT     H254027   1.197   7.583   0.562
17929WAT      O54028   1.220   3.526   9.389
17929WAT     H154029   1.249   3.591   9.318
17929WAT     H254030   1.130   3.551   9.423
17930WAT      O54031   0.463   6.402   6.284
17930WAT     H154032   0.411   6.485   6.267
17930WAT     H254033   0.538   6.395   6.218
17931WAT      O54034   2.254   9.023   6.040
17931WAT     H154035   2.211   8.933   6.041
17931WAT     H254036   2.205   9.083   6.103
17932WAT      O54037   5.687   5.021   9.245
17932WAT     H154038   5.645   5.097   9.195
17932WAT     H254039   5.616   4.974   9.299
17933WAT      O54040   9.506   3.215   3.648
17933WAT     H154041   9.436   3.212   3.719
17933WAT     H254042   9.478   3.280   3.576
17934WAT      O54043   0.986   8.554   8.894
17934WAT     H154044   0.936   8.471   8.919
17934WAT     H254045   1.067   8.530   8.841
17935WAT      O54046   8.307   7.243   2.535
17935WAT     H154047   8.221   7.286   2.560
17935WAT     H254048   8.305   7.219   2.438
17936WAT      O54049   7.530   9.573   3.515
17936WAT     H154050   7.462   9.646   3.506
17936WAT     H254051   7.622   9.613   3.518
17937WAT      O54052   1.605   2.155   1.738
17937WAT     H154053   1.552   2.095   1.678
17937WAT     H254054   1.696   2.169   1.699
17938WAT      O54055   0.571   8.803   5.618
17938WAT     H154056   0.600   8.844   5.531
17938WAT     H254057   0.593   8.705   5.617
17939WAT      O54058   4.393   5.737   7.913
17939WAT     H154059   4.357   5.727   7.820
17939WAT     H254060   4.432   5.828   7.924
17940WAT      O54061   4.390   2.793   5.196
17940WAT     H154062   4.457   2.845   5.143
17940WAT     H254063   4.306   2.785   5.144
17941WAT      O54064   0.204   4.616   1.034
17941WAT     H154065   0.240   4.635   0.943
17941WAT     H254066   0.225   4.692   1.095
17942WAT      O54067   5.397   0.013   0.591
17942WAT     H154068   5.354  -0.026   0.510
17942WAT     H254069   5.340  -0.004   0.672
17943WAT      O54070   8.469   0.567   8.830
17943WAT     H154071   8.479   0.664   8.853
17943WAT     H254072   8.434   0.558   8.737
17944WAT      O54073   5.836   8.488   0.642
17944WAT     H154074   5.928   8.449   0.640
17944WAT     H254075   5.842   8.587   0.629
17945WAT      O54076   0.409   6.616   0.246
17945WAT     H154077   0.491   6.576   0.206
17945WAT     H254078   0.347   6.646   0.174
17946WAT      O54079   8.396   4.932   4.431
17946WAT     H154080   8.300   4.958   4.426
17946WAT     H254081   8.430   4.946   4.524
17947WAT      O54082   8.933   1.926   5.831
17947WAT     H154083   8.974   2.007   5.789
17947WAT     H254084   8.835   1.940   5.841
17948WAT      O54085   9.445   8.672   4.638
17948WAT     H154086   9.422   8.724   4.721
17948WAT     H254087   9.415   8.723   4.558
17949WAT      O54088   5.097   9.108   3.618
17949WAT     H154089   5.132   9.163   3.694
17949WAT     H254090   5.153   9.025   3.609
17950WAT      O54091   5.174   4.505   1.167
17950WAT     H154092   5.169   4.554   1.255
17950WAT     H254093   5.089   4.521   1.116
17951WAT      O54094   8.463   3.605   8.230
17951WAT     H154095   8.535   3.536   8.225
17951WAT     H254096   8.498   3.693   8.198
17952WAT      O54097   5.369   9.138   6.995
17952WAT     H154098   5.453   9.094   6.964
17952WAT     H254099   5.391   9.210   7.060
17953WAT      O54100   1.015   5.795   5.852
17953WAT     H154101   0.928   5.843   5.855
17953WAT     H254102   1.009   5.712   5.909
17954WAT      O54103   9.008   9.716   9.828
17954WAT     H154104   8.912   9.739   9.809
17954WAT     H254105   9.043   9.777   9.900
17955WAT      O54106   6.155   6.270   3.326
17955WAT     H154107   6.096   6.237   3.252
17955WAT     H254108   6.249   6.280   3.293
17956WAT      O54109   0.248   5.059   7.804
17956WAT     H154110   0.346   5.074   7.785
17956WAT     H254111   0.238   5.024   7.897
17957WAT      O54112   6.624   6.619   7.775
17957WAT     H154113   6.549   6.559   7.747
17957WAT     H254114   6.640   6.687   7.703
17958WAT      O54115   7.238   0.230   7.491
17958WAT     H154116   7.220   0.134   7.473
17958WAT     H254117   7.166   0.266   7.552
17959WAT      O54118   0.843   9.127   4.224
17959WAT     H154119   0.822   9.217   4.185
17959WAT     H254120   0.942   9.113   4.225
17960WAT      O54121   5.082   7.285   8.923
17960WAT     H154122   5.115   7.205   8.873
17960WAT     H254123   5.112   7.368   8.876
17961WAT      O54124   2.835   8.778   5.791
17961WAT     H154125   2.782   8.855   5.755
17961WAT     H254126   2.859   8.716   5.716
17962WAT      O54127   6.621   8.770   5.609
17962WAT     H154128   6.604   8.674   5.589
17962WAT     H254129   6.680   8.778   5.689
17963WAT      O54130   3.549   1.604   9.102
17963WAT     H154131   3.486   1.550   9.047
17963WAT     H254132   3.512   1.613   9.195
17964WAT      O54133   5.528   3.013   5.195
17964WAT     H154134   5.572   3.084   5.139
17964WAT     H254135   5.565   2.924   5.170
17965WAT      O54136   4.293   2.073   1.232
17965WAT     H154137   4.338   1.992   1.270
17965WAT     H254138   4.358   2.125   1.177
17966WAT      O54139   4.626   6.000   1.554
17966WAT     H154140   4.648   5.912   1.511
17966WAT     H254141   4.704   6.033   1.605
17967WAT      O54142   8.634   6.890   2.315
17967WAT     H154143   8.707   6.940   2.267
17967WAT     H254144   8.563   6.864   2.249
17968WAT      O54145   8.678   4.623   7.289
17968WAT     H154146   8.776   4.616   7.304
17968WAT     H254147   8.659   4.623   7.191
17969WAT      O54148   9.089   0.294   1.184
17969WAT     H154149   9.100   0.393   1.176
17969WAT     H254150   9.179   0.251   1.187
17970WAT      O54151   3.897   8.276   9.192
17970WAT     H154152   3.867   8.295   9.285
17970WAT     H254153   3.947   8.354   9.156
17971WAT      O54154   6.660   8.671   9.307
17971WAT     H154155   6.625   8.620   9.228
17971WAT     H254156   6.623   8.631   9.391
17972WAT      O54157   3.222   2.997   3.283
17972WAT     H154158   3.145   2.944   3.320
17972WAT     H254159   3.285   2.937   3.235
17973WAT      O54160   2.409   8.384   1.911
17973WAT     H154161   2.334   8.336   1.957
17973WAT     H254162   2.375   8.428   1.827
17974WAT      O54163   0.967   7.575   7.646
17974WAT     H154164   0.923   7.662   7.670
17974WAT     H254165   0.939   7.505   7.711
17975WAT      O54166   4.693   7.427   2.954
17975WAT     H154167   4.720   7.517   2.988
17975WAT     H254168   4.734   7.411   2.864
17976WAT      O54169   3.879   1.111   2.994
17976WAT     H154170   3.824   1.182   3.039
17976WAT     H254171   3.961   1.094   3.048
17977WAT      O54172   4.268   7.930   1.812
17977WAT     H154173   4.236   7.997   1.878
17977WAT     H254174   4.363   7.951   1.786
17978WAT      O54175   0.849   2.399   4.913
17978WAT     H154176   0.907   2.350   4.979
17978WAT     H254177   0.760   2.418   4.955
17979WAT      O54178   4.551   0.968   0.488
17979WAT     H154179   4.493   0.904   0.538
17979WAT     H254180   4.640   0.926   0.472
17980WAT      O54181   9.314   3.788   2.532
17980WAT     H154182   9.237   3.848   2.510
17980WAT     H254183   9.291   3.732   2.612
17981WAT      O54184   3.586   1.934   0.725
17981WAT     H154185   3.606   1.938   0.823
17981WAT     H254186   3.525   1.857   0.707
17982WAT      O54187   8.001   4.737   5.421
17982WAT     H154188   8.002   4.637   5.418
17982WAT     H254189   8.000   4.773   5.327
17983WAT      O54190   7.762   7.440   8.206
17983WAT     H154191   7.729   7.492   8.127
17983WAT     H254192   7.862   7.435   8.203
17984WAT      O54193   1.458   7.775   3.846
17984WAT     H154194   1.456   7.776   3.746
17984WAT     H254195   1.515   7.850   3.879
17985WAT      O54196   7.706   3.770   9.339
17985WAT     H154197   7.671   3.837   9.405
17985WAT     H254198   7.803   3.785   9.324
17986WAT      O54199   0.467   3.889   7.003
17986WAT     H154200   0.477   3.928   7.095
17986WAT     H254201   0.406   3.947   6.949
17987WAT      O54202   4.445   7.526   3.295
17987WAT     H154203   4.542   7.508   3.315
17987WAT     H254204   4.419   7.477   3.211
17988WAT      O54205   9.192   4.878   4.368
17988WAT     H154206   9.134   4.940   4.421
17988WAT     H254207   9.257   4.833   4.429
17989WAT      O54208   0.120   8.432   6.030
17989WAT     H154209   0.087   8.487   6.106
17989WAT     H254210   0.200   8.477   5.989
17990WAT      O54211   3.014   3.339   0.491
17990WAT     H154212   3.002   3.408   0.420
17990WAT     H254213   2.956   3.362   0.570
17991WAT      O54214   8.831   4.613   4.234
17991WAT     H154215   8.745   4.659   4.210
17991WAT     H254216   8.892   4.613   4.155
17992WAT      O54217   5.462   5.949   1.690
17992WAT     H154218   5.419   5.973   1.777
17992WAT     H254219   5.432   6.012   1.619
17993WAT      O54220   6.739   0.969   1.056
17993WAT     H154221   6.800   0.966   1.135
17993WAT     H254222   6.722   1.064   1.030
17994WAT      O54223   3.062   5.776   4.599
17994WAT     H154224   3.138   5.737   4.650
17994WAT     H254225   2.976   5.736   4.630
17995WAT      O54226   5.272   6.576   0.287
17995WAT     H154227   5.203   6.574   0.216
17995WAT     H254228   5.363   6.566   0.246
17996WAT      O54229   7.925   6.878   5.385
17996WAT     H154230   7.849   6.813   5.387
17996WAT     H254231   7.903   6.957   5.444
17997WAT      O54232   1.675   3.308   1.306
17997WAT     H154233   1.593   3.291   1.361
17997WAT     H254234   1.701   3.404   1.312
17998WAT      O54235   8.097   7.938   6.843
17998WAT     H154236   8.177   7.886   6.873
17998WAT     H254237   8.093   7.939   6.743
17999WAT      O54238   2.738   2.551   6.134
17999WAT     H154239   2.821   2.501   6.111
17999WAT     H254240   2.738   2.573   6.232
18000WAT      O54241   9.216   0.478   3.695
18000WAT     H154242   9.258   0.568   3.694
18000WAT     H254243   9.282   0.411   3.729
18001WAT      O54244   6.796   9.166   6.052
18001WAT     H154245   6.884   9.137   6.088
18001WAT     H254246   6.739   9.200   6.127
18002WAT      O54247   5.637   4.015   8.085
18002WAT     H154248   5.629   4.054   7.994
18002WAT     H254249   5.643   4.088   8.153
18003WAT      O54250   3.175   9.349   1.824
18003WAT     H154251   3.244   9.376   1.891
18003WAT     H254252   3.189   9.400   1.739
18004WAT      O54253   1.310   2.810   7.052
18004WAT     H154254   1.307   2.733   6.988
18004WAT     H254255   1.303   2.896   7.001
18005WAT      O54256   4.707   7.264   9.417
18005WAT     H154257   4.681   7.287   9.510
18005WAT     H254258   4.700   7.165   9.403
18006WAT      O54259   7.033   2.927   3.162
18006WAT     H154260   7.112   2.929   3.223
18006WAT     H254261   7.034   3.009   3.105
18007WAT      O54262   7.501   6.818   2.301
18007WAT     H154263   7.542   6.859   2.383
18007WAT     H254264   7.544   6.730   2.282
18008WAT      O54265   8.080   6.894   0.907
18008WAT     H154266   8.146   6.868   0.836
18008WAT     H254267   8.129   6.909   0.993
18009WAT      O54268   0.947   8.363   5.979
18009WAT     H154269   0.958   8.463   5.975
18009WAT     H254270   0.906   8.331   5.894
18010WAT      O54271   5.883   9.673   2.979
18010WAT     H154272   5.964   9.704   2.929
18010WAT     H254273   5.910   9.623   3.061
18011WAT      O54274   1.376   1.129   6.607
18011WAT     H154275   1.352   1.051   6.666
18011WAT     H254276   1.325   1.123   6.522
18012WAT      O54277   0.012   5.046   6.002
18012WAT     H154278   0.085   5.101   6.043
18012WAT     H254279   0.024   5.044   5.903
18013WAT      O54280   6.632   2.855   9.585
18013WAT     H154281   6.561   2.825   9.649
18013WAT     H254282   6.720   2.857   9.632
18014WAT      O54283   6.001   7.551   0.547
18014WAT     H154284   5.969   7.461   0.519
18014WAT     H254285   6.054   7.592   0.473
18015WAT      O54286   0.956   5.433   9.887
18015WAT     H154287   0.968   5.531   9.904
18015WAT     H254288   1.027   5.382   9.936
18016WAT      O54289   0.356   3.475   4.581
18016WAT     H154290   0.406   3.514   4.659
18016WAT     H254291   0.421   3.440   4.514
18017WAT      O54292   4.168   2.745   6.193
18017WAT     H154293   4.072   2.715   6.198
18017WAT     H254294   4.174   2.825   6.134
18018WAT      O54295   1.793   4.489   8.860
18018WAT     H154296   1.876   4.539   8.886
18018WAT     H254297   1.800   4.395   8.892
18019WAT      O54298   8.642   2.467   6.457
18019WAT     H154299   8.601   2.455   6.548
18019WAT     H254300   8.617   2.390   6.399
18020WAT      O54301   3.929   5.145   1.517
18020WAT     H154302   3.964   5.129   1.609
18020WAT     H254303   3.929   5.060   1.465
18021WAT      O54304   4.846   5.193   1.317
18021WAT     H154305   4.900   5.252   1.378
18021WAT     H254306   4.810   5.248   1.242
18022WAT      O54307   6.165   7.631   4.849
18022WAT     H154308   6.118   7.688   4.916
18022WAT     H254309   6.182   7.541   4.887
18023WAT      O54310   1.467   7.815   4.931
18023WAT     H154311   1.407   7.893   4.916
18023WAT     H254312   1.430   7.734   4.885
18024WAT      O54313   8.423   1.797   4.524
18024WAT     H154314   8.406   1.761   4.615
18024WAT     H254315   8.518   1.830   4.518
18025WAT      O54316   6.204   4.190   5.776
18025WAT     H154317   6.287   4.243   5.794
18025WAT     H254318   6.140   4.202   5.853
18026WAT      O54319   6.675   1.521   2.584
18026WAT     H154320   6.759   1.573   2.575
18026WAT     H254321   6.601   1.569   2.537
18027WAT      O54322   8.723   7.872   8.626
18027WAT     H154323   8.720   7.948   8.692
18027WAT     H254324   8.809   7.877   8.575
18028WAT      O54325   3.910   1.080   4.594
18028WAT     H154326   3.999   1.124   4.609
18028WAT     H254327   3.900   1.002   4.655
18029WAT      O54328   4.775   8.040   9.721
18029WAT     H154329   4.775   8.140   9.722
18029WAT     H254330   4.867   8.006   9.701
18030WAT      O54331   3.352   8.243   8.034
18030WAT     H154332   3.423   8.205   8.093
18030WAT     H254333   3.281   8.284   8.092
18031WAT      O54334   0.846   0.213   0.799
18031WAT     H154335   0.750   0.240   0.786
18031WAT     H254336   0.858   0.176   0.891
18032WAT      O54337   8.809   7.999   4.222
18032WAT     H154338   8.782   7.903   4.206
18032WAT     H254339   8.753   8.059   4.165
18033WAT      O54340   3.035   1.039   1.548
18033WAT     H154341   3.093   1.027   1.629
18033WAT     H254342   3.081   1.000   1.468
18034WAT      O54343   7.208   3.801   8.250
18034WAT     H154344   7.217   3.743   8.169
18034WAT     H254345   7.297   3.814   8.293
18035WAT      O54346   0.455   6.314   9.740
18035WAT     H154347   0.356   6.317   9.735
18035WAT     H254348   0.484   6.223   9.771
18036WAT      O54349   0.357   8.963   6.332
18036WAT     H154350   0.400   9.023   6.264
18036WAT     H254351   0.272   9.005   6.364
18037WAT      O54352   7.862   9.557   3.007
18037WAT     H154353   7.780   9.512   2.973
18037WAT     H254354   7.943   9.505   2.978
18038WAT      O54355   6.839   1.962   3.786
18038WAT     H154356   6.784   2.003   3.712
18038WAT     H254357   6.903   2.030   3.821
18039WAT      O54358   4.592   2.612   9.594
18039WAT     H154359   4.608   2.710   9.604
18039WAT     H254360   4.497   2.592   9.618
18040WAT      O54361   8.613   4.772   2.204
18040WAT     H154362   8.617   4.734   2.112
18040WAT     H254363   8.618   4.697   2.271
18041WAT      O54364   0.078   2.338   3.548
18041WAT     H154365   0.164   2.316   3.594
18041WAT     H254366   0.028   2.253   3.530
18042WAT      O54367   9.008   9.269   2.731
18042WAT     H154368   8.998   9.219   2.817
18042WAT     H254369   9.096   9.249   2.690
18043WAT      O54370   4.628   5.326   0.809
18043WAT     H154371   4.630   5.282   0.899
18043WAT     H254372   4.639   5.425   0.821
18044WAT      O54373   7.285   4.313   7.766
18044WAT     H154374   7.383   4.317   7.746
18044WAT     H254375   7.235   4.301   7.680
18045WAT      O54376   6.196   8.978   0.419
18045WAT     H154377   6.117   8.922   0.391
18045WAT     H254378   6.262   8.981   0.344
18046WAT      O54379   3.440   6.815   3.268
18046WAT     H154380   3.480   6.862   3.347
18046WAT     H254381   3.502   6.744   3.236
18047WAT      O54382   5.215   0.475   3.633
18047WAT     H154383   5.241   0.381   3.613
18047WAT     H254384   5.178   0.518   3.551
18048WAT      O54385   4.399   5.619   1.527
18048WAT     H154386   4.436   5.691   1.468
18048WAT     H254387   4.455   5.536   1.518
18049WAT      O54388   7.839   8.394   9.000
18049WAT     H154389   7.876   8.482   8.971
18049WAT     H254390   7.905   8.348   9.060
18050WAT      O54391   6.202   6.155   9.412
18050WAT     H154392   6.109   6.165   9.447
18050WAT     H254393   6.264   6.210   9.468
18051WAT      O54394   9.400   5.889   6.743
18051WAT     H154395   9.401   5.958   6.670
18051WAT     H254396   9.465   5.816   6.721
18052WAT      O54397   4.143   2.993   7.867
18052WAT     H154398   4.112   3.025   7.956
18052WAT     H254399   4.234   2.952   7.876
18053WAT      O54400   2.684   5.498   8.358
18053WAT     H154401   2.747   5.484   8.434
18053WAT     H254402   2.704   5.585   8.313
18054WAT      O54403   9.415   6.721   5.866
18054WAT     H154404   9.453   6.699   5.955
18054WAT     H254405   9.347   6.794   5.876
18055WAT      O54406   6.468   3.140   9.038
18055WAT     H154407   6.544   3.195   9.074
18055WAT     H254408   6.394   3.139   9.104
18056WAT      O54409   9.191   1.767   0.983
18056WAT     H154410   9.112   1.824   0.960
18056WAT     H254411   9.251   1.817   1.045
18057WAT      O54412   7.345   7.940   0.211
18057WAT     H154413   7.327   8.038   0.208
18057WAT     H254414   7.346   7.902   0.118
18058WAT      O54415   4.611   4.839   1.234
18058WAT     H154416   4.679   4.766   1.239
18058WAT     H254417   4.524   4.805   1.267
18059WAT      O54418   2.830   7.919   3.445
18059WAT     H154419   2.758   7.981   3.478
18059WAT     H254420   2.797   7.825   3.453
18060WAT      O54421   8.306   1.703   0.243
18060WAT     H154422   8.375   1.757   0.291
18060WAT     H254423   8.299   1.613   0.287
18061WAT      O54424   9.765   4.879   7.801
18061WAT     H154425   9.737   4.867   7.896
18061WAT     H254426   9.817   4.964   7.792
18062WAT      O54427   5.841   5.600   6.464
18062WAT     H154428   5.747   5.585   6.495
18062WAT     H254429   5.891   5.650   6.534
18063WAT      O54430   5.672   4.291   1.162
18063WAT     H154431   5.620   4.376   1.172
18063WAT     H254432   5.758   4.299   1.212
18064WAT      O54433   2.134   4.265   6.341
18064WAT     H154434   2.041   4.302   6.340
18064WAT     H254435   2.134   4.175   6.384
18065WAT      O54436   1.068   8.915   8.955
18065WAT     H154437   1.033   9.008   8.947
18065WAT     H254438   0.991   8.851   8.952
18066WAT      O54439   1.331   4.344   1.459
18066WAT     H154440   1.405   4.303   1.512
18066WAT     H254441   1.281   4.409   1.517
18067WAT      O54442   8.828   8.196   2.732
18067WAT     H154443   8.892   8.140   2.785
18067WAT     H254444   8.880   8.258   2.673
18068WAT      O54445   5.318   6.279   4.471
18068WAT     H154446   5.261   6.349   4.513
18068WAT     H254447   5.263   6.199   4.448
18069WAT      O54448   5.208   7.535   4.732
18069WAT     H154449   5.164   7.596   4.799
18069WAT     H254450   5.280   7.483   4.777
18070WAT      O54451   4.853   6.764   2.781
18070WAT     H154452   4.789   6.840   2.790
18070WAT     H254453   4.859   6.715   2.869
18071WAT      O54454   7.073   6.237   2.215
18071WAT     H154455   7.118   6.310   2.163
18071WAT     H254456   7.027   6.175   2.153
18072WAT      O54457   4.898   3.870   2.453
18072WAT     H154458   4.919   3.954   2.502
18072WAT     H254459   4.920   3.881   2.356
18073WAT      O54460   0.370   3.458   3.660
18073WAT     H154461   0.392   3.505   3.574
18073WAT     H254462   0.304   3.512   3.712
18074WAT      O54463   9.526   3.149   6.295
18074WAT     H154464   9.453   3.098   6.248
18074WAT     H254465   9.613   3.101   6.282
18075WAT      O54466   6.423   5.404   1.469
18075WAT     H154467   6.339   5.358   1.497
18075WAT     H254468   6.455   5.464   1.542
18076WAT      O54469   9.063   9.615   5.083
18076WAT     H154470   9.016   9.651   5.002
18076WAT     H254471   9.155   9.585   5.058
18077WAT      O54472   2.289   3.401   3.735
18077WAT     H154473   2.217   3.371   3.797
18077WAT     H254474   2.378   3.396   3.782
18078WAT      O54475   3.140   5.448   1.969
18078WAT     H154476   3.048   5.457   2.007
18078WAT     H254477   3.139   5.387   1.890
18079WAT      O54478   8.711   3.554   4.559
18079WAT     H154479   8.669   3.524   4.644
18079WAT     H254480   8.799   3.598   4.578
18080WAT      O54481   8.551   4.645   5.000
18080WAT     H154482   8.475   4.702   4.969
18080WAT     H254483   8.521   4.592   5.080
18081WAT      O54484   5.091   3.650   5.665
18081WAT     H154485   5.162   3.715   5.691
18081WAT     H254486   5.120   3.558   5.690
18082WAT      O54487   0.251   9.051   7.818
18082WAT     H154488   0.329   9.082   7.764
18082WAT     H254489   0.167   9.068   7.766
18083WAT      O54490   4.458   2.194   2.388
18083WAT     H154491   4.480   2.098   2.402
18083WAT     H254492   4.524   2.235   2.326
18084WAT      O54493   9.520   6.001   1.251
18084WAT     H154494   9.586   5.931   1.224
18084WAT     H254495   9.513   6.070   1.179
18085WAT      O54496   6.369   8.589   2.538
18085WAT     H154497   6.277   8.610   2.571
18085WAT     H254498   6.365   8.570   2.440
18086WAT      O54499   9.254   5.180   0.782
18086WAT     H154500   9.295   5.191   0.873
18086WAT     H254501   9.298   5.104   0.734
18087WAT      O54502   5.593   9.301   2.766
18087WAT     H154503   5.651   9.220   2.755
18087WAT     H254504   5.637   9.365   2.828
18088WAT      O54505   0.667   5.169   6.212
18088WAT     H154506   0.676   5.128   6.122
18088WAT     H254507   0.685   5.101   6.283
18089WAT      O54508   9.487   8.003   0.758
18089WAT     H154509   9.542   7.981   0.839
18089WAT     H254510   9.539   7.982   0.675
18090WAT      O54511   8.652   0.748   9.215
18090WAT     H154512   8.565   0.782   9.181
18090WAT     H254513   8.643   0.650   9.237
18091WAT      O54514   4.251   2.154   3.908
18091WAT     H154515   4.350   2.163   3.896
18091WAT     H254516   4.216   2.235   3.955
18092WAT      O54517   3.529   1.604   8.076
18092WAT     H154518   3.561   1.649   8.159
18092WAT     H254519   3.444   1.647   8.045
18093WAT      O54520   5.332   7.921   4.798
18093WAT     H154521   5.342   7.867   4.882
18093WAT     H254522   5.236   7.927   4.773
18094WAT      O54523   0.225   3.454   4.194
18094WAT     H154524   0.257   3.538   4.238
18094WAT     H254525   0.174   3.399   4.260
18095WAT      O54526   1.484   8.965   7.128
18095WAT     H154527   1.572   8.942   7.087
18095WAT     H254528   1.410   8.941   7.065
18096WAT      O54529   4.981   5.049   9.546
18096WAT     H154530   4.919   5.107   9.598
18096WAT     H254531   4.962   4.953   9.565
18097WAT      O54532   9.546   6.445   4.996
18097WAT     H154533   9.493   6.372   4.952
18097WAT     H254534   9.526   6.532   4.951
18098WAT      O54535   9.822   6.833   4.307
18098WAT     H154536   9.883   6.757   4.284
18098WAT     H254537   9.758   6.848   4.231
18099WAT      O54538   2.771   8.041   2.588
18099WAT     H154539   2.689   8.024   2.533
18099WAT     H254540   2.745   8.061   2.682
18100WAT      O54541   6.302   0.854   6.870
18100WAT     H154542   6.214   0.875   6.912
18100WAT     H254543   6.292   0.775   6.809
18101WAT      O54544   2.204   5.254   0.215
18101WAT     H154545   2.168   5.193   0.145
18101WAT     H254546   2.129   5.306   0.256
18102WAT      O54547   6.184   6.521   9.724
18102WAT     H154548   6.269   6.509   9.774
18102WAT     H254549   6.123   6.582   9.775
18103WAT      O54550   8.884   5.468   7.908
18103WAT     H154551   8.895   5.543   7.972
18103WAT     H254552   8.945   5.393   7.932
18104WAT      O54553   0.525   0.527   1.348
18104WAT     H154554   0.506   0.434   1.381
18104WAT     H254555   0.624   0.542   1.346
18105WAT      O54556   7.073   6.232   9.073
18105WAT     H154557   7.001   6.256   9.137
18105WAT     H254558   7.120   6.149   9.103
18106WAT      O54559   3.916   7.004   1.641
18106WAT     H154560   3.832   6.974   1.687
18106WAT     H254561   3.989   7.013   1.709
18107WAT      O54562   2.711   1.617   0.460
18107WAT     H154563   2.768   1.548   0.504
18107WAT     H254564   2.717   1.605   0.360
18108WAT      O54565   4.223   9.786   8.465
18108WAT     H154566   4.224   9.804   8.564
18108WAT     H254567   4.207   9.689   8.449
18109WAT      O54568   3.188   4.935   2.419
18109WAT     H154569   3.249   4.991   2.364
18109WAT     H254570   3.236   4.902   2.500
18110WAT      O54571   3.255   8.953   4.375
18110WAT     H154572   3.297   8.871   4.414
18110WAT     H254573   3.189   8.926   4.305
18111WAT      O54574   0.453   8.950   8.741
18111WAT     H154575   0.529   8.896   8.706
18111WAT     H254576   0.488   9.031   8.787
18112WAT      O54577   9.075   7.898   4.061
18112WAT     H154578   9.142   7.912   3.989
18112WAT     H254579   9.033   7.807   4.050
18113WAT      O54580   3.068   9.017   7.503
18113WAT     H154581   3.000   8.979   7.440
18113WAT     H254582   3.102   9.104   7.466
18114WAT      O54583   0.848   3.841   1.368
18114WAT     H154584   0.796   3.913   1.321
18114WAT     H254585   0.855   3.761   1.308
18115WAT      O54586   7.769   7.965   7.629
18115WAT     H154587   7.758   7.865   7.630
18115WAT     H254588   7.736   8.001   7.542
18116WAT      O54589   7.461   3.857   5.726
18116WAT     H154590   7.547   3.827   5.767
18116WAT     H254591   7.385   3.812   5.773
18117WAT      O54592   6.741   6.124   2.669
18117WAT     H154593   6.714   6.218   2.649
18117WAT     H254594   6.830   6.123   2.714
18118WAT      O54595   7.615   0.016   1.509
18118WAT     H154596   7.673   0.017   1.591
18118WAT     H254597   7.520   0.029   1.535
18119WAT      O54598   4.014   9.686   3.604
18119WAT     H154599   3.969   9.597   3.604
18119WAT     H254600   3.945   9.759   3.605
18120WAT      O54601   2.556   7.423   2.573
18120WAT     H154602   2.608   7.508   2.579
18120WAT     H254603   2.474   7.437   2.517
18121WAT      O54604   8.616   7.190   0.645
18121WAT     H154605   8.529   7.224   0.681
18121WAT     H254606   8.691   7.235   0.694
18122WAT      O54607   0.001   3.041   1.070
18122WAT     H154608   0.097   3.014   1.067
18122WAT     H254609  -0.009   3.134   1.036
18123WAT      O54610   5.352   1.807   9.004
18123WAT     H154611   5.433   1.796   8.946
18123WAT     H254612   5.270   1.814   8.946
18124WAT      O54613   5.437   9.278   7.825
18124WAT     H154614   5.527   9.241   7.849
18124WAT     H254615   5.407   9.239   7.738
18125WAT      O54616   4.689   6.859   1.632
18125WAT     H154617   4.667   6.943   1.582
18125WAT     H254618   4.638   6.858   1.718
18126WAT      O54619   7.205   3.776   1.970
18126WAT     H154620   7.258   3.749   1.890
18126WAT     H254621   7.267   3.807   2.042
18127WAT      O54622   0.260   8.165   6.568
18127WAT     H154623   0.331   8.099   6.591
18127WAT     H254624   0.211   8.191   6.651
18128WAT      O54625   7.417   0.030   6.466
18128WAT     H154626   7.471  -0.042   6.509
18128WAT     H254627   7.321   0.020   6.492
18129WAT      O54628   8.972   4.774   1.285
18129WAT     H154629   8.920   4.728   1.213
18129WAT     H254630   9.036   4.710   1.326
18130WAT      O54631   6.305   2.231   7.275
18130WAT     H154632   6.318   2.297   7.201
18130WAT     H254633   6.256   2.151   7.240
18131WAT      O54634   7.787   1.861   3.531
18131WAT     H154635   7.811   1.946   3.576
18131WAT     H254636   7.778   1.876   3.432
18132WAT      O54637   0.542   2.281   0.335
18132WAT     H154638   0.591   2.206   0.290
18132WAT     H254639   0.532   2.358   0.271
18133WAT      O54640   2.973   7.087   3.015
18133WAT     H154641   3.010   7.155   3.078
18133WAT     H254642   2.910   7.027   3.064
18134WAT      O54643   8.345   7.715   0.571
18134WAT     H154644   8.262   7.685   0.619
18134WAT     H254645   8.423   7.663   0.605
18135WAT      O54646   7.537   7.753   2.346
18135WAT     H154647   7.633   7.728   2.336
18135WAT     H254648   7.488   7.730   2.262
18136WAT      O54649   1.936   1.158   3.803
18136WAT     H154650   1.962   1.076   3.753
18136WAT     H254651   1.981   1.238   3.761
18137WAT      O54652   1.446   9.294   8.960
18137WAT     H154653   1.430   9.393   8.966
18137WAT     H254654   1.499   9.274   8.877
18138WAT      O54655   0.163   5.818   8.124
18138WAT     H154656   0.180   5.810   8.222
18138WAT     H254657   0.215   5.896   8.088
18139WAT      O54658   1.037   4.184   2.445
18139WAT     H154659   1.038   4.158   2.542
18139WAT     H254660   1.011   4.104   2.390
18140WAT      O54661   9.723   2.501   2.558
18140WAT     H154662   9.636   2.458   2.534
18140WAT     H254663   9.741   2.577   2.495
18141WAT      O54664   2.312   3.617   5.326
18141WAT     H154665   2.229   3.651   5.281
18141WAT     H254666   2.292   3.532   5.375
18142WAT      O54667   7.440   6.658   0.496
18142WAT     H154668   7.420   6.731   0.431
18142WAT     H254669   7.492   6.586   0.451
18143WAT      O54670   6.196   3.468   5.846
18143WAT     H154671   6.295   3.465   5.832
18143WAT     H254672   6.150   3.485   5.759
18144WAT      O54673   4.431   3.846   1.331
18144WAT     H154674   4.391   3.861   1.422
18144WAT     H254675   4.364   3.872   1.261
18145WAT      O54676   6.300   2.453   7.889
18145WAT     H154677   6.393   2.475   7.859
18145WAT     H254678   6.289   2.482   7.984
18146WAT      O54679   4.307   6.734   1.596
18146WAT     H154680   4.384   6.696   1.544
18146WAT     H254681   4.243   6.661   1.617
18147WAT      O54682   0.523  -0.001   0.793
18147WAT     H154683   0.498  -0.027   0.699
18147WAT     H254684   0.540   0.097   0.797
18148WAT      O54685   3.228   0.842   0.271
18148WAT     H154686   3.233   0.941   0.285
18148WAT     H254687   3.147   0.807   0.318
18149WAT      O54688   0.734   9.115   5.746
18149WAT     H154689   0.657   9.075   5.796
18149WAT     H254690   0.819   9.092   5.793
18150WAT      O54691   5.706   4.286   8.134
18150WAT     H154692   5.757   4.297   8.219
18150WAT     H254693   5.736   4.355   8.068
18151WAT      O54694   9.554   4.526   0.999
18151WAT     H154695   9.521   4.439   0.964
18151WAT     H254696   9.485   4.565   1.061
18152WAT      O54697   6.416   3.784   0.152
18152WAT     H154698   6.338   3.727   0.127
18152WAT     H254699   6.475   3.734   0.215
18153WAT      O54700   4.426   1.117   1.627
18153WAT     H154701   4.514   1.093   1.586
18153WAT     H254702   4.382   1.188   1.573
18154WAT      O54703   4.209   1.487   7.804
18154WAT     H154704   4.197   1.552   7.729
18154WAT     H254705   4.233   1.397   7.766
18155WAT      O54706   0.412   6.957   6.825
18155WAT     H154707   0.463   7.030   6.779
18155WAT     H254708   0.352   6.911   6.759
18156WAT      O54709   9.150   1.381   9.251
18156WAT     H154710   9.176   1.314   9.183
18156WAT     H254711   9.232   1.425   9.288
18157WAT      O54712   4.141   0.364   8.924
18157WAT     H154713   4.223   0.307   8.919
18157WAT     H254714   4.087   0.352   8.841
18158WAT      O54715   2.108   4.770   8.748
18158WAT     H154716   2.053   4.719   8.682
18158WAT     H254717   2.108   4.722   8.836
18159WAT      O54718   0.515   5.952   9.338
18159WAT     H154719   0.463   5.906   9.266
18159WAT     H254720   0.610   5.919   9.337
18160WAT      O54721   7.976   8.503   2.820
18160WAT     H154722   8.066   8.510   2.864
18160WAT     H254723   7.957   8.586   2.767
18161WAT      O54724   2.844   3.407   0.018
18161WAT     H154725   2.921   3.344   0.031
18161WAT     H254726   2.878   3.501   0.017
18162WAT      O54727   1.518   4.114   1.603
18162WAT     H154728   1.513   4.152   1.696
18162WAT     H254729   1.537   4.016   1.609
18163WAT      O54730   8.750   5.481   2.789
18163WAT     H154731   8.703   5.559   2.830
18163WAT     H254732   8.761   5.409   2.858
18164WAT      O54733   0.271   2.052   5.476
18164WAT     H154734   0.362   2.092   5.466
18164WAT     H254735   0.280   1.953   5.489
18165WAT      O54736   0.963   7.366   0.645
18165WAT     H154737   0.966   7.464   0.631
18165WAT     H254738   0.888   7.326   0.593
18166WAT      O54739   1.328   6.809   5.806
18166WAT     H154740   1.379   6.729   5.837
18166WAT     H254741   1.341   6.821   5.707
18167WAT      O54742   6.209   6.255   5.417
18167WAT     H154743   6.214   6.316   5.338
18167WAT     H254744   6.192   6.161   5.385
18168WAT      O54745   8.184   4.027   3.129
18168WAT     H154746   8.111   4.069   3.184
18168WAT     H254747   8.149   4.006   3.038
18169WAT      O54748   2.768   5.286   9.499
18169WAT     H154749   2.784   5.379   9.466
18169WAT     H254750   2.803   5.277   9.592
18170WAT      O54751   0.870   0.675   3.976
18170WAT     H154752   0.776   0.658   3.945
18170WAT     H254753   0.931   0.608   3.935
18171WAT      O54754   4.919   3.850   1.164
18171WAT     H154755   4.826   3.814   1.166
18171WAT     H254756   4.920   3.943   1.201
18172WAT      O54757   1.887   0.136   6.173
18172WAT     H154758   1.915   0.182   6.258
18172WAT     H254759   1.850   0.046   6.196
18173WAT      O54760   7.234   5.133   9.694
18173WAT     H154761   7.262   5.211   9.751
18173WAT     H254762   7.136   5.115   9.709
18174WAT      O54763   5.811   8.415   0.381
18174WAT     H154764   5.814   8.438   0.479
18174WAT     H254765   5.787   8.497   0.329
18175WAT      O54766   4.699   9.660   7.424
18175WAT     H154767   4.645   9.627   7.346
18175WAT     H254768   4.674   9.754   7.445
18176WAT      O54769   8.497   5.823   3.833
18176WAT     H154770   8.406   5.780   3.830
18176WAT     H254771   8.544   5.797   3.917
18177WAT      O54772   6.151   3.333   4.247
18177WAT     H154773   6.064   3.335   4.296
18177WAT     H254774   6.182   3.238   4.239
18178WAT      O54775   3.725   7.097   7.299
18178WAT     H154776   3.656   7.030   7.324
18178WAT     H254777   3.730   7.106   7.199
18179WAT      O54778   6.251   2.277   2.417
18179WAT     H154779   6.225   2.263   2.322
18179WAT     H254780   6.179   2.243   2.477
18180WAT      O54781   3.041   1.365   9.491
18180WAT     H154782   3.054   1.413   9.404
18180WAT     H254783   3.079   1.272   9.484
18181WAT      O54784   5.809   4.303   6.219
18181WAT     H154785   5.846   4.227   6.271
18181WAT     H254786   5.850   4.389   6.250
18182WAT      O54787   8.861   2.835   0.076
18182WAT     H154788   8.858   2.934   0.091
18182WAT     H254789   8.929   2.794   0.137
18183WAT      O54790   8.364   1.405   7.596
18183WAT     H154791   8.333   1.499   7.578
18183WAT     H254792   8.304   1.341   7.548
18184WAT      O54793   4.063   0.476   8.400
18184WAT     H154794   3.999   0.448   8.472
18184WAT     H254795   4.153   0.438   8.420
18185WAT      O54796   4.212   3.947   6.473
18185WAT     H154797   4.249   3.986   6.389
18185WAT     H254798   4.230   4.009   6.549
18186WAT      O54799   8.248   9.165   6.053
18186WAT     H154800   8.225   9.179   6.149
18186WAT     H254801   8.326   9.222   6.028
18187WAT      O54802   9.238   5.807   0.962
18187WAT     H154803   9.221   5.903   0.981
18187WAT     H254804   9.296   5.798   0.881
18188WAT      O54805   9.747   2.291   6.956
18188WAT     H154806   9.660   2.340   6.958
18188WAT     H254807   9.822   2.356   6.964
18189WAT      O54808   3.482   7.615   8.810
18189WAT     H154809   3.456   7.568   8.895
18189WAT     H254810   3.406   7.611   8.745
18190WAT      O54811   2.894   9.448   4.376
18190WAT     H154812   2.934   9.453   4.468
18190WAT     H254813   2.961   9.408   4.313
18191WAT      O54814   9.394   1.050   8.690
18191WAT     H154815   9.422   0.956   8.707
18191WAT     H254816   9.299   1.062   8.719
18192WAT      O54817   3.281   5.984   7.770
18192WAT     H154818   3.232   5.942   7.846
18192WAT     H254819   3.221   5.992   7.691
18193WAT      O54820   0.996   5.935   3.031
18193WAT     H154821   0.960   5.858   3.084
18193WAT     H254822   1.007   6.014   3.091
18194WAT      O54823   0.522   6.240   0.731
18194WAT     H154824   0.474   6.323   0.758
18194WAT     H254825   0.613   6.263   0.697
18195WAT      O54826   4.402   6.370   2.292
18195WAT     H154827   4.408   6.407   2.385
18195WAT     H254828   4.454   6.429   2.230
18196WAT      O54829   9.522   9.576   5.324
18196WAT     H154830   9.431   9.594   5.361
18196WAT     H254831   9.544   9.479   5.336
18197WAT      O54832   0.488   7.076   6.030
18197WAT     H154833   0.494   7.174   6.046
18197WAT     H254834   0.520   7.027   6.112
18198WAT      O54835   1.649   2.466   4.355
18198WAT     H154836   1.636   2.564   4.366
18198WAT     H254837   1.574   2.428   4.300
18199WAT      O54838   3.548   5.915   8.059
18199WAT     H154839   3.622   5.849   8.046
18199WAT     H254840   3.550   5.981   7.983
18200WAT      O54841   2.931   4.419   4.461
18200WAT     H154842   2.941   4.425   4.561
18200WAT     H254843   2.864   4.487   4.431
18201WAT      O54844   5.876   7.220   0.286
18201WAT     H154845   5.818   7.249   0.210
18201WAT     H254846   5.936   7.146   0.255
18202WAT      O54847   1.503   5.652   2.280
18202WAT     H154848   1.420   5.634   2.333
18202WAT     H254849   1.530   5.569   2.231
18203WAT      O54850   1.776   4.819   1.508
18203WAT     H154851   1.682   4.853   1.501
18203WAT     H254852   1.838   4.896   1.520
18204WAT      O54853   8.415   2.815   5.421
18204WAT     H154854   8.456   2.790   5.509
18204WAT     H254855   8.411   2.915   5.413
18205WAT      O54856   7.136   1.090   5.369
18205WAT     H154857   7.184   1.152   5.432
18205WAT     H254858   7.050   1.061   5.411
18206WAT      O54859   4.043   3.233   6.559
18206WAT     H154860   3.999   3.265   6.476
18206WAT     H254861   4.051   3.308   6.625
18207WAT      O54862   1.458   8.797   2.295
18207WAT     H154863   1.405   8.735   2.238
18207WAT     H254864   1.545   8.818   2.249
18208WAT      O54865   7.079   8.464   7.913
18208WAT     H154866   7.059   8.467   8.011
18208WAT     H254867   7.128   8.380   7.891
18209WAT      O54868   5.131   9.435   6.814
18209WAT     H154869   5.160   9.363   6.751
18209WAT     H254870   5.046   9.407   6.859
18210WAT      O54871   2.681   2.697   6.650
18210WAT     H154872   2.747   2.710   6.724
18210WAT     H254873   2.610   2.767   6.656
18211WAT      O54874   7.931   7.905   3.257
18211WAT     H154875   7.834   7.905   3.232
18211WAT     H254876   7.940   7.913   3.356
18212WAT      O54877   5.975   7.278   5.970
18212WAT     H154878   6.052   7.223   5.937
18212WAT     H254879   5.892   7.223   5.973
18213WAT      O54880   6.104   3.667   9.127
18213WAT     H154881   6.081   3.613   9.046
18213WAT     H254882   6.198   3.646   9.155
18214WAT      O54883   7.296   8.329   1.208
18214WAT     H154884   7.344   8.416   1.194
18214WAT     H254885   7.256   8.299   1.122
18215WAT      O54886   6.561   1.266   0.352
18215WAT     H154887   6.508   1.337   0.307
18215WAT     H254888   6.565   1.284   0.451
18216WAT      O54889   3.275   6.396   3.766
18216WAT     H154890   3.195   6.414   3.709
18216WAT     H254891   3.333   6.477   3.769
18217WAT      O54892   7.511   0.755   3.671
18217WAT     H154893   7.466   0.693   3.606
18217WAT     H254894   7.576   0.813   3.621
18218WAT      O54895   1.872   8.942   4.865
18218WAT     H154896   1.904   8.883   4.938
18218WAT     H254897   1.946   8.959   4.800
18219WAT      O54898   7.184   2.498   1.706
18219WAT     H154899   7.270   2.491   1.757
18219WAT     H254900   7.124   2.562   1.752
18220WAT      O54901   2.156   8.833   9.453
18220WAT     H154902   2.119   8.820   9.545
18220WAT     H254903   2.256   8.836   9.457
18221WAT      O54904   4.528   0.380   3.555
18221WAT     H154905   4.482   0.446   3.613
18221WAT     H254906   4.465   0.346   3.485
18222WAT      O54907   0.766   6.270   8.532
18222WAT     H154908   0.778   6.171   8.546
18222WAT     H254909   0.818   6.319   8.602
18223WAT      O54910   1.799   6.995   1.430
18223WAT     H154911   1.702   7.006   1.412
18223WAT     H254912   1.819   6.900   1.454
18224WAT      O54913   5.818   4.688   9.677
18224WAT     H154914   5.859   4.709   9.765
18224WAT     H254915   5.820   4.589   9.661
18225WAT      O54916   7.236   3.716   5.839
18225WAT     H154917   7.284   3.634   5.872
18225WAT     H254918   7.176   3.691   5.763
18226WAT      O54919   7.642   5.662   5.188
18226WAT     H154920   7.651   5.731   5.117
18226WAT     H254921   7.706   5.587   5.169
18227WAT      O54922   1.657   6.408   0.638
18227WAT     H154923   1.606   6.451   0.712
18227WAT     H254924   1.708   6.329   0.673
18228WAT      O54925   2.203   6.195   3.717
18228WAT     H154926   2.122   6.160   3.765
18228WAT     H254927   2.200   6.165   3.621
18229WAT      O54928   2.640   5.059   3.008
18229WAT     H154929   2.621   5.088   2.915
18229WAT     H254930   2.578   5.106   3.071
18230WAT      O54931   4.619   0.970   7.306
18230WAT     H154932   4.689   0.899   7.294
18230WAT     H254933   4.589   1.003   7.216
18231WAT      O54934   1.700   7.472   8.755
18231WAT     H154935   1.724   7.375   8.746
18231WAT     H254936   1.635   7.483   8.830
18232WAT      O54937   3.373   4.402   2.085
18232WAT     H154938   3.472   4.387   2.090
18232WAT     H254939   3.347   4.472   2.151
18233WAT      O54940   1.793   7.072   2.845
18233WAT     H154941   1.715   7.046   2.902
18233WAT     H254942   1.825   7.163   2.873
18234WAT      O54943   8.564   8.292   3.683
18234WAT     H154944   8.566   8.368   3.747
18234WAT     H254945   8.618   8.215   3.719
18235WAT      O54946   1.502   8.909   2.524
18235WAT     H154947   1.564   8.987   2.524
18235WAT     H254948   1.504   8.865   2.434
18236WAT      O54949   7.988   7.367   5.944
18236WAT     H154950   7.932   7.382   5.862
18236WAT     H254951   7.968   7.438   6.011
18237WAT      O54952   8.093   6.410   3.029
18237WAT     H154953   8.081   6.314   3.054
18237WAT     H254954   8.090   6.467   3.111
18238WAT      O54955   5.792   6.521   5.266
18238WAT     H154956   5.868   6.585   5.276
18238WAT     H254957   5.785   6.491   5.171
18239WAT      O54958   7.601   0.064   2.179
18239WAT     H154959   7.571   0.026   2.091
18239WAT     H254960   7.569   0.006   2.253
18240WAT      O54961   7.057   5.025   1.097
18240WAT     H154962   6.977   5.069   1.137
18240WAT     H254963   7.044   5.019   0.998
18241WAT      O54964   6.630   0.431   5.898
18241WAT     H154965   6.646   0.371   5.820
18241WAT     H254966   6.611   0.375   5.979
18242WAT      O54967   0.748   0.867   5.592
18242WAT     H154968   0.713   0.813   5.668
18242WAT     H254969   0.705   0.836   5.507
18243WAT      O54970   9.600   5.910   9.441
18243WAT     H154971   9.511   5.918   9.486
18243WAT     H254972   9.626   5.998   9.402
18244WAT      O54973   4.904   4.115   0.672
18244WAT     H154974   4.878   4.045   0.605
18244WAT     H254975   4.963   4.074   0.741
18245WAT      O54976   1.756   9.427   9.655
18245WAT     H154977   1.787   9.497   9.590
18245WAT     H254978   1.776   9.336   9.618
18246WAT      O54979   3.629   4.397   5.136
18246WAT     H154980   3.601   4.445   5.219
18246WAT     H254981   3.676   4.461   5.075
18247WAT      O54982   9.581   1.099   1.877
18247WAT     H154983   9.562   1.110   1.779
18247WAT     H254984   9.631   1.014   1.893
18248WAT      O54985   7.470   3.617   0.371
18248WAT     H154986   7.503   3.522   0.370
18248WAT     H254987   7.370   3.617   0.379
18249WAT      O54988   8.126   6.538   5.429
18249WAT     H154989   8.179   6.594   5.494
18249WAT     H254990   8.032   6.531   5.461
18250WAT      O54991   7.844   8.514   2.397
18250WAT     H154992   7.899   8.491   2.318
18250WAT     H254993   7.770   8.447   2.407
18251WAT      O54994   3.402   8.349   7.785
18251WAT     H154995   3.353   8.328   7.869
18251WAT     H254996   3.498   8.368   7.806
18252WAT      O54997   3.425   9.806   8.817
18252WAT     H154998   3.460   9.750   8.892
18252WAT     H254999   3.335   9.771   8.790
18253WAT      O55000   9.264   2.072   5.085
18253WAT     H155001   9.297   2.163   5.061
18253WAT     H255002   9.194   2.079   5.155
18254WAT      O55003   1.465   1.131   1.751
18254WAT     H155004   1.549   1.185   1.749
18254WAT     H255005   1.434   1.115   1.657
18255WAT      O55006   0.017   0.859   0.269
18255WAT     H155007   0.055   0.863   0.177
18255WAT     H255008   0.025   0.765   0.304
18256WAT      O55009   2.951   1.847   9.897
18256WAT     H155010   2.866   1.894   9.875
18256WAT     H255011   2.963   1.768   9.836
18257WAT      O55012   1.719   2.251   1.988
18257WAT     H155013   1.693   2.210   2.076
18257WAT     H255014   1.672   2.203   1.914
18258WAT      O55015   3.045   1.690   2.908
18258WAT     H155016   2.971   1.707   2.974
18258WAT     H255017   3.119   1.755   2.924
18259WAT      O55018   7.043   3.225   6.618
18259WAT     H155019   6.979   3.266   6.552
18259WAT     H255020   7.107   3.166   6.569
18260WAT      O55021   8.346   4.257   7.229
18260WAT     H155022   8.276   4.260   7.158
18260WAT     H255023   8.376   4.162   7.241
18261WAT      O55024   0.432   0.501   5.582
18261WAT     H155025   0.405   0.407   5.600
18261WAT     H255026   0.531   0.505   5.568
18262WAT      O55027   4.366   8.406   2.274
18262WAT     H155028   4.286   8.347   2.270
18262WAT     H255029   4.357   8.479   2.206
18263WAT      O55030   1.148   5.323   1.872
18263WAT     H155031   1.108   5.381   1.801
18263WAT     H255032   1.084   5.315   1.948
18264WAT      O55033   2.045   0.131   5.415
18264WAT     H155034   2.035   0.040   5.453
18264WAT     H255035   1.969   0.189   5.445
18265WAT      O55036   8.601   8.144   7.877
18265WAT     H155037   8.529   8.094   7.925
18265WAT     H255038   8.660   8.191   7.943
18266WAT      O55039   7.878   3.160   6.361
18266WAT     H155040   7.861   3.241   6.304
18266WAT     H255041   7.943   3.184   6.433
18267WAT      O55042   5.628   7.723   9.648
18267WAT     H155043   5.667   7.632   9.644
18267WAT     H255044   5.671   7.781   9.579
18268WAT      O55045   2.881   3.800   1.528
18268WAT     H155046   2.980   3.812   1.530
18268WAT     H255047   2.858   3.706   1.554
18269WAT      O55048   4.318   6.407   8.935
18269WAT     H155049   4.405   6.357   8.938
18269WAT     H255050   4.327   6.485   8.872
18270WAT      O55051   8.113   0.380   2.199
18270WAT     H155052   8.078   0.451   2.138
18270WAT     H255053   8.187   0.417   2.254
18271WAT      O55054   5.223   3.141   7.005
18271WAT     H155055   5.273   3.176   6.926
18271WAT     H255056   5.243   3.198   7.084
18272WAT      O55057   0.309   1.855   8.533
18272WAT     H155058   0.286   1.830   8.627
18272WAT     H255059   0.397   1.902   8.532
18273WAT      O55060   4.796   5.319   4.422
18273WAT     H155061   4.812   5.288   4.328
18273WAT     H255062   4.831   5.412   4.433
18274WAT      O55063   4.592   0.915   7.568
18274WAT     H155064   4.578   0.985   7.638
18274WAT     H255065   4.605   0.959   7.479
18275WAT      O55066   1.543   3.749   8.298
18275WAT     H155067   1.558   3.696   8.382
18275WAT     H255068   1.598   3.710   8.224
18276WAT      O55069   3.567   0.328   7.915
18276WAT     H155070   3.530   0.240   7.884
18276WAT     H255071   3.515   0.402   7.872
18277WAT      O55072   5.079   3.638   5.380
18277WAT     H155073   5.093   3.629   5.478
18277WAT     H255074   4.992   3.593   5.355
18278WAT      O55075   3.798   2.387   5.671
18278WAT     H155076   3.762   2.295   5.657
18278WAT     H255077   3.888   2.381   5.715
18279WAT      O55078   9.463   5.350   3.556
18279WAT     H155079   9.373   5.318   3.526
18279WAT     H255080   9.534   5.293   3.516
18280WAT      O55081   9.110   3.174   4.234
18280WAT     H155082   9.070   3.265   4.227
18280WAT     H255083   9.088   3.121   4.152
18281WAT      O55084   5.897   5.387   4.989
18281WAT     H155085   5.888   5.474   5.037
18281WAT     H255086   5.817   5.331   5.008
18282WAT      O55087   1.966   3.844   9.450
18282WAT     H155088   1.901   3.891   9.510
18282WAT     H255089   2.057   3.882   9.463
18283WAT      O55090   2.911   7.510   7.099
18283WAT     H155091   2.952   7.598   7.075
18283WAT     H255092   2.884   7.511   7.195
18284WAT      O55093   9.616   9.397   6.915
18284WAT     H155094   9.636   9.299   6.905
18284WAT     H255095   9.666   9.448   6.845
18285WAT      O55096   5.079   6.161   4.124
18285WAT     H155097   5.016   6.092   4.087
18285WAT     H255098   5.104   6.136   4.218
18286WAT      O55099   8.622   7.108   0.359
18286WAT     H155100   8.702   7.054   0.332
18286WAT     H255101   8.633   7.139   0.453
18287WAT      O55102   4.288   6.750   3.900
18287WAT     H155103   4.376   6.702   3.910
18287WAT     H255104   4.269   6.763   3.802
18288WAT      O55105   3.954   6.545   8.095
18288WAT     H155106   3.884   6.501   8.152
18288WAT     H255107   4.042   6.542   8.143
18289WAT      O55108   9.879   7.168   6.514
18289WAT     H155109   9.897   7.071   6.530
18289WAT     H255110   9.781   7.182   6.501
18290WAT      O55111   5.344   1.459   0.735
18290WAT     H155112   5.429   1.443   0.784
18290WAT     H255113   5.348   1.549   0.691
18291WAT      O55114   8.921   2.501   8.235
18291WAT     H155115   9.018   2.523   8.226
18291WAT     H255116   8.899   2.425   8.173
18292WAT      O55117   0.281   8.857   2.124
18292WAT     H155118   0.287   8.780   2.187
18292WAT     H255119   0.367   8.864   2.073
18293WAT      O55120   2.041   6.788   2.360
18293WAT     H155121   2.054   6.887   2.371
18293WAT     H255122   2.016   6.748   2.449
18294WAT      O55123   3.050   3.730   9.640
18294WAT     H155124   2.961   3.699   9.606
18294WAT     H255125   3.086   3.662   9.704
18295WAT      O55126   8.672   3.126   2.463
18295WAT     H155127   8.754   3.150   2.515
18295WAT     H255128   8.598   3.104   2.527
18296WAT      O55129   0.587   3.141   4.885
18296WAT     H155130   0.583   3.055   4.834
18296WAT     H255131   0.651   3.203   4.840
18297WAT      O55132   3.985   5.160   5.471
18297WAT     H155133   4.070   5.109   5.457
18297WAT     H255134   3.907   5.105   5.440
18298WAT      O55135   6.676   7.888   9.451
18298WAT     H155136   6.673   7.847   9.360
18298WAT     H255137   6.749   7.956   9.455
18299WAT      O55138   5.053   8.641   7.477
18299WAT     H155139   5.146   8.628   7.444
18299WAT     H255140   4.995   8.674   7.403
18300WAT      O55141   5.783   7.522   7.101
18300WAT     H155142   5.746   7.471   7.178
18300WAT     H255143   5.708   7.563   7.048
18301WAT      O55144   8.990   8.883   4.430
18301WAT     H155145   8.921   8.941   4.475
18301WAT     H255146   9.053   8.941   4.378
18302WAT      O55147   1.609   1.839   4.750
18302WAT     H155148   1.683   1.898   4.719
18302WAT     H255149   1.537   1.894   4.792
18303WAT      O55150   6.674   6.194   5.332
18303WAT     H155151   6.757   6.243   5.360
18303WAT     H255152   6.656   6.120   5.396
18304WAT      O55153   7.989   9.731   1.178
18304WAT     H155154   8.043   9.779   1.247
18304WAT     H255155   7.976   9.636   1.206
18305WAT      O55156   9.748   4.145   0.871
18305WAT     H155157   9.691   4.155   0.952
18305WAT     H255158   9.713   4.071   0.814
18306WAT      O55159   1.958   6.519   6.574
18306WAT     H155160   2.014   6.574   6.635
18306WAT     H255161   1.880   6.482   6.625
18307WAT      O55162   8.401   5.869   7.087
18307WAT     H155163   8.316   5.820   7.069
18307WAT     H255164   8.474   5.831   7.029
18308WAT      O55165   2.383   4.126   8.367
18308WAT     H155166   2.364   4.033   8.337
18308WAT     H255167   2.457   4.124   8.435
18309WAT      O55168   5.337   6.115   1.498
18309WAT     H155169   5.241   6.092   1.482
18309WAT     H255170   5.343   6.209   1.532
18310WAT      O55171   3.769   6.228   3.342
18310WAT     H155172   3.817   6.220   3.254
18310WAT     H255173   3.826   6.279   3.406
18311WAT      O55174   1.494   2.744   0.600
18311WAT     H155175   1.541   2.691   0.529
18311WAT     H255176   1.416   2.792   0.561
18312WAT      O55177   8.050   5.334   2.130
18312WAT     H155178   8.097   5.371   2.210
18312WAT     H255179   7.951   5.339   2.144
18313WAT      O55180   1.686   7.601   1.374
18313WAT     H155181   1.676   7.502   1.378
18313WAT     H255182   1.754   7.631   1.440
18314WAT      O55183   8.428   1.577   8.206
18314WAT     H155184   8.446   1.486   8.170
18314WAT     H255185   8.514   1.626   8.216
18315WAT      O55186   9.553   7.895   8.042
18315WAT     H155187   9.610   7.817   8.069
18315WAT     H255188   9.476   7.862   7.987
18316WAT      O55189   7.264   0.654   0.193
18316WAT     H155190   7.236   0.707   0.112
18316WAT     H255191   7.228   0.698   0.275
18317WAT      O55192   2.074   6.810   7.483
18317WAT     H155193   2.039   6.880   7.545
18317WAT     H255194   2.063   6.840   7.389
18318WAT      O55195   1.430   0.709   5.181
18318WAT     H155196   1.429   0.804   5.213
18318WAT     H255197   1.355   0.658   5.224
18319WAT      O55198   6.837   6.727   9.112
18319WAT     H155199   6.740   6.749   9.104
18319WAT     H255200   6.879   6.725   9.022
18320WAT      O55201   7.172   7.428   7.271
18320WAT     H155202   7.175   7.497   7.343
18320WAT     H255203   7.243   7.359   7.287
18321WAT      O55204   7.424   8.789   1.831
18321WAT     H155205   7.523   8.807   1.840
18321WAT     H255206   7.394   8.820   1.741
18322WAT      O55207   6.066   0.791   3.655
18322WAT     H155208   6.019   0.849   3.721
18322WAT     H255209   6.072   0.698   3.690
18323WAT      O55210   7.116   3.995   6.881
18323WAT     H155211   7.076   3.917   6.833
18323WAT     H255212   7.216   3.991   6.872
18324WAT      O55213   8.874   7.708   7.947
18324WAT     H155214   8.781   7.730   7.919
18324WAT     H255215   8.932   7.703   7.866
18325WAT      O55216   5.413   5.765   5.492
18325WAT     H155217   5.414   5.672   5.527
18325WAT     H255218   5.475   5.822   5.547
18326WAT      O55219   9.554   6.294   6.382
18326WAT     H155220   9.504   6.363   6.435
18326WAT     H255221   9.561   6.324   6.287
18327WAT      O55222   9.185   2.198   8.339
18327WAT     H155223   9.235   2.262   8.397
18327WAT     H255224   9.127   2.139   8.396
18328WAT      O55225   2.116   1.090   5.730
18328WAT     H155226   2.099   1.017   5.796
18328WAT     H255227   2.073   1.175   5.762
18329WAT      O55228   1.270   1.444   5.656
18329WAT     H155229   1.356   1.430   5.606
18329WAT     H255230   1.209   1.366   5.639
18330WAT      O55231   2.560   2.577   7.296
18330WAT     H155232   2.518   2.493   7.331
18330WAT     H255233   2.644   2.554   7.246
18331WAT      O55234   6.851   6.043   3.791
18331WAT     H155235   6.854   6.056   3.890
18331WAT     H255236   6.870   5.947   3.769
18332WAT      O55237   7.976   4.284   3.190
18332WAT     H155238   7.980   4.310   3.094
18332WAT     H255239   8.026   4.351   3.245
18333WAT      O55240   6.437   3.308   5.534
18333WAT     H155241   6.471   3.336   5.624
18333WAT     H255242   6.341   3.334   5.525
18334WAT      O55243   6.898   3.771   5.870
18334WAT     H155244   6.830   3.824   5.819
18334WAT     H255245   6.906   3.807   5.962
18335WAT      O55246   4.907   7.733   5.215
18335WAT     H155247   4.950   7.668   5.152
18335WAT     H255248   4.839   7.685   5.270
18336WAT      O55249   5.117   8.637   8.996
18336WAT     H155250   5.152   8.693   9.071
18336WAT     H255251   5.170   8.654   8.914
18337WAT      O55252   7.417   5.943   8.880
18337WAT     H155253   7.443   5.976   8.789
18337WAT     H255254   7.372   5.854   8.872
18338WAT      O55255   3.957   7.068   8.268
18338WAT     H155256   4.012   6.999   8.222
18338WAT     H255257   4.017   7.137   8.308
18339WAT      O55258   8.511   2.859   3.871
18339WAT     H155259   8.414   2.838   3.854
18339WAT     H255260   8.526   2.865   3.970
18340WAT      O55261   3.377   5.494   0.725
18340WAT     H155262   3.295   5.499   0.668
18340WAT     H255263   3.353   5.511   0.820
18341WAT      O55264   8.505   9.378   3.449
18341WAT     H155265   8.408   9.383   3.427
18341WAT     H255266   8.526   9.288   3.488
18342WAT      O55267   2.711   8.074   2.215
18342WAT     H155268   2.679   8.165   2.188
18342WAT     H255269   2.806   8.079   2.243
18343WAT      O55270   7.711   3.670   4.251
18343WAT     H155271   7.724   3.572   4.232
18343WAT     H255272   7.618   3.685   4.284
18344WAT      O55273   6.722   8.537   4.095
18344WAT     H155274   6.804   8.588   4.070
18344WAT     H255275   6.647   8.601   4.113
18345WAT      O55276   2.184   9.059   3.218
18345WAT     H155277   2.224   8.986   3.274
18345WAT     H255278   2.202   9.040   3.121
18346WAT      O55279   7.118   5.339   0.219
18346WAT     H155280   7.196   5.339   0.283
18346WAT     H255281   7.072   5.250   0.224
18347WAT      O55282   3.869   3.681   0.794
18347WAT     H155283   3.910   3.719   0.711
18347WAT     H255284   3.885   3.743   0.871
18348WAT      O55285   6.501   6.693   2.636
18348WAT     H155286   6.432   6.691   2.709
18348WAT     H255287   6.465   6.744   2.558
18349WAT      O55288   5.611   9.338   6.788
18349WAT     H155289   5.707   9.332   6.817
18349WAT     H255290   5.556   9.376   6.863
18350WAT      O55291   7.604   1.244   1.107
18350WAT     H155292   7.607   1.144   1.116
18350WAT     H255293   7.516   1.278   1.141
18351WAT      O55294   6.694   9.293   2.472
18351WAT     H155295   6.637   9.365   2.511
18351WAT     H255296   6.682   9.209   2.525
18352WAT      O55297   1.931   9.206   3.763
18352WAT     H155298   1.887   9.193   3.675
18352WAT     H255299   2.008   9.269   3.754
18353WAT      O55300   8.830   7.326   6.308
18353WAT     H155301   8.881   7.249   6.268
18353WAT     H255302   8.832   7.319   6.408
18354WAT      O55303   0.265   9.145   4.364
18354WAT     H155304   0.336   9.144   4.435
18354WAT     H255305   0.303   9.112   4.278
18355WAT      O55306   0.241   2.524   6.999
18355WAT     H155307   0.300   2.584   7.052
18355WAT     H255308   0.228   2.438   7.048
18356WAT      O55309   6.113   9.168   3.588
18356WAT     H155310   6.117   9.265   3.611
18356WAT     H255311   6.206   9.134   3.573
18357WAT      O55312   7.076   7.094   5.413
18357WAT     H155313   7.053   7.084   5.316
18357WAT     H255314   7.011   7.157   5.455
18358WAT      O55315   6.122   6.017   3.752
18358WAT     H155316   6.185   6.016   3.674
18358WAT     H255317   6.061   5.938   3.746
18359WAT      O55318   7.683   9.315   4.157
18359WAT     H155319   7.678   9.389   4.089
18359WAT     H255320   7.639   9.345   4.242
18360WAT      O55321   7.932   2.817   0.217
18360WAT     H155322   7.959   2.733   0.169
18360WAT     H255323   8.014   2.870   0.239
18361WAT      O55324   0.425   2.034   2.713
18361WAT     H155325   0.328   2.011   2.722
18361WAT     H255326   0.480   1.963   2.757
18362WAT      O55327   8.732   9.491   0.222
18362WAT     H155328   8.730   9.584   0.187
18362WAT     H255329   8.641   9.449   0.211
18363WAT      O55330   1.942   7.013   7.567
18363WAT     H155331   1.866   6.977   7.513
18363WAT     H255332   1.909   7.038   7.659
18364WAT      O55333   8.803   5.327   7.235
18364WAT     H155334   8.826   5.336   7.138
18364WAT     H255335   8.729   5.261   7.246
18365WAT      O55336   5.983   1.691   4.322
18365WAT     H155337   6.005   1.785   4.297
18365WAT     H255338   5.888   1.686   4.352
18366WAT      O55339   1.286   5.821   0.965
18366WAT     H155340   1.378   5.849   0.992
18366WAT     H255341   1.263   5.735   1.010
18367WAT      O55342   6.051   0.477   0.122
18367WAT     H155343   6.055   0.576   0.137
18367WAT     H255344   6.142   0.445   0.093
18368WAT      O55345   6.657   8.188   8.465
18368WAT     H155346   6.649   8.103   8.411
18368WAT     H255347   6.669   8.265   8.403
18369WAT      O55348   6.231   7.547   1.563
18369WAT     H155349   6.182   7.534   1.649
18369WAT     H255350   6.200   7.479   1.496
18370WAT      O55351   1.703   5.699   5.765
18370WAT     H155352   1.745   5.733   5.849
18370WAT     H255353   1.774   5.664   5.704
18371WAT      O55354   5.040   0.014   6.416
18371WAT     H155355   5.131  -0.011   6.382
18371WAT     H255356   5.032  -0.010   6.513
18372WAT      O55357   4.710   6.215   1.926
18372WAT     H155358   4.624   6.249   1.889
18372WAT     H255359   4.728   6.258   2.014
18373WAT      O55360   4.715   7.627   2.441
18373WAT     H155361   4.776   7.577   2.380
18373WAT     H255362   4.669   7.563   2.502
18374WAT      O55363   6.640   5.627   2.614
18374WAT     H155364   6.561   5.683   2.639
18374WAT     H255365   6.645   5.548   2.675
18375WAT      O55366   0.256   4.749   6.728
18375WAT     H155367   0.253   4.725   6.631
18375WAT     H255368   0.250   4.665   6.782
18376WAT      O55369   2.768   3.588   4.582
18376WAT     H155370   2.794   3.576   4.678
18376WAT     H255371   2.837   3.644   4.536
18377WAT      O55372   6.839   2.922   8.986
18377WAT     H155373   6.829   2.995   8.919
18377WAT     H255374   6.753   2.909   9.035
18378WAT      O55375   6.452   3.115   8.167
18378WAT     H155376   6.370   3.112   8.110
18378WAT     H255377   6.445   3.191   8.232
18379WAT      O55378   6.339   8.163   7.428
18379WAT     H155379   6.358   8.194   7.521
18379WAT     H255380   6.344   8.241   7.365
18380WAT      O55381   4.715   5.889   1.096
18380WAT     H155382   4.728   5.877   0.997
18380WAT     H255383   4.632   5.943   1.112
18381WAT      O55384   8.788   8.712   9.069
18381WAT     H155385   8.770   8.774   8.992
18381WAT     H255386   8.722   8.637   9.067
18382WAT      O55387   8.743   1.485   5.366
18382WAT     H155388   8.807   1.555   5.399
18382WAT     H255389   8.664   1.481   5.426
18383WAT      O55390   4.821   4.922   0.988
18383WAT     H155391   4.878   4.964   0.918
18383WAT     H255392   4.880   4.882   1.059
18384WAT      O55393   6.817   8.715   4.989
18384WAT     H155394   6.911   8.687   5.012
18384WAT     H255395   6.820   8.801   4.939
18385WAT      O55396   1.263   5.439   5.959
18385WAT     H155397   1.247   5.437   5.861
18385WAT     H255398   1.321   5.362   5.985
18386WAT      O55399   0.727   7.577   0.454
18386WAT     H155400   0.732   7.480   0.430
18386WAT     H255401   0.794   7.598   0.524
18387WAT      O55402   5.050   1.987   8.927
18387WAT     H155403   5.137   2.012   8.970
18387WAT     H255404   5.028   2.052   8.855
18388WAT      O55405   2.459   5.252   6.363
18388WAT     H155406   2.430   5.343   6.394
18388WAT     H255407   2.554   5.257   6.332
18389WAT      O55408   2.253   5.051   5.273
18389WAT     H155409   2.246   5.147   5.244
18389WAT     H255410   2.350   5.025   5.279
18390WAT      O55411   3.505   7.507   8.111
18390WAT     H155412   3.510   7.410   8.133
18390WAT     H255413   3.512   7.561   8.196
18391WAT      O55414   3.873   1.349   7.986
18391WAT     H155415   3.931   1.429   7.972
18391WAT     H255416   3.927   1.266   7.971
18392WAT      O55417   5.490   9.463   4.475
18392WAT     H155418   5.577   9.511   4.483
18392WAT     H255419   5.415   9.528   4.487
18393WAT      O55420   9.302   6.382   9.291
18393WAT     H155421   9.247   6.299   9.285
18393WAT     H255422   9.252   6.459   9.253
18394WAT      O55423   0.480   0.245   6.677
18394WAT     H155424   0.433   0.158   6.666
18394WAT     H255425   0.479   0.296   6.591
18395WAT      O55426   0.439   4.086   8.544
18395WAT     H155427   0.371   4.017   8.518
18395WAT     H255428   0.496   4.051   8.617
18396WAT      O55429   1.695   8.541   4.806
18396WAT     H155430   1.748   8.579   4.882
18396WAT     H255431   1.709   8.597   4.724
18397WAT      O55432   3.748   6.840   0.371
18397WAT     H155433   3.686   6.918   0.376
18397WAT     H255434   3.774   6.811   0.464
18398WAT      O55435   8.600   8.871   6.628
18398WAT     H155436   8.604   8.859   6.529
18398WAT     H255437   8.675   8.820   6.671
18399WAT      O55438   9.318   5.161   9.265
18399WAT     H155439   9.300   5.259   9.264
18399WAT     H255440   9.259   5.115   9.200
18400WAT      O55441   4.847   8.456   6.515
18400WAT     H155442   4.754   8.432   6.542
18400WAT     H255443   4.907   8.453   6.594
18401WAT      O55444   4.687   9.265   0.930
18401WAT     H155445   4.646   9.341   0.981
18401WAT     H255446   4.786   9.277   0.928
18402WAT      O55447   3.920   5.358   5.188
18402WAT     H155448   3.912   5.450   5.150
18402WAT     H255449   3.987   5.359   5.262
18403WAT      O55450   0.555   9.307   1.255
18403WAT     H155451   0.630   9.277   1.195
18403WAT     H255452   0.586   9.383   1.312
18404WAT      O55453   1.507   5.177   5.184
18404WAT     H155454   1.452   5.141   5.259
18404WAT     H255455   1.539   5.269   5.207
18405WAT      O55456   3.703   7.455   1.178
18405WAT     H155457   3.711   7.358   1.155
18405WAT     H255458   3.612   7.473   1.214
18406WAT      O55459   1.286   0.368   1.396
18406WAT     H155460   1.252   0.462   1.394
18406WAT     H255461   1.339   0.351   1.313
18407WAT      O55462   2.484   6.801   6.477
18407WAT     H155463   2.525   6.801   6.569
18407WAT     H255464   2.450   6.892   6.456
18408WAT      O55465   5.919   0.306   9.164
18408WAT     H155466   5.968   0.295   9.077
18408WAT     H255467   5.824   0.332   9.145
18409WAT      O55468   0.684   4.093   4.261
18409WAT     H155469   0.656   4.035   4.184
18409WAT     H255470   0.602   4.126   4.309
18410WAT      O55471   3.077   0.598   7.778
18410WAT     H155472   3.079   0.530   7.705
18410WAT     H255473   3.093   0.689   7.738
18411WAT      O55474   7.318   9.663   3.762
18411WAT     H155475   7.361   9.747   3.796
18411WAT     H255476   7.345   9.648   3.667
18412WAT      O55477   7.029   5.966   8.633
18412WAT     H155478   7.109   5.943   8.578
18412WAT     H255479   7.035   6.061   8.663
18413WAT      O55480   0.072   3.068   8.928
18413WAT     H155481   0.149   3.019   8.968
18413WAT     H255482   0.037   3.136   8.993
18414WAT      O55483   9.509   3.980   4.982
18414WAT     H155484   9.455   4.040   4.924
18414WAT     H255485   9.499   4.007   5.077
18415WAT      O55486   5.210   2.692   9.071
18415WAT     H155487   5.264   2.664   9.151
18415WAT     H255488   5.183   2.610   9.020
18416WAT      O55489   1.118   3.817   0.961
18416WAT     H155490   1.078   3.727   0.976
18416WAT     H255491   1.164   3.820   0.872
18417WAT      O55492   7.579   0.117   5.998
18417WAT     H155493   7.583   0.102   6.097
18417WAT     H255494   7.625   0.042   5.951
18418WAT      O55495   3.503   1.755   6.565
18418WAT     H155496   3.550   1.702   6.494
18418WAT     H255497   3.549   1.740   6.653
18419WAT      O55498   6.286   5.728   4.090
18419WAT     H155499   6.206   5.756   4.142
18419WAT     H255500   6.336   5.810   4.059
18420WAT      O55501   3.021   0.116   8.691
18420WAT     H155502   3.048   0.134   8.597
18420WAT     H255503   3.010   0.203   8.739
18421WAT      O55504   0.906   4.685   1.229
18421WAT     H155505   0.915   4.777   1.191
18421WAT     H255506   0.947   4.682   1.320
18422WAT      O55507   4.181   4.069   0.453
18422WAT     H155508   4.182   4.017   0.537
18422WAT     H255509   4.219   4.014   0.379
18423WAT      O55510   8.826   7.299   0.785
18423WAT     H155511   8.859   7.236   0.855
18423WAT     H255512   8.843   7.393   0.813
18424WAT      O55513   3.657   0.627   5.776
18424WAT     H155514   3.739   0.622   5.832
18424WAT     H255515   3.580   0.660   5.831
18425WAT      O55516   6.542   6.600   1.298
18425WAT     H155517   6.587   6.572   1.383
18425WAT     H255518   6.443   6.605   1.313
18426WAT      O55519   9.066   7.979   1.975
18426WAT     H155520   9.104   7.905   2.031
18426WAT     H255521   9.105   7.974   1.883
18427WAT      O55522   9.309   4.136   6.457
18427WAT     H155523   9.334   4.152   6.361
18427WAT     H255524   9.272   4.221   6.496
18428WAT      O55525   5.161   6.259   7.261
18428WAT     H155526   5.201   6.350   7.254
18428WAT     H255527   5.145   6.222   7.169
18429WAT      O55528   9.235   1.402   7.501
18429WAT     H155529   9.328   1.379   7.470
18429WAT     H255530   9.168   1.360   7.440
18430WAT      O55531   2.908   0.030   0.698
18430WAT     H155532   2.941   0.119   0.731
18430WAT     H255533   2.879   0.039   0.603
18431WAT      O55534   0.196   8.220   0.806
18431WAT     H155535   0.265   8.283   0.843
18431WAT     H255536   0.105   8.260   0.815
18432WAT      O55537   2.165   0.484   1.167
18432WAT     H155538   2.229   0.558   1.148
18432WAT     H255539   2.213   0.408   1.210
18433WAT      O55540   5.931   8.591   2.881
18433WAT     H155541   6.002   8.658   2.903
18433WAT     H255542   5.842   8.637   2.880
18434WAT      O55543   9.118   2.165   8.070
18434WAT     H155544   9.133   2.188   8.166
18434WAT     H255545   9.200   2.120   8.033
18435WAT      O55546   4.259   3.054   6.572
18435WAT     H155547   4.345   3.102   6.558
18435WAT     H255548   4.185   3.121   6.579
18436WAT      O55549   1.490   1.695   8.643
18436WAT     H155550   1.448   1.733   8.560
18436WAT     H255551   1.476   1.759   8.719
18437WAT      O55552   4.138   7.509   0.021
18437WAT     H155553   4.224   7.519  -0.029
18437WAT     H255554   4.091   7.597   0.024
18438WAT      O55555   4.938   9.544   3.049
18438WAT     H155556   4.865   9.553   3.117
18438WAT     H255557   4.914   9.472   2.984
18439WAT      O55558   2.774   1.210   7.938
18439WAT     H155559   2.736   1.302   7.938
18439WAT     H255560   2.860   1.208   7.989
18440WAT      O55561   5.142   5.147   2.348
18440WAT     H155562   5.185   5.063   2.378
18440WAT     H255563   5.091   5.189   2.424
18441WAT      O55564   4.170   3.337   1.547
18441WAT     H155565   4.252   3.367   1.596
18441WAT     H255566   4.188   3.336   1.449
18442WAT      O55567   0.145   2.295   7.125
18442WAT     H155568   0.158   2.226   7.053
18442WAT     H255569   0.095   2.254   7.201
18443WAT      O55570   9.102   4.001   2.458
18443WAT     H155571   9.155   4.049   2.527
18443WAT     H255572   9.130   4.031   2.367
18444WAT      O55573   9.793   9.537   6.581
18444WAT     H155574   9.859   9.559   6.510
18444WAT     H255575   9.836   9.544   6.670
18445WAT      O55576   1.623   0.945   2.204
18445WAT     H155577   1.572   0.966   2.120
18445WAT     H255578   1.629   1.028   2.260
18446WAT      O55579   2.021   0.683   5.969
18446WAT     H155580   2.006   0.611   5.902
18446WAT     H255581   2.058   0.644   6.053
18447WAT      O55582   3.551   6.454   8.626
18447WAT     H155583   3.647   6.430   8.640
18447WAT     H255584   3.542   6.504   8.540
18448WAT      O55585   1.678   1.142   3.261
18448WAT     H155586   1.626   1.109   3.339
18448WAT     H255587   1.699   1.239   3.273
18449WAT      O55588   2.462   5.377   4.812
18449WAT     H155589   2.397   5.342   4.880
18449WAT     H255590   2.533   5.309   4.795
18450WAT      O55591   0.852   5.403   7.710
18450WAT     H155592   0.851   5.355   7.798
18450WAT     H255593   0.845   5.337   7.635
18451WAT      O55594   6.986   2.002   3.496
18451WAT     H155595   6.893   2.005   3.459
18451WAT     H255596   7.033   2.087   3.474
18452WAT      O55597   2.225   0.506   3.803
18452WAT     H155598   2.296   0.449   3.844
18452WAT     H255599   2.140   0.496   3.855
18453WAT      O55600   8.428   2.687   9.628
18453WAT     H155601   8.425   2.787   9.636
18453WAT     H255602   8.346   2.655   9.582
18454WAT      O55603   7.184   5.587   4.974
18454WAT     H155604   7.240   5.624   4.900
18454WAT     H255605   7.088   5.585   4.946
18455WAT      O55606   1.416   9.554   8.078
18455WAT     H155607   1.392   9.609   8.159
18455WAT     H255608   1.508   9.577   8.048
18456WAT      O55609   7.036   0.990   3.953
18456WAT     H155610   6.957   1.046   3.930
18456WAT     H255611   7.033   0.969   4.051
18457WAT      O55612   7.853   3.476   6.561
18457WAT     H155613   7.919   3.416   6.516
18457WAT     H255614   7.787   3.510   6.493
18458WAT      O55615   3.324   4.531   0.387
18458WAT     H155616   3.412   4.529   0.339
18458WAT     H255617   3.268   4.604   0.350
18459WAT      O55618   7.793   8.836   9.403
18459WAT     H155619   7.752   8.802   9.318
18459WAT     H255620   7.751   8.791   9.481
18460WAT      O55621   5.035   1.209   6.579
18460WAT     H155622   4.972   1.222   6.503
18460WAT     H255623   5.045   1.111   6.597
18461WAT      O55624   0.192   7.410   0.641
18461WAT     H155625   0.151   7.326   0.606
18461WAT     H255626   0.291   7.402   0.639
18462WAT      O55627   9.729   8.012   8.614
18462WAT     H155628   9.824   8.042   8.619
18462WAT     H255629   9.697   8.018   8.520
18463WAT      O55630   8.597   3.084   8.116
18463WAT     H155631   8.613   3.060   8.212
18463WAT     H255632   8.680   3.068   8.063
18464WAT      O55633   9.366   6.086   6.225
18464WAT     H155634   9.267   6.093   6.221
18464WAT     H255635   9.405   6.174   6.252
18465WAT      O55636   8.819   9.028   9.185
18465WAT     H155637   8.904   9.034   9.132
18465WAT     H255638   8.795   9.119   9.220
18466WAT      O55639   6.922   7.436   9.858
18466WAT     H155640   6.851   7.489   9.813
18466WAT     H255641   7.000   7.425   9.796
18467WAT      O55642   6.572   1.004   0.285
18467WAT     H155643   6.585   1.091   0.332
18467WAT     H255644   6.631   0.935   0.327
18468WAT      O55645   6.919   8.539   1.044
18468WAT     H155646   6.917   8.483   0.962
18468WAT     H255647   6.840   8.600   1.045
18469WAT      O55648   0.888   9.637   6.993
18469WAT     H155649   0.796   9.603   7.010
18469WAT     H255650   0.942   9.633   7.078
18470WAT      O55651   4.669   0.472   7.932
18470WAT     H155652   4.686   0.498   8.028
18470WAT     H255653   4.757   0.460   7.885
18471WAT      O55654   9.243   2.515   2.905
18471WAT     H155655   9.252   2.566   2.991
18471WAT     H255656   9.165   2.551   2.853
18472WAT      O55657   8.544   2.747   5.655
18472WAT     H155658   8.600   2.665   5.661
18472WAT     H255659   8.474   2.746   5.727
18473WAT      O55660   8.357   3.230   2.936
18473WAT     H155661   8.262   3.250   2.962
18473WAT     H255662   8.377   3.272   2.848
18474WAT      O55663   3.090   7.235   3.732
18474WAT     H155664   3.182   7.198   3.716
18474WAT     H255665   3.098   7.327   3.771
18475WAT      O55666   6.163   4.463   1.216
18475WAT     H155667   6.191   4.505   1.303
18475WAT     H255668   6.214   4.378   1.202
18476WAT      O55669   3.929   7.182   1.435
18476WAT     H155670   3.868   7.152   1.362
18476WAT     H255671   3.910   7.129   1.518
18477WAT      O55672   8.882   2.601   0.959
18477WAT     H155673   8.864   2.503   0.969
18477WAT     H255674   8.974   2.622   0.992
18478WAT      O55675   3.915   8.044   9.789
18478WAT     H155676   3.876   8.076   9.875
18478WAT     H255677   3.850   8.064   9.714
18479WAT      O55678   6.659   2.997   0.608
18479WAT     H155679   6.751   2.984   0.571
18479WAT     H255680   6.592   2.990   0.534
18480WAT      O55681   8.250   9.561   9.650
18480WAT     H155682   8.210   9.648   9.623
18480WAT     H255683   8.332   9.577   9.704
18481WAT      O55684   6.412   1.368   0.133
18481WAT     H155685   6.397   1.464   0.158
18481WAT     H255686   6.434   1.362   0.036
18482WAT      O55687   7.853   7.280   6.243
18482WAT     H155688   7.855   7.377   6.220
18482WAT     H255689   7.929   7.233   6.197
18483WAT      O55690   1.911   5.452   2.309
18483WAT     H155691   1.919   5.475   2.406
18483WAT     H255692   1.980   5.383   2.285
18484WAT      O55693   3.836   1.043   5.772
18484WAT     H155694   3.791   1.048   5.862
18484WAT     H255695   3.882   0.955   5.763
18485WAT      O55696   6.652   7.584   6.136
18485WAT     H155697   6.660   7.667   6.191
18485WAT     H255698   6.592   7.601   6.058
18486WAT      O55699   7.981   1.493   0.704
18486WAT     H155700   7.954   1.398   0.692
18486WAT     H255701   7.947   1.528   0.791
18487WAT      O55702   4.185   7.525   3.319
18487WAT     H155703   4.154   7.604   3.372
18487WAT     H255704   4.285   7.524   3.315
18488WAT      O55705   4.647   1.638   0.648
18488WAT     H155706   4.619   1.718   0.595
18488WAT     H255707   4.585   1.562   0.630
18489WAT      O55708   5.328   2.488   2.227
18489WAT     H155709   5.371   2.562   2.278
18489WAT     H255710   5.312   2.410   2.287
18490WAT      O55711   9.750   0.776   8.069
18490WAT     H155712   9.843   0.751   8.041
18490WAT     H255713   9.733   0.872   8.047
18491WAT      O55714   0.770   3.675   2.179
18491WAT     H155715   0.708   3.643   2.252
18491WAT     H255716   0.845   3.610   2.168
18492WAT      O55717   8.070   8.106   3.085
18492WAT     H155718   8.047   8.093   2.988
18492WAT     H255719   8.140   8.040   3.111
18493WAT      O55720   6.479   5.043   1.717
18493WAT     H155721   6.549   4.979   1.748
18493WAT     H255722   6.419   4.998   1.650
18494WAT      O55723   3.889   9.025   7.643
18494WAT     H155724   3.892   9.094   7.715
18494WAT     H255725   3.868   9.069   7.556
18495WAT      O55726   9.411   8.495   8.601
18495WAT     H155727   9.438   8.417   8.658
18495WAT     H255728   9.489   8.523   8.545
18496WAT      O55729   9.345   4.724   7.112
18496WAT     H155730   9.249   4.719   7.085
18496WAT     H255731   9.366   4.816   7.145
18497WAT      O55732   7.713   4.995   8.782
18497WAT     H155733   7.761   5.012   8.696
18497WAT     H255734   7.749   4.912   8.825
18498WAT      O55735   7.130   3.925   0.532
18498WAT     H155736   7.195   3.947   0.605
18498WAT     H255737   7.050   3.985   0.540
18499WAT      O55738   6.313   7.428   4.978
18499WAT     H155739   6.405   7.461   5.000
18499WAT     H255740   6.320   7.336   4.939
18500WAT      O55741   1.272   8.639   8.089
18500WAT     H155742   1.338   8.579   8.044
18500WAT     H255743   1.179   8.604   8.075
18501WAT      O55744   5.440   9.590   8.276
18501WAT     H155745   5.536   9.563   8.262
18501WAT     H255746   5.383   9.552   8.204
18502WAT      O55747   6.118   6.773   1.800
18502WAT     H155748   6.181   6.761   1.723
18502WAT     H255749   6.084   6.684   1.829
18503WAT      O55750   8.844   2.720   7.145
18503WAT     H155751   8.756   2.693   7.104
18503WAT     H255752   8.879   2.645   7.201
18504WAT      O55753   1.260   6.007   5.305
18504WAT     H155754   1.224   6.028   5.214
18504WAT     H255755   1.196   5.946   5.352
18505WAT      O55756   3.066   3.797   1.891
18505WAT     H155757   3.086   3.799   1.793
18505WAT     H255758   3.141   3.753   1.939
18506WAT      O55759   8.967   2.129   0.112
18506WAT     H155760   8.910   2.049   0.128
18506WAT     H255761   9.062   2.107   0.131
18507WAT      O55762   3.310   3.148   9.855
18507WAT     H155763   3.242   3.081   9.826
18507WAT     H255764   3.267   3.214   9.917
18508WAT      O55765   4.690   6.524   0.930
18508WAT     H155766   4.599   6.485   0.913
18508WAT     H255767   4.752   6.452   0.962
18509WAT      O55768   0.763   3.637   8.460
18509WAT     H155769   0.845   3.678   8.419
18509WAT     H255770   0.682   3.687   8.431
18510WAT      O55771   0.834   7.690   9.615
18510WAT     H155772   0.778   7.699   9.532
18510WAT     H255773   0.821   7.770   9.673
18511WAT      O55774   8.600   2.728   6.399
18511WAT     H155775   8.616   2.632   6.421
18511WAT     H255776   8.611   2.741   6.300
18512WAT      O55777   2.193   7.430   0.069
18512WAT     H155778   2.129   7.494   0.112
18512WAT     H255779   2.227   7.366   0.138
18513WAT      O55780   8.277   3.440   8.098
18513WAT     H155781   8.218   3.398   8.167
18513WAT     H255782   8.349   3.492   8.144
18514WAT      O55783   1.921   5.192   0.737
18514WAT     H155784   1.962   5.268   0.789
18514WAT     H255785   1.822   5.204   0.733
18515WAT      O55786   0.598   6.750   3.388
18515WAT     H155787   0.571   6.654   3.383
18515WAT     H255788   0.540   6.797   3.454
18516WAT      O55789   1.901   3.825   9.201
18516WAT     H155790   1.941   3.833   9.292
18516WAT     H255791   1.804   3.848   9.204
18517WAT      O55792   2.165   1.647   7.881
18517WAT     H155793   2.072   1.682   7.869
18517WAT     H255794   2.209   1.637   7.791
18518WAT      O55795   3.529   7.612   5.445
18518WAT     H155796   3.618   7.623   5.399
18518WAT     H255797   3.536   7.539   5.513
18519WAT      O55798   3.957   7.796   2.208
18519WAT     H155799   4.049   7.830   2.229
18519WAT     H255800   3.961   7.739   2.127
18520WAT      O55801   7.995   3.946   0.329
18520WAT     H155802   8.059   4.023   0.322
18520WAT     H255803   8.047   3.861   0.338
18521WAT      O55804   2.725   8.989   8.410
18521WAT     H155805   2.632   8.953   8.401
18521WAT     H255806   2.723   9.088   8.410
18522WAT      O55807   2.069   6.343   5.701
18522WAT     H155808   2.145   6.406   5.686
18522WAT     H255809   2.086   6.258   5.650
18523WAT      O55810   0.882   7.835   9.215
18523WAT     H155811   0.821   7.847   9.137
18523WAT     H255812   0.905   7.924   9.253
18524WAT      O55813   1.961   0.865   3.734
18524WAT     H155814   1.923   0.773   3.726
18524WAT     H255815   2.009   0.874   3.821
18525WAT      O55816   6.778   4.670   8.929
18525WAT     H155817   6.793   4.723   9.012
18525WAT     H255818   6.733   4.728   8.861
18526WAT      O55819   1.997   8.079   2.849
18526WAT     H155820   1.990   8.017   2.928
18526WAT     H255821   2.017   8.171   2.881
18527WAT      O55822   1.642   3.009   4.732
18527WAT     H155823   1.645   2.969   4.824
18527WAT     H255824   1.555   3.058   4.720
18528WAT      O55825   9.143   8.732   3.443
18528WAT     H155826   9.181   8.650   3.400
18528WAT     H255827   9.103   8.707   3.531
18529WAT      O55828   6.251   2.171   8.248
18529WAT     H155829   6.315   2.240   8.285
18529WAT     H255830   6.201   2.210   8.171
18530WAT      O55831   5.642   2.440   3.464
18530WAT     H155832   5.725   2.443   3.519
18530WAT     H255833   5.656   2.380   3.385
18531WAT      O55834   4.004   4.952   6.074
18531WAT     H155835   3.995   5.040   6.028
18531WAT     H255836   4.030   4.968   6.170
18532WAT      O55837   2.120   7.786   6.830
18532WAT     H155838   2.066   7.818   6.908
18532WAT     H255839   2.216   7.782   6.855
18533WAT      O55840   5.435   4.383   5.464
18533WAT     H155841   5.447   4.286   5.444
18533WAT     H255842   5.525   4.426   5.475
18534WAT      O55843   8.081   2.410   8.309
18534WAT     H155844   8.163   2.354   8.314
18534WAT     H255845   8.060   2.447   8.399
18535WAT      O55846   3.354   3.039   1.208
18535WAT     H155847   3.335   3.106   1.135
18535WAT     H255848   3.345   2.947   1.171
18536WAT      O55849   4.483   0.163   3.712
18536WAT     H155850   4.401   0.183   3.766
18536WAT     H255851   4.529   0.248   3.687
18537WAT      O55852   5.348   0.692   0.188
18537WAT     H155853   5.368   0.625   0.260
18537WAT     H255854   5.258   0.732   0.204
18538WAT      O55855   0.144   9.376   4.266
18538WAT     H155856   0.077   9.368   4.192
18538WAT     H255857   0.170   9.285   4.298
18539WAT      O55858   8.966   6.332   6.354
18539WAT     H155859   9.048   6.367   6.310
18539WAT     H255860   8.926   6.404   6.411
18540WAT      O55861   8.849   4.562   2.803
18540WAT     H155862   8.907   4.642   2.787
18540WAT     H255863   8.865   4.528   2.896
18541WAT      O55864   4.098   6.839   8.219
18541WAT     H155865   4.120   6.839   8.317
18541WAT     H255866   4.128   6.752   8.179
18542WAT      O55867   9.864   7.422   7.444
18542WAT     H155868   9.790   7.390   7.504
18542WAT     H255869   9.825   7.454   7.358
18543WAT      O55870   6.440   4.936   4.619
18543WAT     H155871   6.519   4.903   4.670
18543WAT     H255872   6.404   4.863   4.561
18544WAT      O55873   6.165   1.415   3.080
18544WAT     H155874   6.263   1.403   3.068
18544WAT     H255875   6.135   1.362   3.160
18545WAT      O55876   7.302   3.794   3.904
18545WAT     H155877   7.331   3.700   3.884
18545WAT     H255878   7.382   3.848   3.929
18546WAT      O55879   7.115   2.977   4.693
18546WAT     H155880   7.205   3.006   4.660
18546WAT     H255881   7.073   3.052   4.744
18547WAT      O55882   2.583   2.766   0.385
18547WAT     H155883   2.621   2.721   0.305
18547WAT     H255884   2.583   2.865   0.371
18548WAT      O55885   2.000   0.996   5.217
18548WAT     H155886   2.055   0.975   5.136
18548WAT     H255887   2.061   1.017   5.294
18549WAT      O55888   6.596   4.317   6.562
18549WAT     H155889   6.599   4.227   6.519
18549WAT     H255890   6.659   4.379   6.514
18550WAT      O55891   4.345   4.932   6.408
18550WAT     H155892   4.351   4.838   6.439
18550WAT     H255893   4.378   4.993   6.481
18551WAT      O55894   0.526   3.126   7.002
18551WAT     H155895   0.614   3.092   7.035
18551WAT     H255896   0.459   3.052   7.002
18552WAT      O55897   7.814   4.826   0.009
18552WAT     H155898   7.856   4.745   0.050
18552WAT     H255899   7.717   4.811  -0.004
18553WAT      O55900   5.462   2.924   3.803
18553WAT     H155901   5.494   2.842   3.755
18553WAT     H255902   5.534   2.959   3.862
18554WAT      O55903   0.307   4.068   3.980
18554WAT     H155904   0.379   4.137   3.982
18554WAT     H255905   0.283   4.042   4.074
18555WAT      O55906   5.783   4.609   2.199
18555WAT     H155907   5.824   4.647   2.116
18555WAT     H255908   5.701   4.557   2.174
18556WAT      O55909   6.156   2.933   6.103
18556WAT     H155910   6.175   3.026   6.134
18556WAT     H255911   6.059   2.913   6.114
18557WAT      O55912   2.143   5.811   9.064
18557WAT     H155913   2.095   5.736   9.018
18557WAT     H255914   2.077   5.877   9.100
18558WAT      O55915   9.178   6.733   9.626
18558WAT     H155916   9.136   6.823   9.635
18558WAT     H255917   9.215   6.723   9.533
18559WAT      O55918   5.890   5.078   5.668
18559WAT     H155919   5.967   5.127   5.711
18559WAT     H255920   5.811   5.080   5.729
18560WAT      O55921   4.381   7.718   2.421
18560WAT     H155922   4.470   7.756   2.394
18560WAT     H255923   4.392   7.664   2.505
18561WAT      O55924   0.816   4.271   1.393
18561WAT     H155925   0.767   4.185   1.386
18561WAT     H255926   0.756   4.340   1.435
18562WAT      O55927   7.489   2.602   9.118
18562WAT     H155928   7.392   2.585   9.136
18562WAT     H255929   7.501   2.697   9.092
18563WAT      O55930   7.265   3.584   6.261
18563WAT     H155931   7.363   3.596   6.250
18563WAT     H255932   7.242   3.487   6.256
18564WAT      O55933   6.568   2.938   5.865
18564WAT     H155934   6.643   3.002   5.884
18564WAT     H255935   6.513   2.925   5.948
18565WAT      O55936   7.994   4.463   6.917
18565WAT     H155937   7.924   4.508   6.863
18565WAT     H255938   7.959   4.443   7.008
18566WAT      O55939   8.305   8.856   5.473
18566WAT     H155940   8.337   8.924   5.540
18566WAT     H255941   8.207   8.868   5.458
18567WAT      O55942   5.934   0.258   4.993
18567WAT     H155943   5.946   0.318   5.072
18567WAT     H255944   5.902   0.312   4.915
18568WAT      O55945   1.498   5.318   9.775
18568WAT     H155946   1.570   5.272   9.829
18568WAT     H255947   1.521   5.311   9.678
18569WAT      O55948   9.491   1.427   8.282
18569WAT     H155949   9.512   1.331   8.300
18569WAT     H255950   9.502   1.480   8.367
18570WAT      O55951   3.045   5.679   0.360
18570WAT     H155952   3.075   5.749   0.295
18570WAT     H255953   3.097   5.596   0.345
18571WAT      O55954   8.594   3.979   3.829
18571WAT     H155955   8.585   3.906   3.761
18571WAT     H255956   8.669   4.040   3.803
18572WAT      O55957   6.666   1.813   4.812
18572WAT     H155958   6.595   1.783   4.748
18572WAT     H255959   6.714   1.733   4.848
18573WAT      O55960   2.534   6.222   5.079
18573WAT     H155961   2.630   6.202   5.061
18573WAT     H255962   2.486   6.137   5.101
18574WAT      O55963   4.006   5.045   2.112
18574WAT     H155964   3.914   5.084   2.105
18574WAT     H255965   4.073   5.119   2.113
18575WAT      O55966   9.805   1.521   8.741
18575WAT     H155967   9.893   1.538   8.786
18575WAT     H255968   9.784   1.423   8.745
18576WAT      O55969   5.602   0.263   6.056
18576WAT     H155970   5.569   0.342   6.109
18576WAT     H255971   5.673   0.293   5.992
18577WAT      O55972   7.392   7.184   3.954
18577WAT     H155973   7.315   7.247   3.947
18577WAT     H255974   7.412   7.147   3.863
18578WAT      O55975   8.688   6.635   9.155
18578WAT     H155976   8.620   6.657   9.225
18578WAT     H255977   8.678   6.697   9.077
18579WAT      O55978   6.450   0.604   4.785
18579WAT     H155979   6.504   0.674   4.831
18579WAT     H255980   6.432   0.631   4.691
18580WAT      O55981   0.510   7.999   8.302
18580WAT     H155982   0.596   7.953   8.325
18580WAT     H255983   0.468   7.953   8.224
18581WAT      O55984   4.979   7.995   8.878
18581WAT     H155985   5.008   7.959   8.967
18581WAT     H255986   5.016   8.087   8.865
18582WAT      O55987   8.672   1.059   6.466
18582WAT     H155988   8.614   1.113   6.526
18582WAT     H255989   8.637   1.065   6.372
18583WAT      O55990   9.574   9.570   0.127
18583WAT     H155991   9.484   9.613   0.126
18583WAT     H255992   9.598   9.537   0.036
18584WAT      O55993   4.201   3.617   7.769
18584WAT     H155994   4.256   3.546   7.726
18584WAT     H255995   4.237   3.636   7.861
18585WAT      O55996   2.107   7.522   1.888
18585WAT     H155997   2.107   7.422   1.879
18585WAT     H255998   2.013   7.556   1.888
18586WAT      O55999   5.310   1.085   5.958
18586WAT     H156000   5.400   1.057   5.924
18586WAT     H256001   5.239   1.038   5.905
18587WAT      O56002   7.487   1.631   6.418
18587WAT     H156003   7.575   1.645   6.372
18587WAT     H256004   7.453   1.539   6.397
18588WAT      O56005   8.444   5.206   0.438
18588WAT     H156006   8.359   5.155   0.455
18588WAT     H256007   8.436   5.258   0.353
18589WAT      O56008   0.237   2.187   4.487
18589WAT     H156009   0.152   2.153   4.530
18589WAT     H256010   0.286   2.110   4.446
18590WAT      O56011   3.165   6.227   2.584
18590WAT     H156012   3.091   6.225   2.517
18590WAT     H256013   3.205   6.318   2.587
18591WAT      O56014   3.475   5.553   7.942
18591WAT     H156015   3.459   5.627   7.878
18591WAT     H256016   3.513   5.474   7.894
18592WAT      O56017   7.465   2.228   1.983
18592WAT     H156018   7.537   2.255   1.919
18592WAT     H256019   7.394   2.177   1.933
18593WAT      O56020   0.022   2.633   2.187
18593WAT     H156021  -0.004   2.621   2.092
18593WAT     H256022   0.111   2.589   2.204
18594WAT      O56023   9.010   5.144   5.867
18594WAT     H156024   8.983   5.205   5.792
18594WAT     H256025   9.084   5.084   5.836
18595WAT      O56026   0.599   1.156   3.997
18595WAT     H156027   0.696   1.131   3.998
18595WAT     H256028   0.582   1.218   3.921
18596WAT      O56029   4.673   7.871   7.388
18596WAT     H156030   4.709   7.852   7.479
18596WAT     H256031   4.614   7.796   7.359
18597WAT      O56032   2.068   0.964   1.641
18597WAT     H156033   1.990   0.927   1.591
18597WAT     H256034   2.046   0.971   1.738
18598WAT      O56035   1.946   4.349   0.183
18598WAT     H156036   1.976   4.301   0.100
18598WAT     H256037   1.874   4.297   0.228
18599WAT      O56038   0.231   7.487   7.505
18599WAT     H156039   0.262   7.416   7.568
18599WAT     H256040   0.133   7.475   7.487
18600WAT      O56041   5.278   9.656   4.250
18600WAT     H156042   5.230   9.732   4.293
18600WAT     H256043   5.373   9.681   4.235
18601WAT      O56044   0.869   0.817   9.045
18601WAT     H156045   0.935   0.877   8.997
18601WAT     H256046   0.798   0.789   8.981
18602WAT      O56047   3.761   9.620   3.009
18602WAT     H156048   3.782   9.549   2.942
18602WAT     H256049   3.814   9.604   3.092
18603WAT      O56050   7.173   6.473   0.332
18603WAT     H156051   7.262   6.502   0.295
18603WAT     H256052   7.162   6.509   0.424
18604WAT      O56053   2.653   5.193   3.472
18604WAT     H156054   2.689   5.266   3.415
18604WAT     H256055   2.658   5.220   3.568
18605WAT      O56056   0.658   2.706   5.594
18605WAT     H156057   0.755   2.703   5.618
18605WAT     H256058   0.643   2.650   5.512
18606WAT      O56059   3.549   0.119   2.383
18606WAT     H156060   3.486   0.108   2.306
18606WAT     H256061   3.517   0.064   2.460
18607WAT      O56062   8.301   8.924   3.016
18607WAT     H156063   8.264   8.975   2.938
18607WAT     H256064   8.401   8.930   3.015
18608WAT      O56065   1.599   0.688   3.909
18608WAT     H156066   1.565   0.649   3.995
18608WAT     H256067   1.618   0.785   3.922
18609WAT      O56068   8.571   0.435   6.920
18609WAT     H156069   8.474   0.423   6.941
18609WAT     H256070   8.615   0.345   6.914
18610WAT      O56071   1.745   2.699   1.785
18610WAT     H156072   1.777   2.610   1.818
18610WAT     H256073   1.804   2.771   1.821
18611WAT      O56074   0.889   1.403   9.537
18611WAT     H156075   0.825   1.355   9.477
18611WAT     H256076   0.965   1.342   9.560
18612WAT      O56077   7.555   6.741   8.085
18612WAT     H156078   7.514   6.831   8.102
18612WAT     H256079   7.535   6.680   8.162
18613WAT      O56080   2.992   3.618   1.185
18613WAT     H156081   2.902   3.602   1.226
18613WAT     H256082   2.996   3.712   1.150
18614WAT      O56083   2.472   5.924   6.829
18614WAT     H156084   2.379   5.915   6.795
18614WAT     H256085   2.528   5.974   6.762
18615WAT      O56086   9.446   6.450   0.318
18615WAT     H156087   9.430   6.459   0.416
18615WAT     H256088   9.399   6.368   0.284
18616WAT      O56089   7.225   5.843   4.241
18616WAT     H156090   7.322   5.866   4.232
18616WAT     H256091   7.195   5.861   4.335
18617WAT      O56092   9.788   9.009   9.063
18617WAT     H156093   9.719   9.064   9.110
18617WAT     H256094   9.805   8.925   9.115
18618WAT      O56095   9.160   0.898   1.653
18618WAT     H156096   9.244   0.953   1.657
18618WAT     H256097   9.093   0.943   1.594
18619WAT      O56098   2.124   0.747   2.847
18619WAT     H156099   2.185   0.777   2.919
18619WAT     H256100   2.082   0.659   2.872
18620WAT      O56101   3.070   8.490   4.609
18620WAT     H156102   3.156   8.539   4.625
18620WAT     H256103   3.002   8.520   4.675
18621WAT      O56104   2.988   4.284   0.049
18621WAT     H156105   2.939   4.228   0.116
18621WAT     H256106   2.933   4.293  -0.034
18622WAT      O56107   0.740   9.398   3.550
18622WAT     H156108   0.816   9.433   3.496
18622WAT     H256109   0.693   9.326   3.499
18623WAT      O56110   9.887   4.436   2.216
18623WAT     H156111   9.824   4.367   2.181
18623WAT     H256112   9.898   4.509   2.149
18624WAT      O56113   5.156   7.993   6.038
18624WAT     H156114   5.083   7.925   6.029
18624WAT     H256115   5.120   8.083   6.015
18625WAT      O56116   2.662   0.759   1.424
18625WAT     H156117   2.625   0.786   1.336
18625WAT     H256118   2.591   0.716   1.479
18626WAT      O56119   7.706   1.891   5.028
18626WAT     H156120   7.699   1.979   4.981
18626WAT     H256121   7.703   1.817   4.960
18627WAT      O56122   0.305   7.564   7.857
18627WAT     H156123   0.229   7.503   7.881
18627WAT     H256124   0.385   7.509   7.833
18628WAT      O56125   0.892   7.462   9.368
18628WAT     H156126   0.976   7.514   9.348
18628WAT     H256127   0.870   7.473   9.465
18629WAT      O56128   5.271   9.039   5.042
18629WAT     H156129   5.267   9.131   5.003
18629WAT     H256130   5.367   9.013   5.057
18630WAT      O56131   4.758   1.008   1.303
18630WAT     H156132   4.691   1.045   1.239
18630WAT     H256133   4.828   1.078   1.322
18631WAT      O56134   7.094   4.116   1.032
18631WAT     H156135   7.186   4.151   1.049
18631WAT     H256136   7.083   4.028   1.079
18632WAT      O56137   4.368   5.174   8.732
18632WAT     H156138   4.381   5.078   8.759
18632WAT     H256139   4.299   5.179   8.660
18633WAT      O56140   8.317   8.223   5.965
18633WAT     H156141   8.329   8.162   6.043
18633WAT     H256142   8.388   8.203   5.897
18634WAT      O56143   0.655   6.579   3.800
18634WAT     H156144   0.740   6.614   3.760
18634WAT     H256145   0.644   6.615   3.892
18635WAT      O56146   3.834   1.328   5.216
18635WAT     H156147   3.881   1.398   5.269
18635WAT     H256148   3.871   1.238   5.239
18636WAT      O56149   2.121   3.803   2.729
18636WAT     H156150   2.051   3.867   2.758
18636WAT     H256151   2.132   3.808   2.630
18637WAT      O56152   3.705   1.167   2.043
18637WAT     H156153   3.766   1.089   2.059
18637WAT     H256154   3.638   1.172   2.116
18638WAT      O56155   5.403   2.670   4.317
18638WAT     H156156   5.464   2.747   4.299
18638WAT     H256157   5.457   2.585   4.321
18639WAT      O56158   8.083   8.583   4.563
18639WAT     H156159   8.127   8.519   4.500
18639WAT     H256160   8.022   8.644   4.513
18640WAT      O56161   1.027   2.808   4.407
18640WAT     H156162   0.982   2.749   4.340
18640WAT     H256163   1.038   2.900   4.369
18641WAT      O56164   3.814   1.562   9.149
18641WAT     H156165   3.824   1.517   9.237
18641WAT     H256166   3.719   1.560   9.120
18642WAT      O56167   6.011   3.969   4.505
18642WAT     H156168   6.074   4.011   4.440
18642WAT     H256169   6.062   3.908   4.567
18643WAT      O56170   2.991   5.484   2.943
18643WAT     H156171   2.906   5.536   2.945
18643WAT     H256172   2.987   5.412   3.012
18644WAT      O56173   9.404   0.056   2.419
18644WAT     H156174   9.499   0.027   2.426
18644WAT     H256175   9.353   0.027   2.500
18645WAT      O56176   2.601   8.336   2.111
18645WAT     H156177   2.546   8.339   2.028
18645WAT     H256178   2.547   8.367   2.189
18646WAT      O56179   8.631   6.200   6.380
18646WAT     H156180   8.640   6.260   6.460
18646WAT     H256181   8.645   6.254   6.297
18647WAT      O56182   7.607   7.533   6.716
18647WAT     H156183   7.644   7.455   6.767
18647WAT     H256184   7.682   7.592   6.687
18648WAT      O56185   5.514   3.942   4.359
18648WAT     H156186   5.493   3.844   4.358
18648WAT     H256187   5.579   3.962   4.433
18649WAT      O56188   1.487   6.580   5.882
18649WAT     H156189   1.405   6.534   5.917
18649WAT     H256190   1.560   6.514   5.871
18650WAT      O56191   5.131   2.051   2.869
18650WAT     H156192   5.157   2.147   2.882
18650WAT     H256193   5.129   2.005   2.958
18651WAT      O56194   3.515   8.577   4.220
18651WAT     H156195   3.607   8.595   4.256
18651WAT     H256196   3.456   8.547   4.295
18652WAT      O56197   1.724   7.527   9.383
18652WAT     H156198   1.794   7.459   9.360
18652WAT     H256199   1.767   7.617   9.395
18653WAT      O56200   6.271   6.940   3.227
18653WAT     H156201   6.369   6.957   3.242
18653WAT     H256202   6.249   6.954   3.131
18654WAT      O56203   7.790   2.037   3.728
18654WAT     H156204   7.772   2.015   3.824
18654WAT     H256205   7.716   2.094   3.693
18655WAT      O56206   9.570   7.094   5.128
18655WAT     H156207   9.651   7.077   5.072
18655WAT     H256208   9.588   7.168   5.192
18656WAT      O56209   7.116   0.160   7.000
18656WAT     H156210   7.034   0.160   7.057
18656WAT     H256211   7.171   0.079   7.021
18657WAT      O56212   2.728   2.261   9.642
18657WAT     H156213   2.817   2.253   9.598
18657WAT     H256214   2.662   2.298   9.576
18658WAT      O56215   1.216   6.784   5.230
18658WAT     H156216   1.154   6.771   5.153
18658WAT     H256217   1.288   6.849   5.205
18659WAT      O56218   0.191   5.508   6.975
18659WAT     H156219   0.204   5.596   6.930
18659WAT     H256220   0.170   5.439   6.906
18660WAT      O56221   6.904   9.215   2.136
18660WAT     H156222   6.849   9.291   2.170
18660WAT     H256223   6.992   9.250   2.104
18661WAT      O56224   6.500   8.496   6.888
18661WAT     H156225   6.430   8.564   6.910
18661WAT     H256226   6.539   8.460   6.973
18662WAT      O56227   9.276   7.220   0.908
18662WAT     H156228   9.264   7.122   0.897
18662WAT     H256229   9.222   7.269   0.839
18663WAT      O56230   8.362   4.585   2.114
18663WAT     H156231   8.401   4.627   2.032
18663WAT     H256232   8.407   4.622   2.195
18664WAT      O56233   2.900   8.924   1.320
18664WAT     H156234   2.946   9.008   1.351
18664WAT     H256235   2.965   8.867   1.271
18665WAT      O56236   4.751   4.248   2.139
18665WAT     H156237   4.816   4.324   2.147
18665WAT     H256238   4.660   4.277   2.168
18666WAT      O56239   8.469   4.229   1.688
18666WAT     H156240   8.435   4.137   1.671
18666WAT     H256241   8.508   4.266   1.603
18667WAT      O56242   1.777   7.606   2.035
18667WAT     H156243   1.708   7.539   2.008
18667WAT     H256244   1.843   7.563   2.097
18668WAT      O56245   1.666   8.837   0.948
18668WAT     H156246   1.578   8.814   0.907
18668WAT     H256247   1.700   8.922   0.908
18669WAT      O56248   0.201   1.651   7.297
18669WAT     H156249   0.194   1.751   7.297
18669WAT     H256250   0.115   1.611   7.265
18670WAT      O56251   2.593   4.670   2.989
18670WAT     H156252   2.560   4.708   3.076
18670WAT     H256253   2.625   4.577   3.004
18671WAT      O56254   6.955   1.992   6.735
18671WAT     H156255   6.982   1.973   6.641
18671WAT     H256256   6.950   2.091   6.749
18672WAT      O56257   7.739   1.062   2.812
18672WAT     H156258   7.695   1.051   2.901
18672WAT     H256259   7.715   1.151   2.774
18673WAT      O56260   0.487   2.515   1.529
18673WAT     H156261   0.502   2.544   1.623
18673WAT     H256262   0.575   2.487   1.489
18674WAT      O56263   8.706   8.946   2.256
18674WAT     H156264   8.798   8.924   2.226
18674WAT     H256265   8.640   8.913   2.188
18675WAT      O56266   0.696   5.882   0.475
18675WAT     H156267   0.605   5.901   0.437
18675WAT     H256268   0.742   5.969   0.495
18676WAT      O56269   5.649   9.101   2.297
18676WAT     H156270   5.620   9.154   2.376
18676WAT     H256271   5.572   9.087   2.235
18677WAT      O56272   7.806   0.761   3.957
18677WAT     H156273   7.786   0.694   3.886
18677WAT     H256274   7.882   0.728   4.013
18678WAT      O56275   9.243   1.151   8.059
18678WAT     H156276   9.302   1.129   8.137
18678WAT     H256277   9.163   1.091   8.061
18679WAT      O56278   5.094   1.773   3.715
18679WAT     H156279   5.119   1.818   3.630
18679WAT     H256280   5.073   1.677   3.697
18680WAT      O56281   0.535   8.310   1.285
18680WAT     H156282   0.441   8.341   1.296
18680WAT     H256283   0.587   8.331   1.368
18681WAT      O56284   8.747   6.612   6.596
18681WAT     H156285   8.680   6.685   6.584
18681WAT     H256286   8.808   6.634   6.672
18682WAT      O56287   0.311   5.790   6.600
18682WAT     H156288   0.411   5.782   6.591
18682WAT     H256289   0.278   5.865   6.543
18683WAT      O56290   0.955   1.376   1.722
18683WAT     H156291   0.960   1.285   1.764
18683WAT     H256292   1.047   1.414   1.713
18684WAT      O56293   2.126   9.581   0.698
18684WAT     H156294   2.219   9.614   0.716
18684WAT     H256295   2.073   9.584   0.783
18685WAT      O56296   4.738   7.777   9.750
18685WAT     H156297   4.659   7.738   9.797
18685WAT     H256298   4.730   7.877   9.750
18686WAT      O56299   8.353   0.294   3.940
18686WAT     H156300   8.401   0.273   4.025
18686WAT     H256301   8.357   0.214   3.879
18687WAT      O56302   9.435   2.684   6.281
18687WAT     H156303   9.448   2.751   6.208
18687WAT     H256304   9.367   2.616   6.253
18688WAT      O56305   3.685   0.204   8.819
18688WAT     H156306   3.743   0.125   8.802
18688WAT     H256307   3.619   0.181   8.891
18689WAT      O56308   9.655   0.219   0.097
18689WAT     H156309   9.623   0.312   0.079
18689WAT     H256310   9.634   0.160   0.019
18690WAT      O56311   0.211   5.861   1.748
18690WAT     H156312   0.261   5.786   1.792
18690WAT     H256313   0.272   5.908   1.684
18691WAT      O56314   7.362   0.631   4.550
18691WAT     H156315   7.341   0.564   4.479
18691WAT     H256316   7.451   0.609   4.592
18692WAT      O56317   0.273   9.514   4.487
18692WAT     H156318   0.215   9.470   4.418
18692WAT     H256319   0.220   9.532   4.570
18693WAT      O56320   6.652   1.811   8.057
18693WAT     H156321   6.559   1.839   8.031
18693WAT     H256322   6.669   1.718   8.025
18694WAT      O56323   2.164   3.135   7.099
18694WAT     H156324   2.159   3.226   7.140
18694WAT     H256325   2.258   3.103   7.100
18695WAT      O56326   6.429   7.227   0.620
18695WAT     H156327   6.455   7.233   0.524
18695WAT     H256328   6.364   7.153   0.633
18696WAT      O56329   4.022   2.017   0.574
18696WAT     H156330   4.121   2.026   0.580
18696WAT     H256331   3.985   2.092   0.519
18697WAT      O56332   9.461   1.627   5.828
18697WAT     H156333   9.512   1.660   5.908
18697WAT     H256334   9.425   1.705   5.777
18698WAT      O56335   9.046   5.696   8.579
18698WAT     H156336   8.953   5.704   8.614
18698WAT     H256337   9.111   5.704   8.654
18699WAT      O56338   8.279   6.501   2.854
18699WAT     H156339   8.324   6.447   2.782
18699WAT     H256340   8.221   6.441   2.909
18700WAT      O56341   8.665   1.213   9.479
18700WAT     H156342   8.620   1.181   9.562
18700WAT     H256343   8.710   1.301   9.497
18701WAT      O56344   6.242   4.656   8.705
18701WAT     H156345   6.273   4.751   8.695
18701WAT     H256346   6.142   4.653   8.701
18702WAT      O56347   8.118   3.192   4.356
18702WAT     H156348   8.085   3.257   4.287
18702WAT     H256349   8.213   3.171   4.338
18703WAT      O56350   3.652   3.102   2.403
18703WAT     H156351   3.728   3.050   2.443
18703WAT     H256352   3.568   3.048   2.408
18704WAT      O56353   6.977   9.316   0.494
18704WAT     H156354   6.962   9.245   0.563
18704WAT     H256355   7.072   9.310   0.461
18705WAT      O56356   9.830   4.186   0.139
18705WAT     H156357   9.827   4.173   0.238
18705WAT     H256358   9.764   4.124   0.096
18706WAT      O56359   8.543   2.108   7.074
18706WAT     H156360   8.600   2.048   7.018
18706WAT     H256361   8.453   2.065   7.087
18707WAT      O56362   9.205   8.843   7.603
18707WAT     H156363   9.302   8.843   7.580
18707WAT     H256364   9.177   8.752   7.634
18708WAT      O56365   7.849   2.786   0.665
18708WAT     H156366   7.803   2.849   0.728
18708WAT     H256367   7.827   2.812   0.571
18709WAT      O56368   0.111   8.955   2.906
18709WAT     H156369   0.171   8.913   2.974
18709WAT     H256370   0.025   8.905   2.901
18710WAT      O56371   8.830   7.161   1.014
18710WAT     H156372   8.856   7.091   1.080
18710WAT     H256373   8.827   7.250   1.059
18711WAT      O56374   1.122   1.896   7.140
18711WAT     H156375   1.210   1.934   7.171
18711WAT     H256376   1.048   1.959   7.164
18712WAT      O56377   3.193   2.270   5.405
18712WAT     H156378   3.274   2.327   5.420
18712WAT     H256379   3.205   2.182   5.452
18713WAT      O56380   3.454   1.489   6.023
18713WAT     H156381   3.473   1.581   5.990
18713WAT     H256382   3.536   1.453   6.069
18714WAT      O56383   1.232   4.824   2.678
18714WAT     H156384   1.168   4.873   2.737
18714WAT     H256385   1.186   4.803   2.591
18715WAT      O56386   4.855   0.722   0.921
18715WAT     H156387   4.875   0.753   1.014
18715WAT     H256388   4.785   0.781   0.880
18716WAT      O56389   9.183   7.638   9.855
18716WAT     H156390   9.083   7.638   9.854
18716WAT     H256391   9.217   7.731   9.871
18717WAT      O56392   8.900   7.665   9.152
18717WAT     H156393   8.867   7.602   9.222
18717WAT     H256394   8.980   7.714   9.186
18718WAT      O56395   7.615   3.534   7.221
18718WAT     H156396   7.648   3.560   7.312
18718WAT     H256397   7.562   3.610   7.182
18719WAT      O56398   4.331   0.293   0.932
18719WAT     H156399   4.416   0.241   0.923
18719WAT     H256400   4.269   0.244   0.993
18720WAT      O56401   0.546   4.623   6.065
18720WAT     H156402   0.512   4.568   6.141
18720WAT     H256403   0.576   4.564   5.991
18721WAT      O56404   5.850   8.478   6.584
18721WAT     H156405   5.907   8.561   6.581
18721WAT     H256406   5.866   8.424   6.501
18722WAT      O56407   8.920   4.011   5.555
18722WAT     H156408   8.886   4.101   5.581
18722WAT     H256409   8.972   4.018   5.470
18723WAT      O56410   2.654   6.707   4.257
18723WAT     H156411   2.671   6.799   4.294
18723WAT     H256412   2.557   6.685   4.267
18724WAT      O56413   3.916   1.266   0.564
18724WAT     H156414   3.891   1.346   0.510
18724WAT     H256415   4.010   1.274   0.595
18725WAT      O56416   5.464   7.054   2.456
18725WAT     H156417   5.556   7.080   2.487
18725WAT     H256418   5.469   6.966   2.408
18726WAT      O56419   1.638   6.468   1.706
18726WAT     H156420   1.563   6.468   1.772
18726WAT     H256421   1.696   6.388   1.722
18727WAT      O56422   8.521   5.823   8.506
18727WAT     H156423   8.611   5.792   8.475
18727WAT     H256424   8.523   5.837   8.605
18728WAT      O56425   0.836   1.885   1.741
18728WAT     H156426   0.904   1.958   1.734
18728WAT     H256427   0.808   1.873   1.836
18729WAT      O56428   4.447   8.110   3.885
18729WAT     H156429   4.393   8.033   3.917
18729WAT     H256430   4.544   8.085   3.884
18730WAT      O56431   0.409   3.664   7.824
18730WAT     H156432   0.502   3.642   7.794
18730WAT     H256433   0.355   3.580   7.828
18731WAT      O56434   7.170   0.669   6.004
18731WAT     H156435   7.093   0.717   5.961
18731WAT     H256436   7.240   0.735   6.030
18732WAT      O56437   1.661   6.398   7.347
18732WAT     H156438   1.716   6.347   7.414
18732WAT     H256439   1.608   6.468   7.395
18733WAT      O56440   8.670   9.164   6.625
18733WAT     H156441   8.591   9.126   6.673
18733WAT     H256442   8.753   9.118   6.657
18734WAT      O56443   5.826   0.479   5.231
18734WAT     H156444   5.855   0.572   5.253
18734WAT     H256445   5.893   0.414   5.266
18735WAT      O56446   8.612   0.162   6.633
18735WAT     H156447   8.647   0.255   6.625
18735WAT     H256448   8.644   0.122   6.719
18736WAT      O56449   7.880   9.621   0.613
18736WAT     H156450   7.955   9.563   0.645
18736WAT     H256451   7.883   9.708   0.662
18737WAT      O56452   4.221   6.129   9.199
18737WAT     H156453   4.189   6.175   9.283
18737WAT     H256454   4.319   6.109   9.208
18738WAT      O56455   8.935   8.354   3.928
18738WAT     H156456   8.993   8.434   3.919
18738WAT     H256457   8.857   8.376   3.987
18739WAT      O56458   0.119   0.931   2.217
18739WAT     H156459   0.197   0.960   2.272
18739WAT     H256460   0.145   0.853   2.161
18740WAT      O56461   8.506   7.084   8.565
18740WAT     H156462   8.588   7.121   8.608
18740WAT     H256463   8.531   7.016   8.497
18741WAT      O56464   6.933   7.141   3.903
18741WAT     H156465   7.011   7.203   3.892
18741WAT     H256466   6.851   7.194   3.927
18742WAT      O56467   1.506   7.607   8.893
18742WAT     H156468   1.521   7.554   8.976
18742WAT     H256469   1.525   7.703   8.911
18743WAT      O56470   4.999   1.509   7.752
18743WAT     H156471   5.028   1.424   7.795
18743WAT     H256472   4.927   1.490   7.686
18744WAT      O56473   3.013   5.826   3.358
18744WAT     H156474   3.034   5.826   3.260
18744WAT     H256475   3.090   5.785   3.408
18745WAT      O56476   1.144   5.438   7.164
18745WAT     H156477   1.216   5.498   7.129
18745WAT     H256478   1.186   5.355   7.201
18746WAT      O56479   3.070   2.566   9.454
18746WAT     H156480   3.025   2.655   9.467
18746WAT     H256481   3.156   2.564   9.505
18747WAT      O56482   5.511   1.057   1.555
18747WAT     H156483   5.459   0.988   1.606
18747WAT     H256484   5.598   1.018   1.525
18748WAT      O56485   2.503   0.257   6.129
18748WAT     H156486   2.471   0.163   6.114
18748WAT     H256487   2.594   0.268   6.087
18749WAT      O56488   4.661   4.699   2.546
18749WAT     H156489   4.585   4.764   2.559
18749WAT     H256490   4.747   4.749   2.538
18750WAT      O56491   0.310   8.258   0.486
18750WAT     H156492   0.291   8.261   0.584
18750WAT     H256493   0.262   8.333   0.440
18751WAT      O56494   6.360   3.161   5.870
18751WAT     H156495   6.341   3.249   5.827
18751WAT     H256496   6.366   3.090   5.800
18752WAT      O56497   0.343   9.022   6.889
18752WAT     H156498   0.249   8.993   6.906
18752WAT     H256499   0.349   9.122   6.891
18753WAT      O56500   4.820   6.681   4.582
18753WAT     H156501   4.844   6.735   4.501
18753WAT     H256502   4.885   6.701   4.656
18754WAT      O56503   1.246   4.267   3.217
18754WAT     H156504   1.338   4.244   3.247
18754WAT     H256505   1.243   4.271   3.117
18755WAT      O56506   0.372   1.203   8.806
18755WAT     H156507   0.419   1.194   8.894
18755WAT     H256508   0.273   1.205   8.821
18756WAT      O56509   4.298   1.191   7.129
18756WAT     H156510   4.246   1.267   7.168
18756WAT     H256511   4.253   1.104   7.152
18757WAT      O56512   0.180   6.998   4.246
18757WAT     H156513   0.086   6.965   4.253
18757WAT     H256514   0.211   7.030   4.335
18758WAT      O56515   5.501   0.972   0.191
18758WAT     H156516   5.421   0.913   0.177
18758WAT     H256517   5.480   1.064   0.158
18759WAT      O56518   3.833   2.981   5.291
18759WAT     H156519   3.835   3.054   5.360
18759WAT     H256520   3.926   2.948   5.275
18760WAT      O56521   3.125   3.836   5.215
18760WAT     H156522   3.126   3.935   5.201
18760WAT     H256523   3.212   3.796   5.186
18761WAT      O56524   1.890   6.177   6.752
18761WAT     H156525   1.910   6.088   6.792
18761WAT     H256526   1.805   6.171   6.699
18762WAT      O56527   4.940   1.579   0.511
18762WAT     H156528   4.898   1.591   0.421
18762WAT     H256529   4.898   1.500   0.557
18763WAT      O56530   0.981   2.443   9.555
18763WAT     H156531   0.985   2.376   9.629
18763WAT     H256532   1.072   2.456   9.515
18764WAT      O56533   4.632   6.136   8.506
18764WAT     H156534   4.612   6.038   8.497
18764WAT     H256535   4.718   6.148   8.554
18765WAT      O56536   7.658   5.651   2.787
18765WAT     H156537   7.589   5.623   2.855
18765WAT     H256538   7.748   5.653   2.831
18766WAT      O56539   4.777   5.505   7.895
18766WAT     H156540   4.677   5.504   7.904
18766WAT     H256541   4.808   5.417   7.861
18767WAT      O56542   2.255   7.417   4.905
18767WAT     H156543   2.188   7.382   4.840
18767WAT     H256544   2.312   7.485   4.860
18768WAT      O56545   4.045   2.088   4.247
18768WAT     H156546   4.004   1.997   4.257
18768WAT     H256547   4.019   2.126   4.158
18769WAT      O56548   3.741   9.403   8.983
18769WAT     H156549   3.804   9.480   8.989
18769WAT     H256550   3.652   9.435   8.951
18770WAT      O56551   7.564   5.200   0.106
18770WAT     H156552   7.495   5.216   0.036
18770WAT     H256553   7.588   5.287   0.150
18771WAT      O56554   2.855   9.279   7.220
18771WAT     H156555   2.819   9.193   7.255
18771WAT     H256556   2.904   9.327   7.293
18772WAT      O56557   6.138   2.518   3.314
18772WAT     H156558   6.110   2.439   3.369
18772WAT     H256559   6.057   2.557   3.269
18773WAT      O56560   3.487   8.425   1.934
18773WAT     H156561   3.490   8.396   2.030
18773WAT     H256562   3.467   8.347   1.876
18774WAT      O56563   4.289   9.276   7.991
18774WAT     H156564   4.353   9.246   7.920
18774WAT     H256565   4.237   9.354   7.958
18775WAT      O56566   9.269   7.628   8.735
18775WAT     H156567   9.298   7.662   8.645
18775WAT     H256568   9.295   7.695   8.805
18776WAT      O56569   3.276   1.705   1.540
18776WAT     H156570   3.267   1.752   1.628
18776WAT     H256571   3.285   1.772   1.466
18777WAT      O56572   2.621   8.743   7.981
18777WAT     H156573   2.637   8.842   7.980
18777WAT     H256574   2.614   8.712   8.076
18778WAT      O56575   7.202   2.473   0.657
18778WAT     H156576   7.267   2.542   0.624
18778WAT     H256577   7.199   2.397   0.592
18779WAT      O56578   6.991   0.912   7.441
18779WAT     H156579   7.077   0.935   7.487
18779WAT     H256580   6.934   0.994   7.435
18780WAT      O56581   1.156   7.485   8.148
18780WAT     H156582   1.139   7.437   8.235
18780WAT     H256583   1.196   7.574   8.167
18781WAT      O56584   4.119   8.133   6.841
18781WAT     H156585   4.142   8.144   6.744
18781WAT     H256586   4.062   8.210   6.870
18782WAT      O56587   8.224   9.708   9.266
18782WAT     H156588   8.261   9.797   9.294
18782WAT     H256589   8.137   9.692   9.313
18783WAT      O56590   6.722   0.737   2.745
18783WAT     H156591   6.679   0.732   2.655
18783WAT     H256592   6.818   0.710   2.738
18784WAT      O56593   5.251   1.577   3.392
18784WAT     H156594   5.189   1.656   3.397
18784WAT     H256595   5.201   1.498   3.355
18785WAT      O56596   6.061   3.413   2.022
18785WAT     H156597   5.984   3.475   2.008
18785WAT     H256598   6.146   3.457   1.994
18786WAT      O56599   8.607   6.852   7.400
18786WAT     H156600   8.645   6.942   7.379
18786WAT     H256601   8.602   6.798   7.316
18787WAT      O56602   3.415   6.052   7.152
18787WAT     H156603   3.508   6.065   7.116
18787WAT     H256604   3.383   5.960   7.129
18788WAT      O56605   7.453   3.009   0.189
18788WAT     H156606   7.507   3.014   0.273
18788WAT     H256607   7.432   2.914   0.168
18789WAT      O56608   6.433   1.530   0.548
18789WAT     H156609   6.418   1.533   0.647
18789WAT     H256610   6.514   1.583   0.525
18790WAT      O56611   7.103   9.224   7.995
18790WAT     H156612   7.073   9.209   8.089
18790WAT     H256613   7.115   9.322   7.979
18791WAT      O56614   0.072   0.834   2.719
18791WAT     H156615   0.073   0.805   2.814
18791WAT     H256616  -0.016   0.811   2.677
18792WAT      O56617   5.309   6.826   7.861
18792WAT     H156618   5.248   6.753   7.832
18792WAT     H256619   5.403   6.804   7.834
18793WAT      O56620   7.086   1.027   5.108
18793WAT     H156621   7.094   1.046   5.206
18793WAT     H256622   6.999   1.063   5.075
18794WAT      O56623   2.230   7.805   3.028
18794WAT     H156624   2.270   7.723   2.987
18794WAT     H256625   2.131   7.795   3.035
18795WAT      O56626   9.168   7.996   9.101
18795WAT     H156627   9.084   8.020   9.053
18795WAT     H256628   9.169   7.897   9.118
18796WAT      O56629   4.387   7.334   6.431
18796WAT     H156630   4.338   7.330   6.344
18796WAT     H256631   4.467   7.393   6.421
18797WAT      O56632   4.243   3.172   0.924
18797WAT     H156633   4.328   3.119   0.930
18797WAT     H256634   4.256   3.261   0.967
18798WAT      O56635   6.566   5.253   9.771
18798WAT     H156636   6.639   5.287   9.830
18798WAT     H256637   6.518   5.330   9.730
18799WAT      O56638   2.898   2.792   2.620
18799WAT     H156639   2.889   2.889   2.598
18799WAT     H256640   2.976   2.753   2.570
18800WAT      O56641   1.635   8.856   2.111
18800WAT     H156642   1.616   8.781   2.047
18800WAT     H256643   1.721   8.900   2.087
18801WAT      O56644   7.601   1.680   3.558
18801WAT     H156645   7.531   1.682   3.487
18801WAT     H256646   7.671   1.749   3.537
18802WAT      O56647   1.741   6.363   7.622
18802WAT     H156648   1.795   6.384   7.703
18802WAT     H256649   1.788   6.294   7.567
18803WAT      O56650   7.133   1.916   2.324
18803WAT     H156651   7.207   1.869   2.373
18803WAT     H256652   7.046   1.895   2.367
18804WAT      O56653   4.819   0.765   8.874
18804WAT     H156654   4.818   0.786   8.971
18804WAT     H256655   4.731   0.789   8.833
18805WAT      O56656   1.045   8.385   5.098
18805WAT     H156657   0.980   8.431   5.159
18805WAT     H256658   1.138   8.402   5.130
18806WAT      O56659   8.760   1.881   9.107
18806WAT     H156660   8.808   1.820   9.170
18806WAT     H256661   8.800   1.872   9.016
18807WAT      O56662   7.513   6.550   8.289
18807WAT     H156663   7.502   6.457   8.322
18807WAT     H256664   7.606   6.582   8.307
18808WAT      O56665   6.659   7.636   2.445
18808WAT     H156666   6.624   7.717   2.492
18808WAT     H256667   6.703   7.664   2.360
18809WAT      O56668   0.069   5.807   5.696
18809WAT     H156669   0.049   5.725   5.748
18809WAT     H256670   0.046   5.888   5.750
18810WAT      O56671   7.915   0.231   1.013
18810WAT     H156672   7.972   0.216   0.933
18810WAT     H256673   7.839   0.291   0.990
18811WAT      O56674   5.843   3.284   3.739
18811WAT     H156675   5.750   3.320   3.730
18811WAT     H256676   5.841   3.205   3.800
18812WAT      O56677   5.548   5.663   6.054
18812WAT     H156678   5.491   5.725   6.107
18812WAT     H256679   5.632   5.642   6.105
18813WAT      O56680   8.913   7.853   2.690
18813WAT     H156681   8.955   7.938   2.721
18813WAT     H256682   8.821   7.872   2.655
18814WAT      O56683   9.080   1.725   9.037
18814WAT     H156684   9.057   1.676   8.953
18814WAT     H256685   9.083   1.823   9.019
18815WAT      O56686   8.273   1.550   7.234
18815WAT     H156687   8.309   1.459   7.218
18815WAT     H256688   8.304   1.612   7.162
18816WAT      O56689   0.192   6.646   7.895
18816WAT     H156690   0.217   6.733   7.852
18816WAT     H256691   0.095   6.647   7.919
18817WAT      O56692   2.499   7.243   0.732
18817WAT     H156693   2.473   7.189   0.652
18817WAT     H256694   2.425   7.238   0.800
18818WAT      O56695   7.768   5.854   4.658
18818WAT     H156696   7.741   5.848   4.562
18818WAT     H256697   7.750   5.947   4.691
18819WAT      O56698   2.656   6.844   8.270
18819WAT     H156699   2.639   6.750   8.242
18819WAT     H256700   2.673   6.900   8.189
18820WAT      O56701   4.122   7.447   7.109
18820WAT     H156702   4.144   7.538   7.074
18820WAT     H256703   4.027   7.446   7.142
18821WAT      O56704   6.961   5.412   1.103
18821WAT     H156705   6.905   5.381   1.027
18821WAT     H256706   6.951   5.349   1.180
18822WAT      O56707   0.096   9.820   4.382
18822WAT     H156708   0.019   9.761   4.404
18822WAT     H256709   0.077   9.913   4.412
18823WAT      O56710   7.883   8.490   8.159
18823WAT     H156711   7.978   8.506   8.134
18823WAT     H256712   7.866   8.523   8.251
18824WAT      O56713   4.530   8.043   5.522
18824WAT     H156714   4.589   8.121   5.499
18824WAT     H256715   4.561   8.002   5.607
18825WAT      O56716   7.420   4.535   1.679
18825WAT     H156717   7.367   4.478   1.616
18825WAT     H256718   7.513   4.546   1.645
18826WAT      O56719   0.458   0.537   0.841
18826WAT     H156720   0.433   0.563   0.934
18826WAT     H256721   0.531   0.598   0.808
18827WAT      O56722   2.249   7.762   5.767
18827WAT     H156723   2.315   7.834   5.748
18827WAT     H256724   2.286   7.674   5.736
18828WAT      O56725   8.580   7.863   4.980
18828WAT     H156726   8.506   7.923   5.008
18828WAT     H256727   8.560   7.769   5.008
18829WAT      O56728   8.547   2.103   5.411
18829WAT     H156729   8.582   2.087   5.504
18829WAT     H256730   8.538   2.201   5.395
18830WAT      O56731   7.076   9.172   0.180
18830WAT     H156732   7.023   9.104   0.129
18830WAT     H256733   7.160   9.192   0.130
18831WAT      O56734   2.272   8.191   3.347
18831WAT     H156735   2.293   8.243   3.430
18831WAT     H256736   2.323   8.228   3.270
18832WAT      O56737   1.645   3.936   9.167
18832WAT     H156738   1.606   3.894   9.086
18832WAT     H256739   1.598   3.903   9.249
18833WAT      O56740   1.290   6.127   2.620
18833WAT     H156741   1.237   6.171   2.547
18833WAT     H256742   1.388   6.136   2.600
18834WAT      O56743   8.484   5.207   0.855
18834WAT     H156744   8.579   5.227   0.830
18834WAT     H256745   8.423   5.273   0.812
18835WAT      O56746   6.572   2.419   8.981
18835WAT     H156747   6.502   2.351   9.002
18835WAT     H256748   6.599   2.410   8.885
18836WAT      O56749   3.760   5.653   6.543
18836WAT     H156750   3.668   5.643   6.581
18836WAT     H256751   3.815   5.711   6.603
18837WAT      O56752   6.384   0.621   7.210
18837WAT     H156753   6.298   0.584   7.245
18837WAT     H256754   6.381   0.721   7.211
18838WAT      O56755   0.079   7.805   3.943
18838WAT     H156756   0.137   7.866   3.889
18838WAT     H256757   0.106   7.710   3.926
18839WAT      O56758   7.512   9.249   1.650
18839WAT     H156759   7.420   9.271   1.682
18839WAT     H256760   7.577   9.259   1.726
18840WAT      O56761   5.493   7.908   2.145
18840WAT     H156762   5.488   7.944   2.052
18840WAT     H256763   5.411   7.855   2.165
18841WAT      O56764   3.981   8.398   2.259
18841WAT     H156765   3.948   8.389   2.353
18841WAT     H256766   4.036   8.318   2.235
18842WAT      O56767   7.679   9.838   6.721
18842WAT     H156768   7.641   9.771   6.657
18842WAT     H256769   7.761   9.801   6.764
18843WAT      O56770   8.988   3.091   8.752
18843WAT     H156771   8.907   3.053   8.706
18843WAT     H256772   9.043   3.016   8.789
18844WAT      O56773   7.052   7.540   6.259
18844WAT     H156774   6.955   7.520   6.272
18844WAT     H256775   7.082   7.504   6.171
18845WAT      O56776   0.689   5.292   2.550
18845WAT     H156777   0.733   5.373   2.511
18845WAT     H256778   0.645   5.239   2.478
18846WAT      O56779   0.671   2.566   1.012
18846WAT     H156780   0.583   2.552   1.057
18846WAT     H256781   0.666   2.534   0.917
18847WAT      O56782   7.672   5.809   8.884
18847WAT     H156783   7.692   5.899   8.845
18847WAT     H256784   7.628   5.820   8.973
18848WAT      O56785   0.379   3.001   8.275
18848WAT     H156786   0.324   3.059   8.215
18848WAT     H256787   0.378   3.038   8.368
18849WAT      O56788   0.832   5.975   0.988
18849WAT     H156789   0.740   6.015   0.984
18849WAT     H256790   0.848   5.921   0.905
18850WAT      O56791   3.555   3.477   4.927
18850WAT     H156792   3.537   3.432   5.015
18850WAT     H256793   3.620   3.551   4.941
18851WAT      O56794   5.142   5.947   9.712
18851WAT     H156795   5.156   5.874   9.779
18851WAT     H256796   5.179   6.032   9.748
18852WAT      O56797   7.416   0.927   7.692
18852WAT     H156798   7.321   0.896   7.693
18852WAT     H256799   7.421   1.022   7.723
18853WAT      O56800   7.765   6.603   3.898
18853WAT     H156801   7.848   6.654   3.918
18853WAT     H256802   7.778   6.551   3.813
18854WAT      O56803   6.709   4.578   7.789
18854WAT     H156804   6.747   4.520   7.717
18854WAT     H256805   6.783   4.612   7.848
18855WAT      O56806   3.783   4.829   0.959
18855WAT     H156807   3.840   4.747   0.954
18855WAT     H256808   3.698   4.814   0.910
18856WAT      O56809   9.208   8.768   4.159
18856WAT     H156810   9.247   8.788   4.249
18856WAT     H256811   9.200   8.853   4.107
18857WAT      O56812   8.685   2.732   2.626
18857WAT     H156813   8.728   2.644   2.647
18857WAT     H256814   8.619   2.756   2.697
18858WAT      O56815   4.768   2.237   5.865
18858WAT     H156816   4.801   2.252   5.958
18858WAT     H256817   4.788   2.316   5.808
18859WAT      O56818   0.029   0.052   3.676
18859WAT     H156819   0.067   0.145   3.681
18859WAT     H256820   0.097  -0.013   3.710
18860WAT      O56821   4.373   9.834   9.066
18860WAT     H156822   4.313   9.761   9.033
18860WAT     H256823   4.322   9.895   9.126
18861WAT      O56824   0.634   5.861   5.251
18861WAT     H156825   0.665   5.898   5.338
18861WAT     H256826   0.555   5.802   5.266
18862WAT      O56827   7.836   1.911   1.070
18862WAT     H156828   7.888   1.985   1.113
18862WAT     H256829   7.811   1.844   1.140
18863WAT      O56830   9.512   7.623   3.364
18863WAT     H156831   9.477   7.608   3.456
18863WAT     H256832   9.489   7.715   3.333
18864WAT      O56833   9.270   3.045   3.843
18864WAT     H156834   9.318   3.028   3.929
18864WAT     H256835   9.281   2.966   3.783
18865WAT      O56836   5.520   9.285   9.152
18865WAT     H156837   5.564   9.373   9.132
18865WAT     H256838   5.554   9.216   9.088
18866WAT      O56839   4.711   1.768   7.304
18866WAT     H156840   4.674   1.724   7.386
18866WAT     H256841   4.643   1.829   7.265
18867WAT      O56842   8.045   2.716   8.711
18867WAT     H156843   8.009   2.701   8.619
18867WAT     H256844   7.973   2.697   8.779
18868WAT      O56845   1.079   7.753   5.047
18868WAT     H156846   1.134   7.700   4.983
18868WAT     H256847   1.081   7.708   5.137
18869WAT      O56848   8.371   8.542   5.231
18869WAT     H156849   8.438   8.472   5.209
18869WAT     H256850   8.403   8.595   5.310
18870WAT      O56851   2.587   9.310   2.847
18870WAT     H156852   2.502   9.359   2.867
18870WAT     H256853   2.636   9.291   2.932
18871WAT      O56854   8.391   4.514   2.518
18871WAT     H156855   8.371   4.545   2.611
18871WAT     H256856   8.378   4.415   2.511
18872WAT      O56857   5.791   8.211   7.764
18872WAT     H156858   5.879   8.210   7.811
18872WAT     H256859   5.717   8.200   7.831
18873WAT      O56860   1.924   6.619   8.678
18873WAT     H156861   1.975   6.703   8.696
18873WAT     H256862   1.987   6.545   8.655
18874WAT      O56863   5.288   3.347   0.762
18874WAT     H156864   5.365   3.285   0.750
18874WAT     H256865   5.207   3.308   0.718
18875WAT      O56866   0.533   4.053   9.599
18875WAT     H156867   0.471   4.131   9.593
18875WAT     H256868   0.577   4.039   9.510
18876WAT      O56869   9.003   6.132   8.399
18876WAT     H156870   9.017   6.124   8.497
18876WAT     H256871   9.056   6.210   8.364
18877WAT      O56872   4.970   0.327   5.417
18877WAT     H156873   5.028   0.256   5.375
18877WAT     H256874   5.021   0.374   5.488
18878WAT      O56875   4.359   3.856   9.613
18878WAT     H156876   4.346   3.859   9.514
18878WAT     H256877   4.296   3.790   9.654
18879WAT      O56878   8.450   7.421   5.333
18879WAT     H156879   8.352   7.436   5.341
18879WAT     H256880   8.471   7.326   5.356
18880WAT      O56881   6.655   7.795   5.663
18880WAT     H156882   6.750   7.823   5.674
18880WAT     H256883   6.646   7.699   5.689
18881WAT      O56884   5.436   3.997   1.147
18881WAT     H156885   5.387   3.927   1.094
18881WAT     H256886   5.534   3.988   1.132
18882WAT      O56887   4.338   3.066   1.715
18882WAT     H156888   4.424   3.097   1.756
18882WAT     H256889   4.306   2.984   1.763
18883WAT      O56890   3.992   4.410   5.360
18883WAT     H156891   4.050   4.485   5.327
18883WAT     H256892   4.007   4.399   5.459
18884WAT      O56893   8.800   1.846   2.518
18884WAT     H156894   8.774   1.760   2.475
18884WAT     H256895   8.816   1.915   2.447
18885WAT      O56896   0.275   2.227   7.884
18885WAT     H156897   0.231   2.192   7.967
18885WAT     H256898   0.213   2.289   7.837
18886WAT      O56899   4.278   4.316   6.973
18886WAT     H156900   4.363   4.272   7.001
18886WAT     H256901   4.203   4.285   7.032
18887WAT      O56902   7.973   4.149   8.441
18887WAT     H156903   7.996   4.105   8.528
18887WAT     H256904   8.023   4.105   8.367
18888WAT      O56905   1.335   5.764   0.092
18888WAT     H156906   1.312   5.716   0.007
18888WAT     H256907   1.273   5.736   0.165
18889WAT      O56908   6.623   9.690   1.947
18889WAT     H156909   6.555   9.690   1.874
18889WAT     H256910   6.674   9.776   1.945
18890WAT      O56911   4.573   8.470   0.143
18890WAT     H156912   4.668   8.459   0.113
18890WAT     H256913   4.572   8.507   0.236
18891WAT      O56914   8.105   5.630   9.730
18891WAT     H156915   8.202   5.609   9.737
18891WAT     H256916   8.068   5.648   9.821
18892WAT      O56917   6.004   3.287   8.238
18892WAT     H156918   5.909   3.310   8.220
18892WAT     H256919   6.047   3.252   8.154
18893WAT      O56920   4.996   3.212   5.261
18893WAT     H156921   4.967   3.265   5.340
18893WAT     H256922   5.035   3.125   5.291
18894WAT      O56923   7.379   3.709   1.767
18894WAT     H156924   7.439   3.786   1.790
18894WAT     H256925   7.412   3.664   1.684
18895WAT      O56926   7.976   0.353   4.505
18895WAT     H156927   7.963   0.449   4.480
18895WAT     H256928   8.063   0.320   4.467
18896WAT      O56929   5.121   6.031   5.795
18896WAT     H156930   5.128   6.110   5.734
18896WAT     H256931   5.109   6.063   5.889
18897WAT      O56932   2.804   2.622   3.906
18897WAT     H156933   2.751   2.706   3.921
18897WAT     H256934   2.891   2.645   3.862
18898WAT      O56935   6.851   1.000   2.697
18898WAT     H156936   6.810   0.912   2.718
18898WAT     H256937   6.811   1.071   2.755
18899WAT      O56938   9.034   9.003   3.810
18899WAT     H156939   9.065   9.036   3.721
18899WAT     H256940   8.947   9.046   3.834
18900WAT      O56941   5.227   4.402   6.113
18900WAT     H156942   5.217   4.306   6.136
18900WAT     H256943   5.313   4.437   6.150
18901WAT      O56944   1.528   9.817   9.608
18901WAT     H156945   1.479   9.892   9.653
18901WAT     H256946   1.593   9.855   9.543
18902WAT      O56947   3.439   6.940   9.274
18902WAT     H156948   3.471   6.882   9.348
18902WAT     H256949   3.510   6.947   9.203
18903WAT      O56950   0.847   4.736   5.645
18903WAT     H156951   0.763   4.783   5.620
18903WAT     H256952   0.882   4.774   5.731
18904WAT      O56953   9.315   0.351   0.096
18904WAT     H156954   9.230   0.402   0.107
18904WAT     H256955   9.318   0.277   0.163
18905WAT      O56956   5.548   8.976   1.818
18905WAT     H156957   5.606   8.896   1.801
18905WAT     H256958   5.603   9.050   1.857
18906WAT      O56959   6.614   4.834   8.755
18906WAT     H156960   6.609   4.896   8.833
18906WAT     H256961   6.577   4.879   8.674
18907WAT      O56962   4.303   2.056   6.187
18907WAT     H156963   4.218   2.073   6.238
18907WAT     H256964   4.381   2.065   6.249
18908WAT      O56965   6.136   7.795   1.211
18908WAT     H156966   6.129   7.706   1.167
18908WAT     H256967   6.063   7.855   1.177
18909WAT      O56968   5.976   8.932   9.164
18909WAT     H156969   5.910   8.942   9.240
18909WAT     H256970   6.051   8.996   9.177
18910WAT      O56971   3.628   2.004   9.534
18910WAT     H156972   3.678   2.090   9.545
18910WAT     H256973   3.691   1.933   9.500
18911WAT      O56974   0.342   2.334   5.261
18911WAT     H156975   0.407   2.277   5.310
18911WAT     H256976   0.254   2.287   5.255
18912WAT      O56977   9.419   2.178   1.588
18912WAT     H156978   9.392   2.106   1.652
18912WAT     H256979   9.502   2.224   1.622
18913WAT      O56980   1.063   0.681   8.722
18913WAT     H156981   1.072   0.781   8.729
18913WAT     H256982   1.062   0.642   8.814
18914WAT      O56983   6.949   1.091   7.053
18914WAT     H156984   6.870   1.121   7.000
18914WAT     H256985   7.013   1.168   7.064
18915WAT      O56986   2.578   0.796   1.171
18915WAT     H156987   2.595   0.895   1.177
18915WAT     H256988   2.614   0.762   1.084
18916WAT      O56989   7.169   8.384   5.364
18916WAT     H156990   7.266   8.364   5.350
18916WAT     H256991   7.115   8.339   5.292
18917WAT      O56992   7.455   8.202   8.771
18917WAT     H156993   7.486   8.204   8.676
18917WAT     H256994   7.419   8.112   8.792
18918WAT      O56995   7.753   9.690   3.216
18918WAT     H156996   7.745   9.623   3.142
18918WAT     H256997   7.840   9.740   3.207
18919WAT      O56998   7.652   1.891   1.656
18919WAT     H156999   7.589   1.936   1.592
18919WAT     H257000   7.611   1.805   1.687
18920WAT      O57001   4.445   0.507   5.211
18920WAT     H157002   4.432   0.430   5.274
18920WAT     H257003   4.537   0.506   5.174
18921WAT      O57004   1.222   7.960   9.630
18921WAT     H157005   1.197   7.899   9.705
18921WAT     H257006   1.290   8.026   9.662
18922WAT      O57007   7.551   4.599   0.460
18922WAT     H157008   7.621   4.546   0.412
18922WAT     H257009   7.546   4.568   0.556
18923WAT      O57010   1.766   3.094   7.819
18923WAT     H157011   1.692   3.148   7.778
18923WAT     H257012   1.729   3.034   7.890
18924WAT      O57013   8.759   0.556   7.398
18924WAT     H157014   8.813   0.500   7.461
18924WAT     H257015   8.694   0.611   7.451
18925WAT      O57016   6.856   7.975   2.364
18925WAT     H157017   6.884   7.946   2.455
18925WAT     H257018   6.799   8.056   2.371
18926WAT      O57019   6.302   6.313   8.345
18926WAT     H157020   6.278   6.227   8.301
18926WAT     H257021   6.330   6.296   8.440
18927WAT      O57022   4.737   6.545   5.437
18927WAT     H157023   4.712   6.594   5.354
18927WAT     H257024   4.713   6.600   5.518
18928WAT      O57025   9.678   9.829   8.886
18928WAT     H157026   9.672   9.881   8.801
18928WAT     H257027   9.631   9.878   8.959
18929WAT      O57028   5.174   6.680   2.390
18929WAT     H157029   5.148   6.685   2.486
18929WAT     H257030   5.191   6.585   2.364
18930WAT      O57031   6.853   3.453   6.200
18930WAT     H157032   6.792   3.373   6.195
18930WAT     H257033   6.875   3.483   6.107
18931WAT      O57034   2.728   7.711   8.078
18931WAT     H157035   2.795   7.734   8.007
18931WAT     H257036   2.637   7.708   8.038
18932WAT      O57037   4.890   0.817   9.554
18932WAT     H157038   4.973   0.761   9.552
18932WAT     H257039   4.901   0.895   9.493
18933WAT      O57040   8.167   3.692   9.768
18933WAT     H157041   8.117   3.607   9.782
18933WAT     H257042   8.180   3.738   9.856
18934WAT      O57043   5.449   2.800   6.509
18934WAT     H157044   5.404   2.852   6.582
18934WAT     H257045   5.476   2.710   6.545
18935WAT      O57046   5.106   8.097   1.082
18935WAT     H157047   5.073   8.169   1.021
18935WAT     H257048   5.037   8.079   1.153
18936WAT      O57049   9.375   3.910   0.500
18936WAT     H157050   9.460   3.879   0.459
18936WAT     H257051   9.364   3.867   0.590
18937WAT      O57052   5.735   0.122   7.319
18937WAT     H157053   5.675   0.044   7.307
18937WAT     H257054   5.784   0.114   7.406
18938WAT      O57055   6.702   8.411   8.270
18938WAT     H157056   6.681   8.443   8.177
18938WAT     H257057   6.656   8.469   8.337
18939WAT      O57058   5.343   5.294   8.395
18939WAT     H157059   5.362   5.359   8.321
18939WAT     H257060   5.386   5.206   8.374
18940WAT      O57061   0.389   1.452   4.029
18940WAT     H157062   0.415   1.407   3.943
18940WAT     H257063   0.346   1.385   4.089
18941WAT      O57064   5.545   6.344   3.292
18941WAT     H157065   5.459   6.395   3.297
18941WAT     H257066   5.619   6.401   3.329
18942WAT      O57067   0.781   0.502   4.555
18942WAT     H157068   0.714   0.491   4.481
18942WAT     H257069   0.822   0.413   4.575
18943WAT      O57070   0.035   1.861   2.252
18943WAT     H157071  -0.030   1.937   2.240
18943WAT     H257072   0.009   1.785   2.193
18944WAT      O57073   7.280   7.547   8.069
18944WAT     H157074   7.282   7.640   8.106
18944WAT     H257075   7.186   7.512   8.072
18945WAT      O57076   3.749   7.192   0.201
18945WAT     H157077   3.775   7.141   0.120
18945WAT     H257078   3.817   7.264   0.218
18946WAT      O57079   7.540   1.410   9.558
18946WAT     H157080   7.551   1.340   9.488
18946WAT     H257081   7.616   1.474   9.553
18947WAT      O57082   2.025   4.361   7.550
18947WAT     H157083   2.124   4.360   7.560
18947WAT     H257084   1.999   4.423   7.476
18948WAT      O57085   8.971   3.312   9.774
18948WAT     H157086   9.052   3.264   9.808
18948WAT     H257087   9.000   3.397   9.729
18949WAT      O57088   3.249   6.794   5.812
18949WAT     H157089   3.247   6.794   5.712
18949WAT     H257090   3.325   6.852   5.843
18950WAT      O57091   3.686   9.193   6.162
18950WAT     H157092   3.729   9.119   6.110
18950WAT     H257093   3.637   9.154   6.240
18951WAT      O57094   5.322   6.023   2.285
18951WAT     H157095   5.346   5.926   2.292
18951WAT     H257096   5.384   6.077   2.342
18952WAT      O57097   6.594   7.488   8.340
18952WAT     H157098   6.514   7.444   8.298
18952WAT     H257099   6.566   7.534   8.424
18953WAT      O57100   2.922   0.111   3.529
18953WAT     H157101   2.977   0.065   3.459
18953WAT     H257102   2.858   0.045   3.569
18954WAT      O57103   4.947   9.073   5.961
18954WAT     H157104   5.022   9.138   5.952
18954WAT     H257105   4.862   9.114   5.928
18955WAT      O57106   8.167   9.398   1.270
18955WAT     H157107   8.187   9.304   1.242
18955WAT     H257108   8.252   9.449   1.279
18956WAT      O57109   7.058   6.654   7.394
18956WAT     H157110   7.026   6.730   7.338
18956WAT     H257111   7.055   6.679   7.490
18957WAT      O57112   1.517   7.963   2.030
18957WAT     H157113   1.429   7.945   2.074
18957WAT     H257114   1.510   7.945   1.932
18958WAT      O57115   4.374   5.513   2.502
18958WAT     H157116   4.352   5.422   2.468
18958WAT     H257117   4.421   5.564   2.430
18959WAT      O57118   4.145   0.868   0.156
18959WAT     H157119   4.181   0.931   0.225
18959WAT     H257120   4.201   0.785   0.155
18960WAT      O57121   7.786   9.677   3.497
18960WAT     H157122   7.873   9.644   3.532
18960WAT     H257123   7.786   9.673   3.397
18961WAT      O57124   2.011   7.081   0.765
18961WAT     H157125   1.951   7.014   0.810
18961WAT     H257126   2.085   7.106   0.827
18962WAT      O57127   1.709   8.250   5.592
18962WAT     H157128   1.743   8.164   5.552
18962WAT     H257129   1.741   8.327   5.537
18963WAT      O57130   6.959   2.947   3.963
18963WAT     H157131   7.017   3.021   3.997
18963WAT     H257132   6.865   2.978   3.956
18964WAT      O57133   9.164   4.510   6.147
18964WAT     H157134   9.206   4.490   6.059
18964WAT     H257135   9.131   4.605   6.147
18965WAT      O57136   5.683   6.719   9.244
18965WAT     H157137   5.649   6.724   9.150
18965WAT     H257138   5.643   6.793   9.298
18966WAT      O57139   6.940   7.902   1.579
18966WAT     H157140   6.983   7.845   1.509
18966WAT     H257141   6.850   7.864   1.602
18967WAT      O57142   1.878   8.706   3.770
18967WAT     H157143   1.871   8.766   3.849
18967WAT     H257144   1.820   8.626   3.783
18968WAT      O57145   0.813   7.152   1.548
18968WAT     H157146   0.823   7.178   1.644
18968WAT     H257147   0.722   7.113   1.533
18969WAT      O57148   1.644   7.586   0.452
18969WAT     H157149   1.576   7.650   0.487
18969WAT     H257150   1.710   7.564   0.524
18970WAT      O57151   4.260   8.307   5.021
18970WAT     H157152   4.271   8.232   4.956
18970WAT     H257153   4.229   8.389   4.972
18971WAT      O57154   7.742   3.421   2.971
18971WAT     H157155   7.798   3.386   2.896
18971WAT     H257156   7.740   3.521   2.967
18972WAT      O57157   5.787   8.689   3.139
18972WAT     H157158   5.883   8.677   3.116
18972WAT     H257159   5.750   8.768   3.090
18973WAT      O57160   4.892   0.393   0.121
18973WAT     H157161   4.984   0.431   0.109
18973WAT     H257162   4.867   0.340   0.041
18974WAT      O57163   8.558   2.943   4.403
18974WAT     H157164   8.580   2.885   4.482
18974WAT     H257165   8.586   3.037   4.422
18975WAT      O57166   9.349   1.300   8.882
18975WAT     H157167   9.259   1.311   8.840
18975WAT     H257168   9.395   1.389   8.886
18976WAT      O57169   1.438   8.133   5.158
18976WAT     H157170   1.384   8.064   5.206
18976WAT     H257171   1.391   8.159   5.073
18977WAT      O57172   1.341   7.534   0.032
18977WAT     H157173   1.373   7.477  -0.043
18977WAT     H257174   1.241   7.528   0.038
18978WAT      O57175   7.596   0.483   5.707
18978WAT     H157176   7.626   0.416   5.640
18978WAT     H257177   7.498   0.476   5.720
18979WAT      O57178   5.971   2.921   1.631
18979WAT     H157179   5.995   3.016   1.648
18979WAT     H257180   5.895   2.917   1.566
18980WAT      O57181   8.256   5.536   1.181
18980WAT     H157182   8.298   5.447   1.199
18980WAT     H257183   8.309   5.585   1.113
18981WAT      O57184   3.712   9.462   8.294
18981WAT     H157185   3.766   9.411   8.361
18981WAT     H257186   3.742   9.557   8.292
18982WAT      O57187   7.864   1.224   6.261
18982WAT     H157188   7.814   1.259   6.340
18982WAT     H257189   7.921   1.147   6.290
18983WAT      O57190   4.478   9.612   5.136
18983WAT     H157191   4.571   9.649   5.125
18983WAT     H257192   4.438   9.595   5.045
18984WAT      O57193   6.683   7.951   0.799
18984WAT     H157194   6.670   7.933   0.897
18984WAT     H257195   6.771   7.914   0.770
18985WAT      O57196   8.751   1.966   1.106
18985WAT     H157197   8.735   2.034   1.034
18985WAT     H257198   8.665   1.920   1.128
18986WAT      O57199   9.383   7.729   5.450
18986WAT     H157200   9.317   7.676   5.397
18986WAT     H257201   9.367   7.716   5.547
18987WAT      O57202   7.138   5.410   2.842
18987WAT     H157203   7.046   5.433   2.873
18987WAT     H257204   7.181   5.492   2.805
18988WAT      O57205   1.068   7.298   7.575
18988WAT     H157206   0.998   7.278   7.506
18988WAT     H257207   1.024   7.333   7.657
18989WAT      O57208   3.981   8.407   9.696
18989WAT     H157209   4.046   8.370   9.763
18989WAT     H257210   3.896   8.430   9.742
18990WAT      O57211   1.103   0.543   9.463
18990WAT     H157212   1.111   0.451   9.500
18990WAT     H257213   1.137   0.609   9.530
18991WAT      O57214   3.673   4.190   5.583
18991WAT     H157215   3.716   4.265   5.634
18991WAT     H257216   3.576   4.210   5.572
18992WAT      O57217   5.384   9.352   8.103
18992WAT     H157218   5.412   9.331   8.010
18992WAT     H257219   5.454   9.320   8.167
18993WAT      O57220   2.784   2.462   3.693
18993WAT     H157221   2.810   2.508   3.778
18993WAT     H257222   2.795   2.525   3.616
18994WAT      O57223   3.833   8.992   1.475
18994WAT     H157224   3.864   9.077   1.517
18994WAT     H257225   3.792   9.011   1.386
18995WAT      O57226   3.919   8.866   0.932
18995WAT     H157227   4.017   8.879   0.916
18995WAT     H257228   3.868   8.910   0.859
18996WAT      O57229   3.012   6.029   4.509
18996WAT     H157230   3.035   5.991   4.420
18996WAT     H257231   3.028   5.961   4.580
18997WAT      O57232   1.253   3.885   7.751
18997WAT     H157233   1.169   3.923   7.713
18997WAT     H257234   1.327   3.894   7.685
18998WAT      O57235   6.296   2.025   7.773
18998WAT     H157236   6.313   1.959   7.847
18998WAT     H257237   6.377   2.032   7.716
18999WAT      O57238   9.204   3.072   8.226
18999WAT     H157239   9.119   3.035   8.263
18999WAT     H257240   9.253   3.120   8.299
19000WAT      O57241   3.073   7.042   6.936
19000WAT     H157242   3.078   7.005   6.843
19000WAT     H257243   3.144   7.111   6.948
19001WAT      O57244   3.469   4.066   8.444
19001WAT     H157245   3.542   4.010   8.484
19001WAT     H257246   3.495   4.093   8.351
19002WAT      O57247   3.982   1.571   3.662
19002WAT     H157248   3.988   1.604   3.756
19002WAT     H257249   3.909   1.503   3.654
19003WAT      O57250   4.591   8.218   0.523
19003WAT     H157251   4.496   8.199   0.496
19003WAT     H257252   4.599   8.212   0.623
19004WAT      O57253   2.387   2.041   0.060
19004WAT     H157254   2.395   2.141   0.065
19004WAT     H257255   2.453   1.999   0.123
19005WAT      O57256   8.974   4.556   3.828
19005WAT     H157257   9.059   4.560   3.774
19005WAT     H257258   8.990   4.506   3.912
19006WAT      O57259   2.447   8.862   9.463
19006WAT     H157260   2.496   8.863   9.550
19006WAT     H257261   2.513   8.850   9.388
19007WAT      O57262   4.074   5.951   1.961
19007WAT     H157263   4.071   6.050   1.949
19007WAT     H257264   4.012   5.907   1.894
19008WAT      O57265   9.576   2.561   9.879
19008WAT     H157266   9.576   2.589   9.783
19008WAT     H257267   9.646   2.491   9.893
19009WAT      O57268   1.854   3.550   5.592
19009WAT     H157269   1.776   3.613   5.585
19009WAT     H257270   1.878   3.517   5.501
19010WAT      O57271   0.471   9.201   2.651
19010WAT     H157272   0.491   9.217   2.748
19010WAT     H257273   0.378   9.167   2.641
19011WAT      O57274   0.632   8.123   7.404
19011WAT     H157275   0.654   8.176   7.322
19011WAT     H257276   0.539   8.087   7.397
19012WAT      O57277   9.276   7.506   5.009
19012WAT     H157278   9.329   7.583   5.045
19012WAT     H257279   9.337   7.427   4.999
19013WAT      O57280   2.828   7.855   7.320
19013WAT     H157281   2.903   7.911   7.285
19013WAT     H257282   2.851   7.758   7.309
19014WAT      O57283   5.363   7.801   3.096
19014WAT     H157284   5.382   7.779   3.192
19014WAT     H257285   5.446   7.788   3.042
19015WAT      O57286   6.771   6.639   2.061
19015WAT     H157287   6.689   6.671   2.014
19015WAT     H257288   6.749   6.623   2.158
19016WAT      O57289   1.605   6.972   2.156
19016WAT     H157290   1.571   6.878   2.163
19016WAT     H257291   1.641   7.001   2.245
19017WAT      O57292   6.637   2.389   1.569
19017WAT     H157293   6.731   2.398   1.600
19017WAT     H257294   6.575   2.401   1.646
19018WAT      O57295   5.741   6.832   4.153
19018WAT     H157296   5.807   6.811   4.225
19018WAT     H257297   5.670   6.761   4.150
19019WAT      O57298   2.925   0.993   7.516
19019WAT     H157299   2.842   1.044   7.494
19019WAT     H257300   2.947   1.006   7.613
19020WAT      O57301   1.538   4.706   4.691
19020WAT     H157302   1.622   4.746   4.728
19020WAT     H257303   1.494   4.772   4.630
19021WAT      O57304   0.812   7.932   9.758
19021WAT     H157305   0.874   7.994   9.710
19021WAT     H257306   0.726   7.980   9.778
19022WAT      O57307   0.533   0.755   3.523
19022WAT     H157308   0.608   0.722   3.467
19022WAT     H257309   0.449   0.758   3.468
19023WAT      O57310   1.237   6.528   6.021
19023WAT     H157311   1.166   6.497   5.959
19023WAT     H257312   1.198   6.592   6.087
19024WAT      O57313   8.035   2.660   7.725
19024WAT     H157314   8.017   2.584   7.662
19024WAT     H257315   8.112   2.636   7.785
19025WAT      O57316   1.403   3.374   8.186
19025WAT     H157317   1.490   3.345   8.225
19025WAT     H257318   1.409   3.374   8.087
19026WAT      O57319   0.902   0.169   6.932
19026WAT     H157320   0.964   0.093   6.912
19026WAT     H257321   0.830   0.172   6.862
19027WAT      O57322   8.009   8.573   3.269
19027WAT     H157323   8.020   8.474   3.278
19027WAT     H257324   8.063   8.605   3.192
19028WAT      O57325   4.250   5.891   0.093
19028WAT     H157326   4.199   5.806   0.111
19028WAT     H257327   4.186   5.967   0.090
19029WAT      O57328   4.271   6.720   6.802
19029WAT     H157329   4.218   6.713   6.886
19029WAT     H257330   4.296   6.628   6.770
19030WAT      O57331   7.813   5.420   0.906
19030WAT     H157332   7.869   5.501   0.926
19030WAT     H257333   7.779   5.381   0.991
19031WAT      O57334   2.248   6.967   5.282
19031WAT     H157335   2.192   7.032   5.232
19031WAT     H257336   2.193   6.925   5.355
19032WAT      O57337   2.747   2.046   9.832
19032WAT     H157338   2.712   2.113   9.767
19032WAT     H257339   2.739   2.083   9.925
19033WAT      O57340   6.953   2.272   2.978
19033WAT     H157341   6.979   2.283   2.882
19033WAT     H257342   6.861   2.308   2.992
19034WAT      O57343   5.183   1.673   5.121
19034WAT     H157344   5.154   1.653   5.028
19034WAT     H257345   5.102   1.688   5.178
19035WAT      O57346   8.602   4.818   9.061
19035WAT     H157347   8.572   4.803   9.156
19035WAT     H257348   8.567   4.907   9.030
19036WAT      O57349   0.581   6.773   6.308
19036WAT     H157350   0.659   6.759   6.247
19036WAT     H257351   0.507   6.712   6.282
19037WAT      O57352   7.528   9.537   0.265
19037WAT     H157353   7.542   9.469   0.338
19037WAT     H257354   7.617   9.574   0.237
19038WAT      O57355   0.192   0.559   6.883
19038WAT     H157356   0.215   0.656   6.879
19038WAT     H257357   0.172   0.525   6.791
19039WAT      O57358   2.851   4.531   9.588
19039WAT     H157359   2.809   4.541   9.497
19039WAT     H257360   2.809   4.596   9.651
19040WAT      O57361   2.612   4.325   9.580
19040WAT     H157362   2.574   4.368   9.498
19040WAT     H257363   2.538   4.296   9.640
19041WAT      O57364   2.705   3.613   0.509
19041WAT     H157365   2.668   3.520   0.520
19041WAT     H257366   2.655   3.675   0.569
19042WAT      O57367   7.953   0.288   6.715
19042WAT     H157368   7.895   0.278   6.634
19042WAT     H257369   7.969   0.199   6.756
19043WAT      O57370   9.542   1.968   7.238
19043WAT     H157371   9.465   1.939   7.295
19043WAT     H257372   9.516   1.962   7.142
19044WAT      O57373   8.893   5.678   8.130
19044WAT     H157374   8.981   5.637   8.157
19044WAT     H257375   8.885   5.768   8.171
19045WAT      O57376   1.393   7.200   8.928
19045WAT     H157377   1.461   7.185   9.000
19045WAT     H257378   1.353   7.113   8.901
19046WAT      O57379   0.709   6.830   3.164
19046WAT     H157380   0.632   6.833   3.099
19046WAT     H257381   0.677   6.795   3.252
19047WAT      O57382   4.217   9.331   8.996
19047WAT     H157383   4.215   9.235   9.023
19047WAT     H257384   4.312   9.361   8.984
19048WAT      O57385   2.769   4.618   4.398
19048WAT     H157386   2.670   4.626   4.387
19048WAT     H257387   2.804   4.699   4.443
19049WAT      O57388   0.268   5.185   1.226
19049WAT     H157389   0.215   5.161   1.144
19049WAT     H257390   0.316   5.104   1.259
19050WAT      O57391   5.332   5.975   4.862
19050WAT     H157392   5.276   5.973   4.945
19050WAT     H257393   5.425   5.947   4.883
19051WAT      O57394   6.222   0.952   7.417
19051WAT     H157395   6.231   1.015   7.493
19051WAT     H257396   6.168   0.873   7.445
19052WAT      O57397   1.799   0.294   5.447
19052WAT     H157398   1.702   0.292   5.425
19052WAT     H257399   1.811   0.308   5.545
19053WAT      O57400   0.911   5.562   7.057
19053WAT     H157401   0.999   5.518   7.072
19053WAT     H257402   0.907   5.598   6.964
19054WAT      O57403   8.782   3.573   9.395
19054WAT     H157404   8.860   3.624   9.431
19054WAT     H257405   8.767   3.598   9.300
19055WAT      O57406   5.565   6.750   6.675
19055WAT     H157407   5.472   6.731   6.707
19055WAT     H257408   5.582   6.697   6.591
19056WAT      O57409   2.506   2.645   3.053
19056WAT     H157410   2.480   2.709   3.126
19056WAT     H257411   2.552   2.566   3.093
19057WAT      O57412   8.722   1.451   6.590
19057WAT     H157413   8.765   1.417   6.507
19057WAT     H257414   8.684   1.542   6.574
19058WAT      O57415   3.124   5.266   5.586
19058WAT     H157416   3.048   5.264   5.520
19058WAT     H257417   3.186   5.341   5.563
19059WAT      O57418   5.622   1.860   6.074
19059WAT     H157419   5.679   1.792   6.027
19059WAT     H257420   5.640   1.855   6.172
19060WAT      O57421   1.461   8.920   6.302
19060WAT     H157422   1.407   8.969   6.369
19060WAT     H257423   1.428   8.826   6.294
19061WAT      O57424   5.709   8.156   0.297
19061WAT     H157425   5.737   8.251   0.315
19061WAT     H257426   5.749   8.096   0.366
19062WAT      O57427   8.062   4.012   2.351
19062WAT     H157428   8.134   3.983   2.288
19062WAT     H257429   8.072   4.110   2.370
19063WAT      O57430   1.596   3.719   5.784
19063WAT     H157431   1.643   3.806   5.797
19063WAT     H257432   1.504   3.725   5.821
19064WAT      O57433   2.038   9.672   0.941
19064WAT     H157434   2.045   9.580   0.980
19064WAT     H257435   1.950   9.683   0.895
19065WAT      O57436   7.435   5.352   2.088
19065WAT     H157437   7.412   5.258   2.113
19065WAT     H257438   7.532   5.357   2.065
19066WAT      O57439   1.268   3.693   8.212
19066WAT     H157440   1.317   3.766   8.261
19066WAT     H257441   1.303   3.604   8.242
19067WAT      O57442   2.798   8.027   3.770
19067WAT     H157443   2.786   8.064   3.862
19067WAT     H257444   2.796   7.927   3.774
19068WAT      O57445   5.814   9.078   5.337
19068WAT     H157446   5.903   9.096   5.295
19068WAT     H257447   5.761   9.017   5.278
19069WAT      O57448   2.041   9.358   7.854
19069WAT     H157449   2.001   9.274   7.817
19069WAT     H257450   2.066   9.419   7.778
19070WAT      O57451   4.495   1.684   4.522
19070WAT     H157452   4.482   1.654   4.617
19070WAT     H257453   4.445   1.623   4.461
19071WAT      O57454   9.527   5.809   2.524
19071WAT     H157455   9.522   5.862   2.609
19071WAT     H257456   9.516   5.870   2.446
19072WAT      O57457   3.485   6.964   3.500
19072WAT     H157458   3.549   6.945   3.575
19072WAT     H257459   3.459   7.060   3.501
19073WAT      O57460   3.040   5.423   4.246
19073WAT     H157461   3.094   5.488   4.193
19073WAT     H257462   3.067   5.330   4.222
19074WAT      O57463   3.692   6.297   6.133
19074WAT     H157464   3.656   6.295   6.226
19074WAT     H257465   3.655   6.377   6.085
19075WAT      O57466   2.485   4.881   6.139
19075WAT     H157467   2.513   4.853   6.047
19075WAT     H257468   2.452   4.976   6.136
19076WAT      O57469   7.711   6.071   6.559
19076WAT     H157470   7.696   6.100   6.464
19076WAT     H257471   7.711   5.971   6.563
19077WAT      O57472   1.044   1.453   3.568
19077WAT     H157473   0.957   1.487   3.532
19077WAT     H257474   1.064   1.364   3.528
19078WAT      O57475   3.981   6.477   6.792
19078WAT     H157476   3.889   6.444   6.775
19078WAT     H257477   3.993   6.497   6.889
19079WAT      O57478   5.772   9.071   0.132
19079WAT     H157479   5.762   9.167   0.156
19079WAT     H257480   5.691   9.041   0.082
19080WAT      O57481   0.744   7.439   4.027
19080WAT     H157482   0.812   7.471   4.094
19080WAT     H257483   0.667   7.398   4.075
19081WAT      O57484   0.276   0.499   4.913
19081WAT     H157485   0.292   0.402   4.894
19081WAT     H257486   0.309   0.555   4.837
19082WAT      O57487   0.664   8.441   3.227
19082WAT     H157488   0.650   8.496   3.145
19082WAT     H257489   0.681   8.501   3.305
19083WAT      O57490   2.732   1.772   8.592
19083WAT     H157491   2.810   1.828   8.564
19083WAT     H257492   2.754   1.724   8.676
19084WAT      O57493   7.938   8.279   0.044
19084WAT     H157494   8.035   8.266   0.068
19084WAT     H257495   7.884   8.285   0.128
19085WAT      O57496   4.757   1.591   5.838
19085WAT     H157497   4.681   1.648   5.868
19085WAT     H257498   4.843   1.631   5.869
19086WAT      O57499   0.499   6.729   8.695
19086WAT     H157500   0.408   6.731   8.738
19086WAT     H257501   0.492   6.686   8.605
19087WAT      O57502   0.431   6.488   4.100
19087WAT     H157503   0.502   6.554   4.124
19087WAT     H257504   0.460   6.396   4.127
19088WAT      O57505   4.314   6.417   2.851
19088WAT     H157506   4.215   6.404   2.840
19088WAT     H257507   4.362   6.336   2.817
19089WAT      O57508   3.145   8.509   4.244
19089WAT     H157509   3.138   8.531   4.146
19089WAT     H257510   3.056   8.477   4.277
19090WAT      O57511   6.863   1.344   6.080
19090WAT     H157512   6.850   1.300   5.991
19090WAT     H257513   6.781   1.397   6.103
19091WAT      O57514   4.051   8.923   4.784
19091WAT     H157515   4.146   8.924   4.816
19091WAT     H257516   4.025   9.016   4.755
19092WAT      O57517   5.200   1.532   0.386
19092WAT     H157518   5.121   1.557   0.441
19092WAT     H257519   5.203   1.590   0.304
19093WAT      O57520   7.414   2.291   0.214
19093WAT     H157521   7.355   2.338   0.149
19093WAT     H257522   7.508   2.295   0.182
19094WAT      O57523   5.912   4.779   2.937
19094WAT     H157524   5.943   4.688   2.964
19094WAT     H257525   5.890   4.832   3.019
19095WAT      O57526   9.416   5.360   1.025
19095WAT     H157527   9.317   5.364   1.043
19095WAT     H257528   9.462   5.431   1.079
19096WAT      O57529   1.236   6.127   6.064
19096WAT     H157530   1.241   6.080   5.976
19096WAT     H257531   1.162   6.194   6.062
19097WAT      O57532   4.365   7.168   5.353
19097WAT     H157533   4.448   7.202   5.397
19097WAT     H257534   4.334   7.085   5.400
19098WAT      O57535   8.232   3.044   2.675
19098WAT     H157536   8.139   3.064   2.705
19098WAT     H257537   8.258   2.952   2.706
19099WAT      O57538   3.096   0.505   7.502
19099WAT     H157539   3.057   0.597   7.496
19099WAT     H257540   3.052   0.445   7.434
19100WAT      O57541   4.737   3.554   3.761
19100WAT     H157542   4.645   3.557   3.800
19100WAT     H257543   4.738   3.603   3.674
19101WAT      O57544   5.778   6.646   6.134
19101WAT     H157545   5.874   6.649   6.104
19101WAT     H257546   5.720   6.620   6.056
19102WAT      O57547   6.716   9.568   9.241
19102WAT     H157548   6.721   9.667   9.248
19102WAT     H257549   6.636   9.535   9.291
19103WAT      O57550   3.857   4.721   7.855
19103WAT     H157551   3.803   4.729   7.940
19103WAT     H257552   3.924   4.648   7.865
19104WAT      O57553   4.412   5.251   4.321
19104WAT     H157554   4.350   5.205   4.257
19104WAT     H257555   4.400   5.211   4.412
19105WAT      O57556   3.494   7.947   5.164
19105WAT     H157557   3.489   7.929   5.262
19105WAT     H257558   3.519   8.043   5.149
19106WAT      O57559   3.818   2.340   3.648
19106WAT     H157560   3.743   2.404   3.635
19106WAT     H257561   3.905   2.389   3.642
19107WAT      O57562   0.463   3.501   6.768
19107WAT     H157563   0.541   3.494   6.706
19107WAT     H257564   0.421   3.592   6.760
19108WAT      O57565   7.838   9.137   5.897
19108WAT     H157566   7.788   9.065   5.849
19108WAT     H257567   7.773   9.201   5.939
19109WAT      O57568   6.743   2.741   0.387
19109WAT     H157569   6.812   2.716   0.455
19109WAT     H257570   6.659   2.689   0.403
19110WAT      O57571   4.499   7.183   0.488
19110WAT     H157572   4.486   7.277   0.518
19110WAT     H257573   4.467   7.121   0.560
19111WAT      O57574   2.953   4.947   9.285
19111WAT     H157575   2.951   4.848   9.270
19111WAT     H257576   2.868   4.975   9.330
19112WAT      O57577   5.310   6.825   1.161
19112WAT     H157578   5.319   6.894   1.232
19112WAT     H257579   5.237   6.851   1.098
19113WAT      O57580   8.137   7.164   0.824
19113WAT     H157581   8.127   7.072   0.786
19113WAT     H257582   8.054   7.190   0.872
19114WAT      O57583   4.587   0.064   7.414
19114WAT     H157584   4.497   0.106   7.420
19114WAT     H257585   4.628   0.087   7.326
19115WAT      O57586   2.761   2.725   9.623
19115WAT     H157587   2.792   2.745   9.530
19115WAT     H257588   2.668   2.689   9.620
19116WAT      O57589   5.307   8.123   3.102
19116WAT     H157590   5.284   8.209   3.057
19116WAT     H257591   5.224   8.076   3.130
19117WAT      O57592   5.824   6.084   1.401
19117WAT     H157593   5.783   6.151   1.463
19117WAT     H257594   5.776   6.087   1.313
19118WAT      O57595   1.658   7.980   3.019
19118WAT     H157596   1.753   7.992   3.048
19118WAT     H257597   1.609   7.928   3.089
19119WAT      O57598   4.308   9.147   5.369
19119WAT     H157599   4.305   9.225   5.431
19119WAT     H257600   4.364   9.074   5.409
19120WAT      O57601   2.864   3.882   7.267
19120WAT     H157602   2.945   3.830   7.293
19120WAT     H257603   2.891   3.963   7.214
19121WAT      O57604   5.297   9.005   7.494
19121WAT     H157605   5.302   9.099   7.527
19121WAT     H257606   5.202   8.982   7.471
19122WAT      O57607   6.893   2.031   4.102
19122WAT     H157608   6.907   2.024   4.201
19122WAT     H257609   6.885   1.940   4.062
19123WAT      O57610   5.558   2.671   4.044
19123WAT     H157611   5.644   2.635   4.009
19123WAT     H257612   5.575   2.725   4.126
19124WAT      O57613   3.033   3.919   3.710
19124WAT     H157614   3.085   3.986   3.657
19124WAT     H257615   3.037   3.830   3.665
19125WAT      O57616   2.097   7.513   0.957
19125WAT     H157617   2.163   7.566   0.904
19125WAT     H257618   2.083   7.424   0.913
19126WAT      O57619   0.674   1.168   4.892
19126WAT     H157620   0.678   1.228   4.813
19126WAT     H257621   0.578   1.155   4.919
19127WAT      O57622   5.591   5.183   0.709
19127WAT     H157623   5.678   5.160   0.753
19127WAT     H257624   5.541   5.099   0.687
19128WAT      O57625   7.517   6.309   0.560
19128WAT     H157626   7.467   6.236   0.607
19128WAT     H257627   7.551   6.375   0.627
19129WAT      O57628   8.365   4.873   1.870
19129WAT     H157629   8.325   4.852   1.959
19129WAT     H257630   8.311   4.828   1.798
19130WAT      O57631   4.059   2.599   2.512
19130WAT     H157632   4.103   2.684   2.540
19130WAT     H257633   4.077   2.528   2.580
19131WAT      O57634   3.875   9.465   8.005
19131WAT     H157635   3.835   9.552   7.978
19131WAT     H257636   3.898   9.467   8.103
19132WAT      O57637   5.940   7.652   2.552
19132WAT     H157638   5.947   7.721   2.480
19132WAT     H257639   5.876   7.683   2.622
19133WAT      O57640   4.536   6.287   3.202
19133WAT     H157641   4.591   6.346   3.261
19133WAT     H257642   4.445   6.328   3.190
19134WAT      O57643   2.740   8.162   9.513
19134WAT     H157644   2.693   8.237   9.467
19134WAT     H257645   2.773   8.193   9.602
19135WAT      O57646   9.447   3.117   7.781
19135WAT     H157647   9.375   3.100   7.849
19135WAT     H257648   9.534   3.081   7.816
19136WAT      O57649   7.885   2.229   2.244
19136WAT     H157650   7.900   2.328   2.255
19136WAT     H257651   7.792   2.206   2.275
19137WAT      O57652   4.569   7.229   5.497
19137WAT     H157653   4.618   7.313   5.521
19137WAT     H257654   4.583   7.160   5.568
19138WAT      O57655   2.541   0.333   2.945
19138WAT     H157656   2.639   0.313   2.947
19138WAT     H257657   2.526   0.429   2.967
19139WAT      O57658   8.994   9.164   1.157
19139WAT     H157659   8.988   9.066   1.178
19139WAT     H257660   8.910   9.209   1.188
19140WAT      O57661   4.923   2.298   7.784
19140WAT     H157662   4.992   2.366   7.759
19140WAT     H257663   4.964   2.207   7.780
19141WAT      O57664   1.628   2.121   0.354
19141WAT     H157665   1.675   2.199   0.314
19141WAT     H257666   1.575   2.151   0.433
19142WAT      O57667   5.265   5.559   6.385
19142WAT     H157668   5.296   5.469   6.413
19142WAT     H257669   5.302   5.581   6.295
19143WAT      O57670   1.358   6.770   1.296
19143WAT     H157671   1.374   6.810   1.206
19143WAT     H257672   1.308   6.684   1.287
19144WAT      O57673   8.432   4.342   3.229
19144WAT     H157674   8.488   4.265   3.259
19144WAT     H257675   8.488   4.405   3.175
19145WAT      O57676   2.850   3.431   9.381
19145WAT     H157677   2.782   3.408   9.311
19145WAT     H257678   2.936   3.384   9.361
19146WAT      O57679   5.361   1.190   8.278
19146WAT     H157680   5.285   1.163   8.337
19146WAT     H257681   5.327   1.206   8.185
19147WAT      O57682   6.326   2.244   8.976
19147WAT     H157683   6.322   2.232   8.877
19147WAT     H257684   6.258   2.311   9.005
19148WAT      O57685   3.657   8.635   9.669
19148WAT     H157686   3.709   8.573   9.729
19148WAT     H257687   3.622   8.584   9.591
19149WAT      O57688   7.072   3.993   9.446
19149WAT     H157689   7.136   4.059   9.487
19149WAT     H257690   7.120   3.937   9.379
19150WAT      O57691   0.366   4.409   4.205
19150WAT     H157692   0.394   4.349   4.280
19150WAT     H257693   0.359   4.356   4.120
19151WAT      O57694   5.125   9.738   9.045
19151WAT     H157695   5.070   9.758   9.127
19151WAT     H257696   5.069   9.689   8.979
19152WAT      O57697   9.768   6.047   2.064
19152WAT     H157698   9.777   6.114   2.138
19152WAT     H257699   9.835   6.068   1.992
19153WAT      O57700   4.386   2.780   2.228
19153WAT     H157701   4.301   2.833   2.228
19153WAT     H257702   4.402   2.742   2.319
19154WAT      O57703   3.002   6.895   6.710
19154WAT     H157704   2.941   6.949   6.652
19154WAT     H257705   2.954   6.813   6.741
19155WAT      O57706   5.338   4.193   3.329
19155WAT     H157707   5.253   4.149   3.356
19155WAT     H257708   5.383   4.139   3.257
19156WAT      O57709   3.553   4.950   1.374
19156WAT     H157710   3.497   4.876   1.409
19156WAT     H257711   3.525   5.036   1.417
19157WAT      O57712   8.138   1.019   1.461
19157WAT     H157713   8.082   1.027   1.543
19157WAT     H257714   8.109   1.087   1.394
19158WAT      O57715   3.521   9.522   1.679
19158WAT     H157716   3.527   9.523   1.778
19158WAT     H257717   3.564   9.439   1.644
19159WAT      O57718   9.559   5.274   2.345
19159WAT     H157719   9.575   5.203   2.277
19159WAT     H257720   9.465   5.307   2.338
19160WAT      O57721   9.526   6.323   3.334
19160WAT     H157722   9.452   6.271   3.377
19160WAT     H257723   9.528   6.303   3.236
19161WAT      O57724   1.097   8.697   9.228
19161WAT     H157725   1.020   8.660   9.175
19161WAT     H257726   1.172   8.719   9.165
19162WAT      O57727   7.654   3.291   0.637
19162WAT     H157728   7.622   3.326   0.549
19162WAT     H257729   7.600   3.332   0.711
19163WAT      O57730   0.961   2.608   4.222
19163WAT     H157731   1.015   2.667   4.161
19163WAT     H257732   1.014   2.526   4.245
19164WAT      O57733   6.719   8.824   6.185
19164WAT     H157734   6.772   8.748   6.149
19164WAT     H257735   6.678   8.875   6.109
19165WAT      O57736   1.073   9.697   2.395
19165WAT     H157737   1.071   9.725   2.491
19165WAT     H257738   1.163   9.717   2.356
19166WAT      O57739   4.410   5.427   6.743
19166WAT     H157740   4.378   5.420   6.837
19166WAT     H257741   4.346   5.378   6.683
19167WAT      O57742   3.252   9.507   0.129
19167WAT     H157743   3.288   9.460   0.048
19167WAT     H257744   3.287   9.462   0.211
19168WAT      O57745   6.791   4.100   6.230
19168WAT     H157746   6.812   4.004   6.208
19168WAT     H257747   6.719   4.104   6.299
19169WAT      O57748   8.424   8.607   2.075
19169WAT     H157749   8.463   8.541   2.012
19169WAT     H257750   8.349   8.564   2.126
19170WAT      O57751   3.188   1.717   0.683
19170WAT     H157752   3.099   1.732   0.641
19170WAT     H257753   3.177   1.659   0.763
19171WAT      O57754   6.086   2.623   7.763
19171WAT     H157755   6.154   2.550   7.768
19171WAT     H257756   6.110   2.688   7.691
19172WAT      O57757   4.366   2.272   1.398
19172WAT     H157758   4.383   2.173   1.395
19172WAT     H257759   4.330   2.303   1.310
19173WAT      O57760   7.541   6.061   4.935
19173WAT     H157761   7.461   6.054   4.875
19173WAT     H257762   7.526   6.005   5.016
19174WAT      O57763   2.886   6.538   4.259
19174WAT     H157764   2.799   6.588   4.262
19174WAT     H257765   2.912   6.510   4.351
19175WAT      O57766   5.734   3.144   0.584
19175WAT     H157767   5.683   3.174   0.504
19175WAT     H257768   5.754   3.222   0.643
19176WAT      O57769   8.576   4.758   5.498
19176WAT     H157770   8.525   4.776   5.582
19176WAT     H257771   8.535   4.810   5.422
19177WAT      O57772   7.067   1.337   7.550
19177WAT     H157773   7.053   1.382   7.638
19177WAT     H257774   7.030   1.394   7.477
19178WAT      O57775   3.435   7.761   6.065
19178WAT     H157776   3.464   7.843   6.016
19178WAT     H257777   3.412   7.689   6.000
19179WAT      O57778   5.737   5.553   3.936
19179WAT     H157779   5.766   5.525   3.844
19179WAT     H257780   5.804   5.618   3.973
19180WAT      O57781   5.080   1.334   6.117
19180WAT     H157782   5.078   1.365   6.022
19180WAT     H257783   5.024   1.395   6.174
19181WAT      O57784   0.794   8.402   8.204
19181WAT     H157785   0.827   8.493   8.227
19181WAT     H257786   0.723   8.408   8.134
19182WAT      O57787   1.996   9.648   4.851
19182WAT     H157788   2.082   9.596   4.851
19182WAT     H257789   1.953   9.640   4.761
19183WAT      O57790   0.357   5.345   6.295
19183WAT     H157791   0.291   5.320   6.366
19183WAT     H257792   0.449   5.318   6.323
19184WAT      O57793   2.182   6.233   4.131
19184WAT     H157794   2.145   6.149   4.092
19184WAT     H257795   2.209   6.216   4.226
19185WAT      O57796   0.224   7.325   8.681
19185WAT     H157797   0.156   7.379   8.730
19185WAT     H257798   0.178   7.265   8.615
19186WAT      O57799   3.849   5.220   7.875
19186WAT     H157800   3.867   5.124   7.855
19186WAT     H257801   3.847   5.234   7.974
19187WAT      O57802   5.234   5.991   8.767
19187WAT     H157803   5.193   6.074   8.804
19187WAT     H257804   5.326   6.011   8.734
19188WAT      O57805   9.005   7.623   4.343
19188WAT     H157806   8.967   7.531   4.348
19188WAT     H257807   8.959   7.682   4.410
19189WAT      O57808   7.920   8.228   8.109
19189WAT     H157809   8.015   8.221   8.078
19189WAT     H257810   7.898   8.324   8.126
19190WAT      O57811   5.867   9.210   4.349
19190WAT     H157812   5.837   9.160   4.267
19190WAT     H257813   5.957   9.251   4.332
19191WAT      O57814   8.554   8.742   3.717
19191WAT     H157815   8.550   8.824   3.775
19191WAT     H257816   8.588   8.665   3.772
19192WAT      O57817   5.228   0.129   2.695
19192WAT     H157818   5.166   0.207   2.710
19192WAT     H257819   5.319   0.153   2.728
19193WAT      O57820   5.013   6.839   3.092
19193WAT     H157821   5.086   6.871   3.152
19193WAT     H257822   4.934   6.811   3.146
19194WAT      O57823   3.072   9.296   5.478
19194WAT     H157824   3.161   9.264   5.509
19194WAT     H257825   3.032   9.230   5.415
19195WAT      O57826   4.413   4.934   8.811
19195WAT     H157827   4.337   4.872   8.830
19195WAT     H257828   4.492   4.908   8.867
19196WAT      O57829   1.495   9.207   3.304
19196WAT     H157830   1.514   9.303   3.280
19196WAT     H257831   1.578   9.153   3.289
19197WAT      O57832   0.711   8.154   1.468
19197WAT     H157833   0.747   8.063   1.447
19197WAT     H257834   0.617   8.146   1.502
19198WAT      O57835   9.719   9.117   0.246
19198WAT     H157836   9.722   9.216   0.242
19198WAT     H257837   9.624   9.086   0.254
19199WAT      O57838   8.248   9.740   0.386
19199WAT     H157839   8.310   9.664   0.405
19199WAT     H257840   8.163   9.704   0.347
19200WAT      O57841   5.304   7.636   3.655
19200WAT     H157842   5.224   7.585   3.624
19200WAT     H257843   5.381   7.573   3.668
19201WAT      O57844   6.359   0.820   1.422
19201WAT     H157845   6.371   0.799   1.519
19201WAT     H257846   6.286   0.886   1.410
19202WAT      O57847   9.741   8.157   5.036
19202WAT     H157848   9.697   8.192   5.119
19202WAT     H257849   9.682   8.175   4.957
19203WAT      O57850   3.788   1.669   2.516
19203WAT     H157851   3.884   1.689   2.533
19203WAT     H257852   3.745   1.636   2.600
19204WAT      O57853   6.283   7.928   9.883
19204WAT     H157854   6.372   7.882   9.885
19204WAT     H257855   6.241   7.915   9.793
19205WAT      O57856   3.250   5.731   3.462
19205WAT     H157857   3.226   5.637   3.484
19205WAT     H257858   3.270   5.780   3.547
19206WAT      O57859   4.029   1.710   8.919
19206WAT     H157860   4.016   1.616   8.952
19206WAT     H257861   3.951   1.765   8.947
19207WAT      O57862   1.227   4.159   3.900
19207WAT     H157863   1.240   4.224   3.975
19207WAT     H257864   1.130   4.135   3.894
19208WAT      O57865   5.848   1.111   5.524
19208WAT     H157866   5.833   1.021   5.564
19208WAT     H257867   5.835   1.181   5.594
19209WAT      O57868   3.696   6.594   0.799
19209WAT     H157869   3.688   6.618   0.896
19209WAT     H257870   3.741   6.505   0.790
19210WAT      O57871   1.498   6.681   5.399
19210WAT     H157872   1.480   6.600   5.454
19210WAT     H257873   1.514   6.655   5.304
19211WAT      O57874   7.681   5.358   1.140
19211WAT     H157875   7.732   5.401   1.214
19211WAT     H257876   7.658   5.264   1.164
19212WAT      O57877   4.955   5.160   0.500
19212WAT     H157878   5.041   5.183   0.546
19212WAT     H257879   4.974   5.129   0.407
19213WAT      O57880   2.566   4.905   4.642
19213WAT     H157881   2.511   4.956   4.575
19213WAT     H257882   2.587   4.964   4.719
19214WAT      O57883   2.329   0.375   5.076
19214WAT     H157884   2.370   0.397   5.165
19214WAT     H257885   2.262   0.302   5.088
19215WAT      O57886   4.242   5.545   9.735
19215WAT     H157887   4.318   5.482   9.746
19215WAT     H257888   4.270   5.621   9.675
19216WAT      O57889   6.974   7.593   8.430
19216WAT     H157890   7.063   7.637   8.441
19216WAT     H257891   6.934   7.622   8.343
19217WAT      O57892   2.599   6.051   2.588
19217WAT     H157893   2.625   6.102   2.506
19217WAT     H257894   2.511   6.085   2.622
19218WAT      O57895   8.236   3.354   4.909
19218WAT     H157896   8.310   3.290   4.885
19218WAT     H257897   8.148   3.312   4.889
19219WAT      O57898   5.771   9.214   1.662
19219WAT     H157899   5.738   9.205   1.756
19219WAT     H257900   5.810   9.305   1.648
19220WAT      O57901   0.301   0.650   8.206
19220WAT     H157902   0.350   0.703   8.275
19220WAT     H257903   0.368   0.604   8.146
19221WAT      O57904   2.505   6.924   5.305
19221WAT     H157905   2.407   6.905   5.300
19221WAT     H257906   2.547   6.864   5.373
19222WAT      O57907   0.442   5.183   3.994
19222WAT     H157908   0.379   5.118   3.952
19222WAT     H257909   0.532   5.175   3.951
19223WAT      O57910   9.108   2.681   4.787
19223WAT     H157911   9.201   2.702   4.816
19223WAT     H257912   9.049   2.669   4.867
19224WAT      O57913   2.982   3.853   1.050
19224WAT     H157914   3.047   3.907   0.996
19224WAT     H257915   2.906   3.825   0.992
19225WAT      O57916   7.929   1.507   4.214
19225WAT     H157917   7.938   1.593   4.263
19225WAT     H257918   7.890   1.524   4.123
19226WAT      O57919   0.900   6.254   7.136
19226WAT     H157920   0.883   6.176   7.196
19226WAT     H257921   0.897   6.224   7.041
19227WAT      O57922   5.456   3.402   1.835
19227WAT     H157923   5.527   3.462   1.872
19227WAT     H257924   5.459   3.404   1.736
19228WAT      O57925   9.164   2.593   8.183
19228WAT     H157926   9.145   2.557   8.091
19228WAT     H257927   9.244   2.547   8.221
19229WAT      O57928   8.541   1.258   8.688
19229WAT     H157929   8.478   1.291   8.618
19229WAT     H257930   8.632   1.298   8.674
19230WAT      O57931   6.808   6.172   7.476
19230WAT     H157932   6.891   6.227   7.462
19230WAT     H257933   6.825   6.104   7.547
19231WAT      O57934   1.555   6.152   8.746
19231WAT     H157935   1.603   6.218   8.688
19231WAT     H257936   1.499   6.092   8.688
19232WAT      O57937   1.463   4.317   8.997
19232WAT     H157938   1.511   4.403   9.016
19232WAT     H257939   1.379   4.336   8.947
19233WAT      O57940   5.343   3.111   6.352
19233WAT     H157941   5.261   3.101   6.409
19233WAT     H257942   5.424   3.093   6.407
19234WAT      O57943   9.026   2.853   5.316
19234WAT     H157944   9.008   2.831   5.412
19234WAT     H257945   8.957   2.919   5.284
19235WAT      O57946   2.208   1.359   5.062
19235WAT     H157947   2.255   1.444   5.038
19235WAT     H257948   2.177   1.364   5.157
19236WAT      O57949   9.191   6.612   9.213
19236WAT     H157950   9.093   6.590   9.218
19236WAT     H257951   9.217   6.664   9.294
19237WAT      O57952   0.484   4.614   6.970
19237WAT     H157953   0.396   4.579   7.002
19237WAT     H257954   0.504   4.700   7.016
19238WAT      O57955   7.715   8.363   5.524
19238WAT     H157956   7.777   8.429   5.566
19238WAT     H257957   7.631   8.409   5.497
19239WAT      O57958   9.741   8.776   3.737
19239WAT     H157959   9.652   8.742   3.767
19239WAT     H257960   9.811   8.707   3.755
19240WAT      O57961   1.989   2.785   8.167
19240WAT     H157962   2.005   2.852   8.239
19240WAT     H257963   2.075   2.740   8.143
19241WAT      O57964   8.337   4.563   7.431
19241WAT     H157965   8.383   4.532   7.515
19241WAT     H257966   8.401   4.559   7.355
19242WAT      O57967   3.126   1.734   1.180
19242WAT     H157968   3.067   1.739   1.100
19242WAT     H257969   3.166   1.642   1.186
19243WAT      O57970   9.497   7.815   2.002
19243WAT     H157971   9.499   7.893   2.065
19243WAT     H257972   9.505   7.730   2.054
19244WAT      O57973   6.868   6.045   4.070
19244WAT     H157974   6.821   5.987   4.137
19244WAT     H257975   6.841   6.140   4.084
19245WAT      O57976   7.855   9.004   8.506
19245WAT     H157977   7.850   8.932   8.437
19245WAT     H257978   7.904   8.970   8.586
19246WAT      O57979   1.415   9.818   4.590
19246WAT     H157980   1.454   9.759   4.661
19246WAT     H257981   1.420   9.772   4.502
19247WAT      O57982   3.646   4.465   2.094
19247WAT     H157983   3.700   4.392   2.135
19247WAT     H257984   3.705   4.522   2.037
19248WAT      O57985   6.668   2.127   5.247
19248WAT     H157986   6.602   2.194   5.282
19248WAT     H257987   6.627   2.035   5.250
19249WAT      O57988   1.515   7.483   2.356
19249WAT     H157989   1.445   7.513   2.420
19249WAT     H257990   1.558   7.563   2.314
19250WAT      O57991   1.119   3.660   4.769
19250WAT     H157992   1.110   3.759   4.759
19250WAT     H257993   1.105   3.635   4.865
19251WAT      O57994   1.681   3.247   6.560
19251WAT     H157995   1.646   3.170   6.507
19251WAT     H257996   1.753   3.293   6.508
19252WAT      O57997   8.236   5.652   3.249
19252WAT     H157998   8.303   5.624   3.318
19252WAT     H257999   8.200   5.571   3.202
19253WAT      O58000   5.461   3.965   5.973
19253WAT     H158001   5.549   3.931   6.006
19253WAT     H258002   5.392   3.954   6.044
19254WAT      O58003   2.200   7.963   1.035
19254WAT     H158004   2.252   7.989   1.116
19254WAT     H258005   2.243   8.002   0.954
19255WAT      O58006   5.567   9.377   4.208
19255WAT     H158007   5.493   9.386   4.275
19255WAT     H258008   5.604   9.284   4.212
19256WAT      O58009   4.871   2.223   0.816
19256WAT     H158010   4.909   2.190   0.730
19256WAT     H258011   4.926   2.189   0.892
19257WAT      O58012   6.061   3.928   8.844
19257WAT     H158013   6.076   3.992   8.769
19257WAT     H258014   6.084   3.835   8.814
19258WAT      O58015   2.639   0.873   3.733
19258WAT     H158016   2.717   0.902   3.789
19258WAT     H258017   2.666   0.795   3.676
19259WAT      O58018   7.768   3.816   4.635
19259WAT     H158019   7.790   3.887   4.702
19259WAT     H258020   7.701   3.851   4.570
19260WAT      O58021   3.260   5.719   2.659
19260WAT     H158022   3.355   5.749   2.652
19260WAT     H258023   3.212   5.740   2.574
19261WAT      O58024   6.452   5.724   6.087
19261WAT     H158025   6.508   5.687   6.161
19261WAT     H258026   6.465   5.669   6.004
19262WAT      O58027   1.500   8.092   0.491
19262WAT     H158028   1.515   8.191   0.494
19262WAT     H258029   1.563   8.051   0.425
19263WAT      O58030   5.577   2.602   8.361
19263WAT     H158031   5.487   2.565   8.381
19263WAT     H258032   5.568   2.693   8.319
19264WAT      O58033   3.084   7.108   2.012
19264WAT     H158034   3.006   7.124   2.072
19264WAT     H258035   3.092   7.183   1.947
19265WAT      O58036   4.384   4.609   7.957
19265WAT     H158037   4.427   4.565   8.036
19265WAT     H258038   4.405   4.707   7.959
19266WAT      O58039   0.048   7.463   7.897
19266WAT     H158040  -0.016   7.538   7.878
19266WAT     H258041   0.029   7.387   7.835
19267WAT      O58042   3.998   7.332   2.023
19267WAT     H158043   4.059   7.362   1.950
19267WAT     H258044   4.041   7.259   2.075
19268WAT      O58045   6.026   6.991   1.953
19268WAT     H158046   6.030   6.967   2.050
19268WAT     H258047   6.039   6.909   1.897
19269WAT      O58048   4.746   9.702   6.473
19269WAT     H158049   4.832   9.742   6.503
19269WAT     H258050   4.670   9.746   6.522
19270WAT      O58051   2.317   6.125   2.946
19270WAT     H158052   2.235   6.177   2.966
19270WAT     H258053   2.295   6.027   2.947
19271WAT      O58054   7.297   7.750   8.238
19271WAT     H158055   7.277   7.706   8.326
19271WAT     H258056   7.266   7.845   8.240
19272WAT      O58057   7.055   6.908   0.327
19272WAT     H158058   7.115   6.863   0.260
19272WAT     H258059   7.060   7.007   0.314
19273WAT      O58060   5.091   6.124   9.485
19273WAT     H158061   5.001   6.116   9.441
19273WAT     H258062   5.096   6.059   9.561
19274WAT      O58063   5.714   1.868   3.452
19274WAT     H158064   5.630   1.828   3.416
19274WAT     H258065   5.704   1.967   3.458
19275WAT      O58066   2.318   0.684   1.091
19275WAT     H158067   2.405   0.650   1.054
19275WAT     H258068   2.337   0.757   1.158
19276WAT      O58069   4.561   0.152   9.301
19276WAT     H158070   4.493   0.194   9.241
19276WAT     H258071   4.520   0.076   9.351
19277WAT      O58072   0.588   0.383   6.448
19277WAT     H158073   0.581   0.350   6.354
19277WAT     H258074   0.682   0.373   6.480
19278WAT      O58075   7.186   8.049   9.713
19278WAT     H158076   7.188   7.974   9.647
19278WAT     H258077   7.165   8.134   9.666
19279WAT      O58078   9.118   0.962   8.734
19279WAT     H158079   9.096   0.902   8.811
19279WAT     H258080   9.086   0.921   8.649
19280WAT      O58081   4.133   8.514   2.963
19280WAT     H158082   4.091   8.543   3.049
19280WAT     H258083   4.100   8.572   2.888
19281WAT      O58084   1.730   6.494   9.326
19281WAT     H158085   1.655   6.507   9.390
19281WAT     H258086   1.752   6.397   9.319
19282WAT      O58087   9.398   7.996   5.391
19282WAT     H158088   9.311   8.004   5.342
19282WAT     H258089   9.408   7.903   5.427
19283WAT      O58090   9.446   6.165   7.143
19283WAT     H158091   9.477   6.259   7.125
19283WAT     H258092   9.475   6.138   7.235
19284WAT      O58093   6.118   3.399   6.967
19284WAT     H158094   6.197   3.456   6.989
19284WAT     H258095   6.038   3.457   6.950
19285WAT      O58096   5.097   8.273   6.057
19285WAT     H158097   5.187   8.304   6.087
19285WAT     H258098   5.027   8.309   6.119
19286WAT      O58099   7.983   1.374   2.679
19286WAT     H158100   7.990   1.295   2.741
19286WAT     H258101   8.066   1.380   2.624
19287WAT      O58102   5.606   7.203   1.796
19287WAT     H158103   5.676   7.206   1.726
19287WAT     H258104   5.590   7.294   1.833
19288WAT      O58105   0.897   6.194   5.744
19288WAT     H158106   0.989   6.232   5.747
19288WAT     H258107   0.894   6.118   5.679
19289WAT      O58108   7.856   5.449   5.131
19289WAT     H158109   7.820   5.452   5.038
19289WAT     H258110   7.945   5.405   5.131
19290WAT      O58111   6.185   0.366   2.091
19290WAT     H158112   6.279   0.350   2.061
19290WAT     H258113   6.179   0.353   2.190
19291WAT      O58114   9.295   6.581   8.540
19291WAT     H158115   9.269   6.678   8.533
19291WAT     H258116   9.213   6.525   8.529
19292WAT      O58117   1.468   3.377   2.074
19292WAT     H158118   1.410   3.334   2.144
19292WAT     H258119   1.512   3.458   2.113
19293WAT      O58120   7.449   2.904   9.329
19293WAT     H158121   7.412   2.922   9.238
19293WAT     H258122   7.508   2.980   9.356
19294WAT      O58123   6.646   1.635   6.501
19294WAT     H158124   6.553   1.602   6.518
19294WAT     H258125   6.702   1.617   6.582
19295WAT      O58126   0.116   3.661   3.633
19295WAT     H158127   0.077   3.583   3.682
19295WAT     H258128   0.181   3.709   3.693
19296WAT      O58129   0.600   7.766   1.388
19296WAT     H158130   0.684   7.817   1.371
19296WAT     H258131   0.592   7.691   1.322
19297WAT      O58132   5.604   0.486   0.189
19297WAT     H158133   5.605   0.563   0.126
19297WAT     H258134   5.530   0.500   0.256
19298WAT      O58135   4.855   8.169   3.613
19298WAT     H158136   4.810   8.081   3.627
19298WAT     H258137   4.887   8.175   3.518
19299WAT      O58138   2.839   6.810   2.885
19299WAT     H158139   2.753   6.850   2.917
19299WAT     H258140   2.820   6.739   2.817
19300WAT      O58141   7.749   4.588   8.372
19300WAT     H158142   7.798   4.675   8.384
19300WAT     H258143   7.815   4.513   8.367
19301WAT      O58144   2.504   3.643   5.123
19301WAT     H158145   2.437   3.575   5.094
19301WAT     H258146   2.488   3.667   5.219
19302WAT      O58147   2.021   7.114   6.783
19302WAT     H158148   1.970   7.181   6.729
19302WAT     H258149   2.076   7.162   6.851
19303WAT      O58150   2.513   5.926   4.369
19303WAT     H158151   2.490   5.830   4.381
19303WAT     H258152   2.613   5.936   4.367
19304WAT      O58153   2.724   5.576   0.385
19304WAT     H158154   2.694   5.526   0.304
19304WAT     H258155   2.784   5.652   0.357
19305WAT      O58156   8.813   0.769   8.030
19305WAT     H158157   8.888   0.810   7.978
19305WAT     H258158   8.733   0.830   8.027
19306WAT      O58159   8.586   6.179   1.773
19306WAT     H158160   8.519   6.190   1.846
19306WAT     H258161   8.572   6.251   1.704
19307WAT      O58162   7.051   5.162   6.618
19307WAT     H158163   7.004   5.075   6.603
19307WAT     H258164   7.145   5.155   6.584
19308WAT      O58165   9.563   8.344   6.025
19308WAT     H158166   9.488   8.333   5.960
19308WAT     H258167   9.597   8.254   6.052
19309WAT      O58168   3.980   6.601   5.663
19309WAT     H158169   3.944   6.630   5.575
19309WAT     H258170   3.909   6.609   5.733
19310WAT      O58171   5.581   6.978   4.569
19310WAT     H158172   5.550   7.061   4.523
19310WAT     H258173   5.556   6.898   4.514
19311WAT      O58174   1.810   2.780   6.221
19311WAT     H158175   1.811   2.880   6.219
19311WAT     H258176   1.885   2.747   6.278
19312WAT      O58177   0.835   2.734   1.660
19312WAT     H158178   0.902   2.661   1.644
19312WAT     H258179   0.748   2.694   1.688
19313WAT      O58180   0.912   4.974   4.829
19313WAT     H158181   0.984   4.981   4.898
19313WAT     H258182   0.882   5.065   4.801
19314WAT      O58183   3.870   3.771   2.077
19314WAT     H158184   3.880   3.723   2.163
19314WAT     H258185   3.875   3.870   2.093
19315WAT      O58186   3.322   8.875   5.294
19315WAT     H158187   3.353   8.969   5.310
19315WAT     H258188   3.277   8.869   5.205
19316WAT      O58189   6.604   5.336   7.884
19316WAT     H158190   6.675   5.406   7.893
19316WAT     H258191   6.543   5.341   7.963
19317WAT      O58192   4.425   0.303   0.439
19317WAT     H158193   4.470   0.214   0.429
19317WAT     H258194   4.354   0.296   0.509
19318WAT      O58195   1.701   9.499   5.042
19318WAT     H158196   1.618   9.446   5.027
19318WAT     H258197   1.682   9.596   5.030
19319WAT      O58198   6.401   6.588   6.410
19319WAT     H158199   6.470   6.536   6.360
19319WAT     H258200   6.342   6.637   6.345
19320WAT      O58201   7.224   8.126   7.015
19320WAT     H158202   7.248   8.051   6.953
19320WAT     H258203   7.194   8.205   6.961
19321WAT      O58204   9.087   9.409   1.629
19321WAT     H158205   9.117   9.504   1.640
19321WAT     H258206   9.142   9.365   1.558
19322WAT      O58207   5.886   7.080   9.388
19322WAT     H158208   5.853   7.169   9.355
19322WAT     H258209   5.944   7.038   9.318
19323WAT      O58210   7.362   5.420   6.265
19323WAT     H158211   7.338   5.324   6.283
19323WAT     H258212   7.281   5.469   6.233
19324WAT      O58213   5.263   9.049   9.496
19324WAT     H158214   5.247   9.111   9.419
19324WAT     H258215   5.210   9.080   9.575
19325WAT      O58216   0.457   7.376   0.634
19325WAT     H158217   0.517   7.355   0.711
19325WAT     H258218   0.460   7.474   0.614
19326WAT      O58219   0.923   0.780   2.634
19326WAT     H158220   0.984   0.703   2.655
19326WAT     H258221   0.976   0.854   2.594
19327WAT      O58222   1.433   1.248   8.255
19327WAT     H158223   1.485   1.287   8.331
19327WAT     H258224   1.468   1.157   8.234
19328WAT      O58225   2.258   7.007   3.812
19328WAT     H158226   2.189   7.079   3.821
19328WAT     H258227   2.336   7.042   3.760
19329WAT      O58228   7.858   7.022   4.079
19329WAT     H158229   7.758   7.024   4.076
19329WAT     H258230   7.891   6.929   4.060
19330WAT      O58231   6.098   6.742   7.185
19330WAT     H158232   6.111   6.841   7.180
19330WAT     H258233   6.008   6.719   7.147
19331WAT      O58234   4.764   6.167   7.889
19331WAT     H158235   4.686   6.228   7.902
19331WAT     H258236   4.837   6.215   7.841
19332WAT      O58237   1.223   8.589   3.302
19332WAT     H158238   1.197   8.563   3.209
19332WAT     H258239   1.309   8.544   3.327
19333WAT      O58240   6.230   6.825   8.017
19333WAT     H158241   6.326   6.797   8.011
19333WAT     H258242   6.205   6.877   7.935
19334WAT      O58243   4.818   7.457   9.268
19334WAT     H158244   4.787   7.404   9.188
19334WAT     H258245   4.795   7.408   9.351
19335WAT      O58246   6.583   9.679   3.878
19335WAT     H158247   6.582   9.774   3.847
19335WAT     H258248   6.669   9.636   3.852
19336WAT      O58249   9.133   2.087   4.381
19336WAT     H158250   9.056   2.143   4.411
19336WAT     H258251   9.099   2.005   4.336
19337WAT      O58252   3.552   6.975   3.983
19337WAT     H158253   3.631   7.005   3.930
19337WAT     H258254   3.538   6.877   3.971
19338WAT      O58255   2.953   2.411   5.060
19338WAT     H158256   2.948   2.511   5.055
19338WAT     H258257   3.049   2.382   5.056
19339WAT      O58258   7.486   5.431   7.047
19339WAT     H158259   7.417   5.375   7.001
19339WAT     H258260   7.443   5.481   7.122
19340WAT      O58261   3.276   8.741   0.998
19340WAT     H158262   3.344   8.675   1.031
19340WAT     H258263   3.322   8.819   0.956
19341WAT      O58264   5.305   2.806   9.782
19341WAT     H158265   5.335   2.856   9.864
19341WAT     H258266   5.358   2.722   9.772
19342WAT      O58267   1.240   6.791   4.529
19342WAT     H158268   1.191   6.750   4.453
19342WAT     H258269   1.272   6.883   4.504
19343WAT      O58270   0.336   7.083   7.423
19343WAT     H158271   0.314   7.002   7.368
19343WAT     H258272   0.382   7.151   7.365
19344WAT      O58273   7.732   7.309   2.404
19344WAT     H158274   7.794   7.235   2.380
19344WAT     H258275   7.781   7.378   2.457
19345WAT      O58276   4.301   6.804   6.342
19345WAT     H158277   4.367   6.878   6.353
19345WAT     H258278   4.263   6.807   6.249
19346WAT      O58279   1.159   6.147   0.790
19346WAT     H158280   1.237   6.209   0.797
19346WAT     H258281   1.076   6.198   0.771
19347WAT      O58282   0.805   2.605   2.539
19347WAT     H158283   0.761   2.515   2.545
19347WAT     H258284   0.768   2.666   2.608
19348WAT      O58285   8.075   3.250   1.869
19348WAT     H158286   8.097   3.296   1.783
19348WAT     H258287   8.071   3.318   1.943
19349WAT      O58288   8.884   2.502   8.530
19349WAT     H158289   8.917   2.528   8.439
19349WAT     H258290   8.865   2.404   8.532
19350WAT      O58291   7.862   1.073   9.126
19350WAT     H158292   7.919   1.075   9.044
19350WAT     H258293   7.823   1.164   9.142
19351WAT      O58294   5.337   4.820   0.915
19351WAT     H158295   5.303   4.894   0.973
19351WAT     H258296   5.362   4.742   0.972
19352WAT      O58297   8.313   4.325   1.941
19352WAT     H158298   8.358   4.359   1.858
19352WAT     H258299   8.277   4.402   1.993
19353WAT      O58300   0.093   4.909   2.567
19353WAT     H158301   0.165   4.976   2.548
19353WAT     H258302   0.135   4.819   2.580
19354WAT      O58303   1.853   7.434   7.795
19354WAT     H158304   1.790   7.396   7.863
19354WAT     H258305   1.947   7.417   7.824
19355WAT      O58306   3.934   8.875   5.629
19355WAT     H158307   3.951   8.838   5.720
19355WAT     H258308   3.889   8.806   5.573
19356WAT      O58309   0.554   8.416   8.076
19356WAT     H158310   0.492   8.346   8.040
19356WAT     H258311   0.511   8.506   8.070
19357WAT      O58312   5.739   7.067   6.359
19357WAT     H158313   5.690   7.107   6.436
19357WAT     H258314   5.709   7.110   6.274
19358WAT      O58315   3.270   2.629   5.900
19358WAT     H158316   3.309   2.669   5.982
19358WAT     H258317   3.315   2.541   5.881
19359WAT      O58318   8.600   0.156   6.123
19359WAT     H158319   8.639   0.248   6.125
19359WAT     H258320   8.561   0.134   6.213
19360WAT      O58321   4.191   0.986   6.005
19360WAT     H158322   4.108   1.028   6.041
19360WAT     H258323   4.213   1.025   5.916
19361WAT      O58324   4.618   3.318   7.985
19361WAT     H158325   4.555   3.255   7.939
19361WAT     H258326   4.570   3.401   8.012
19362WAT      O58327   8.605   2.294   2.134
19362WAT     H158328   8.687   2.347   2.158
19362WAT     H258329   8.555   2.342   2.062
19363WAT      O58330   5.751   5.212   7.814
19363WAT     H158331   5.659   5.243   7.835
19363WAT     H258332   5.777   5.241   7.721
19364WAT      O58333   7.762   4.674   8.710
19364WAT     H158334   7.828   4.614   8.665
19364WAT     H258335   7.802   4.710   8.795
19365WAT      O58336   8.589   8.409   6.438
19365WAT     H158337   8.628   8.389   6.528
19365WAT     H258338   8.489   8.400   6.441
19366WAT      O58339   0.621   5.123   8.963
19366WAT     H158340   0.639   5.059   8.888
19366WAT     H258341   0.525   5.115   8.992
19367WAT      O58342   9.162   3.773   6.633
19367WAT     H158343   9.255   3.805   6.614
19367WAT     H258344   9.105   3.851   6.659
19368WAT      O58345   3.424   3.991   7.964
19368WAT     H158346   3.379   4.025   7.881
19368WAT     H258347   3.359   3.997   8.041
19369WAT      O58348   9.051   8.728   2.796
19369WAT     H158349   9.014   8.783   2.721
19369WAT     H258350   9.101   8.650   2.758
19370WAT      O58351   7.667   2.460   1.344
19370WAT     H158352   7.710   2.503   1.423
19370WAT     H258353   7.619   2.529   1.289
19371WAT      O58354   1.898   4.118   1.595
19371WAT     H158355   1.878   4.216   1.585
19371WAT     H258356   1.991   4.106   1.629
19372WAT      O58357   0.056   7.189   0.569
19372WAT     H158358  -0.033   7.179   0.524
19372WAT     H258359   0.062   7.123   0.644
19373WAT      O58360   6.503   8.272   9.335
19373WAT     H158361   6.508   8.210   9.414
19373WAT     H258362   6.430   8.339   9.350
19374WAT      O58363   1.586   9.773   3.322
19374WAT     H158364   1.525   9.778   3.243
19374WAT     H258365   1.671   9.821   3.301
19375WAT      O58366   1.468   3.976   9.702
19375WAT     H158367   1.486   3.878   9.708
19375WAT     H258368   1.386   3.999   9.755
19376WAT      O58369   3.442   0.692   8.120
19376WAT     H158370   3.383   0.637   8.062
19376WAT     H258371   3.414   0.788   8.114
19377WAT      O58372   1.001   3.808   5.940
19377WAT     H158373   0.914   3.765   5.963
19377WAT     H258374   1.002   3.832   5.843
19378WAT      O58375   6.860   7.812   7.640
19378WAT     H158376   6.858   7.909   7.614
19378WAT     H258377   6.886   7.757   7.561
19379WAT      O58378   7.816   0.024   7.990
19379WAT     H158379   7.744   0.087   8.018
19379WAT     H258380   7.826   0.027   7.890
19380WAT      O58381   9.078   3.318   5.288
19380WAT     H158382   9.129   3.235   5.310
19380WAT     H258383   9.132   3.398   5.316
19381WAT      O58384   3.966   1.839   7.026
19381WAT     H158385   3.948   1.930   7.062
19381WAT     H258386   4.061   1.833   6.995
19382WAT      O58387   6.501   0.233   9.157
19382WAT     H158388   6.412   0.200   9.127
19382WAT     H258389   6.502   0.333   9.154
19383WAT      O58390   7.579   6.711   6.838
19383WAT     H158391   7.587   6.746   6.744
19383WAT     H258392   7.503   6.647   6.843
19384WAT      O58393   6.714   5.813   6.659
19384WAT     H158394   6.760   5.866   6.730
19384WAT     H258395   6.734   5.854   6.569
19385WAT      O58396   8.714   3.812   1.429
19385WAT     H158397   8.639   3.761   1.471
19385WAT     H258398   8.798   3.758   1.433
19386WAT      O58399   9.317   6.321   8.857
19386WAT     H158400   9.371   6.398   8.825
19386WAT     H258401   9.231   6.354   8.896
19387WAT      O58402   0.557   8.111   3.958
19387WAT     H158403   0.591   8.179   4.023
19387WAT     H258404   0.457   8.104   3.967
19388WAT      O58405   6.555   0.289   2.137
19388WAT     H158406   6.545   0.362   2.205
19388WAT     H258407   6.652   0.271   2.122
19389WAT      O58408   0.680   2.421   9.808
19389WAT     H158409   0.618   2.387   9.738
19389WAT     H258410   0.764   2.367   9.808
19390WAT      O58411   9.237   7.922   9.754
19390WAT     H158412   9.281   7.900   9.841
19390WAT     H258413   9.288   7.880   9.679
19391WAT      O58414   7.228   4.061   9.798
19391WAT     H158415   7.175   4.130   9.748
19391WAT     H258416   7.165   4.002   9.849
19392WAT      O58417   6.532   4.578   9.340
19392WAT     H158418   6.603   4.520   9.300
19392WAT     H258419   6.556   4.599   9.435
19393WAT      O58420   8.275   8.107   2.702
19393WAT     H158421   8.324   8.119   2.789
19393WAT     H258422   8.285   8.190   2.647
19394WAT      O58423   3.033   1.468   0.523
19394WAT     H158424   3.103   1.401   0.544
19394WAT     H258425   2.943   1.431   0.547
19395WAT      O58426   6.249   1.693   8.406
19395WAT     H158427   6.236   1.646   8.319
19395WAT     H258428   6.345   1.683   8.435
19396WAT      O58429   4.753   5.849   3.517
19396WAT     H158430   4.663   5.858   3.473
19396WAT     H258431   4.821   5.824   3.449
19397WAT      O58432   8.731   6.251   1.341
19397WAT     H158433   8.637   6.285   1.353
19397WAT     H258434   8.746   6.172   1.401
19398WAT      O58435   4.909   1.118   4.219
19398WAT     H158436   4.856   1.195   4.254
19398WAT     H258437   5.006   1.132   4.238
19399WAT      O58438   6.099   5.133   9.341
19399WAT     H158439   6.061   5.070   9.273
19399WAT     H258440   6.030   5.201   9.365
19400WAT      O58441   8.606   8.774   1.749
19400WAT     H158442   8.545   8.819   1.814
19400WAT     H258443   8.660   8.705   1.797
19401WAT      O58444   5.603   2.456   4.346
19401WAT     H158445   5.662   2.423   4.272
19401WAT     H258446   5.657   2.463   4.431
19402WAT      O58447   8.194   9.138   4.152
19402WAT     H158448   8.139   9.206   4.104
19402WAT     H258449   8.241   9.181   4.228
19403WAT      O58450   1.311   6.682   7.051
19403WAT     H158451   1.330   6.702   7.147
19403WAT     H258452   1.346   6.591   7.028
19404WAT      O58453   0.732   6.073   2.347
19404WAT     H158454   0.748   6.057   2.249
19404WAT     H258455   0.640   6.044   2.371
19405WAT      O58456   4.070   2.174   1.792
19405WAT     H158457   4.108   2.255   1.836
19405WAT     H258458   4.125   2.149   1.713
19406WAT      O58459   8.093   0.217   4.162
19406WAT     H158460   8.117   0.240   4.256
19406WAT     H258461   8.035   0.288   4.124
19407WAT      O58462   6.639   1.532   6.227
19407WAT     H158463   6.613   1.437   6.208
19407WAT     H258464   6.612   1.555   6.321
19408WAT      O58465   8.073   1.488   5.755
19408WAT     H158466   8.121   1.458   5.837
19408WAT     H258467   8.124   1.459   5.674
19409WAT      O58468   1.513   9.353   3.990
19409WAT     H158469   1.612   9.346   4.003
19409WAT     H258470   1.491   9.334   3.895
19410WAT      O58471   9.436   2.697   3.375
19410WAT     H158472   9.398   2.623   3.431
19410WAT     H258473   9.368   2.726   3.307
19411WAT      O58474   4.169   3.351   2.515
19411WAT     H158475   4.242   3.374   2.579
19411WAT     H258476   4.090   3.317   2.566
19412WAT      O58477   4.780   0.250   8.264
19412WAT     H158478   4.747   0.168   8.312
19412WAT     H258479   4.849   0.295   8.319
19413WAT      O58480   1.317   2.240   1.398
19413WAT     H158481   1.295   2.318   1.340
19413WAT     H258482   1.302   2.264   1.494
19414WAT      O58483   7.048   2.634   7.344
19414WAT     H158484   7.024   2.644   7.441
19414WAT     H258485   7.040   2.538   7.318
19415WAT      O58486   8.581   8.447   7.704
19415WAT     H158487   8.541   8.359   7.678
19415WAT     H258488   8.525   8.489   7.776
19416WAT      O58489   9.497   2.828   4.627
19416WAT     H158490   9.592   2.858   4.639
19416WAT     H258491   9.494   2.728   4.627
19417WAT      O58492   7.499   1.296   0.361
19417WAT     H158493   7.479   1.353   0.441
19417WAT     H258494   7.569   1.342   0.305
19418WAT      O58495   0.376   5.987   0.346
19418WAT     H158496   0.374   5.887   0.339
19418WAT     H258497   0.282   6.021   0.353
19419WAT      O58498   5.688   4.317   1.531
19419WAT     H158499   5.774   4.267   1.524
19419WAT     H258500   5.615   4.254   1.556
19420WAT      O58501   0.540   8.666   1.890
19420WAT     H158502   0.620   8.675   1.831
19420WAT     H258503   0.491   8.752   1.894
19421WAT      O58504   3.736   2.575   9.484
19421WAT     H158505   3.729   2.539   9.577
19421WAT     H258506   3.644   2.589   9.446
19422WAT      O58507   5.966   0.555   4.195
19422WAT     H158508   6.016   0.468   4.196
19422WAT     H258509   5.893   0.550   4.127
19423WAT      O58510   3.116   6.936   4.969
19423WAT     H158511   3.165   6.949   5.055
19423WAT     H258512   3.073   7.023   4.943
19424WAT      O58513   9.564   7.566   2.144
19424WAT     H158514   9.608   7.518   2.219
19424WAT     H258515   9.483   7.515   2.115
19425WAT      O58516   6.427   1.105   2.060
19425WAT     H158517   6.460   1.165   2.133
19425WAT     H258518   6.328   1.111   2.054
19426WAT      O58519   2.944   1.473   5.285
19426WAT     H158520   2.920   1.465   5.188
19426WAT     H258521   2.861   1.467   5.340
19427WAT      O58522   9.529   6.088   1.506
19427WAT     H158523   9.435   6.080   1.540
19427WAT     H258524   9.534   6.047   1.415
19428WAT      O58525   6.965   1.739   4.059
19428WAT     H158526   7.039   1.685   4.098
19428WAT     H258527   6.882   1.725   4.112
19429WAT      O58528   5.337   7.073   2.947
19429WAT     H158529   5.371   7.073   2.853
19429WAT     H258530   5.415   7.072   3.011
19430WAT      O58531   7.254   3.336   2.176
19430WAT     H158532   7.332   3.370   2.123
19430WAT     H258533   7.177   3.400   2.168
19431WAT      O58534   5.438   1.944   2.932
19431WAT     H158535   5.477   2.021   2.881
19431WAT     H258536   5.431   1.969   3.028
19432WAT      O58537   1.414   3.432   9.584
19432WAT     H158538   1.354   3.353   9.597
19432WAT     H258539   1.366   3.502   9.531
19433WAT      O58540   2.948   4.195   5.094
19433WAT     H158541   2.971   4.265   5.027
19433WAT     H258542   2.867   4.145   5.064
19434WAT      O58543   0.451   9.187   2.942
19434WAT     H158544   0.370   9.245   2.950
19434WAT     H258545   0.442   9.110   3.006
19435WAT      O58546   9.524   3.508   8.592
19435WAT     H158547   9.610   3.505   8.642
19435WAT     H258548   9.525   3.439   8.519
19436WAT      O58549   9.424   6.746   0.628
19436WAT     H158550   9.328   6.727   0.645
19436WAT     H258551   9.444   6.841   0.652
19437WAT      O58552   1.536   8.379   9.798
19437WAT     H158553   1.539   8.448   9.726
19437WAT     H258554   1.476   8.410   9.872
19438WAT      O58555   6.004   7.341   7.440
19438WAT     H158556   6.005   7.429   7.393
19438WAT     H258557   5.945   7.347   7.521
19439WAT      O58558   2.506   4.961   6.424
19439WAT     H158559   2.512   5.058   6.398
19439WAT     H258560   2.516   4.904   6.343
19440WAT      O58561   5.826   3.845   0.002
19440WAT     H158562   5.827   3.782   0.079
19440WAT     H258563   5.809   3.938   0.035
19441WAT      O58564   5.189   1.675   9.199
19441WAT     H158565   5.201   1.576   9.195
19441WAT     H258566   5.250   1.719   9.132
19442WAT      O58567   1.935   4.015   2.875
19442WAT     H158568   1.897   3.923   2.886
19442WAT     H258569   1.868   4.082   2.907
19443WAT      O58570   0.225   0.855   5.906
19443WAT     H158571   0.170   0.772   5.918
19443WAT     H258572   0.194   0.924   5.971
19444WAT      O58573   2.756   8.333   3.690
19444WAT     H158574   2.665   8.341   3.732
19444WAT     H258575   2.825   8.366   3.754
19445WAT      O58576   5.755   1.862   6.776
19445WAT     H158577   5.763   1.951   6.821
19445WAT     H258578   5.663   1.852   6.740
19446WAT      O58579   2.535   6.101   6.141
19446WAT     H158580   2.627   6.082   6.177
19446WAT     H258581   2.541   6.170   6.069
19447WAT      O58582   3.950   7.057   4.645
19447WAT     H158583   4.024   7.115   4.679
19447WAT     H258584   3.988   6.978   4.597
19448WAT      O58585   9.195   8.922   2.903
19448WAT     H158586   9.201   8.913   3.003
19448WAT     H258587   9.147   8.842   2.866
19449WAT      O58588   6.851   2.649   8.477
19449WAT     H158589   6.867   2.748   8.473
19449WAT     H258590   6.779   2.624   8.412
19450WAT      O58591   1.756   5.664   4.183
19450WAT     H158592   1.659   5.647   4.167
19450WAT     H258593   1.784   5.620   4.268
19451WAT      O58594   4.730   1.591   6.672
19451WAT     H158595   4.710   1.607   6.576
19451WAT     H258596   4.795   1.659   6.705
19452WAT      O58597   0.572   8.338   6.569
19452WAT     H158598   0.536   8.376   6.654
19452WAT     H258599   0.531   8.386   6.491
19453WAT      O58600   8.610   3.394   9.081
19453WAT     H158601   8.516   3.399   9.115
19453WAT     H258602   8.657   3.317   9.125
19454WAT      O58603   1.082   5.264   6.356
19454WAT     H158604   1.140   5.266   6.437
19454WAT     H258605   1.111   5.335   6.292
19455WAT      O58606   5.579   9.045   6.820
19455WAT     H158607   5.548   9.117   6.758
19455WAT     H258608   5.677   9.057   6.839
19456WAT      O58609   1.750   0.886   5.164
19456WAT     H158610   1.763   0.790   5.188
19456WAT     H258611   1.827   0.940   5.199
19457WAT      O58612   8.751   5.634   5.907
19457WAT     H158613   8.752   5.648   6.006
19457WAT     H258614   8.845   5.620   5.874
19458WAT      O58615   5.599   0.993   0.664
19458WAT     H158616   5.694   0.996   0.632
19458WAT     H258617   5.540   0.961   0.590
19459WAT      O58618   0.352   6.621   6.606
19459WAT     H158619   0.440   6.659   6.579
19459WAT     H258620   0.351   6.606   6.704
19460WAT      O58621   9.789   0.166   2.446
19460WAT     H158622   9.736   0.087   2.416
19460WAT     H258623   9.880   0.162   2.404
19461WAT      O58624   0.345   1.663   8.338
19461WAT     H158625   0.252   1.649   8.305
19461WAT     H258626   0.344   1.726   8.416
19462WAT      O58627   4.943   5.715   7.943
19462WAT     H158628   4.889   5.643   7.899
19462WAT     H258629   4.894   5.802   7.937
19463WAT      O58630   5.149   4.494   3.132
19463WAT     H158631   5.179   4.489   3.227
19463WAT     H258632   5.222   4.533   3.076
19464WAT      O58633   5.779   6.233   4.741
19464WAT     H158634   5.832   6.167   4.794
19464WAT     H258635   5.682   6.211   4.749
19465WAT      O58636   8.872   2.309   0.273
19465WAT     H158637   8.879   2.397   0.228
19465WAT     H258638   8.889   2.236   0.207
19466WAT      O58639   7.546   9.258   6.473
19466WAT     H158640   7.615   9.274   6.402
19466WAT     H258641   7.456   9.247   6.430
19467WAT      O58642   0.530   2.323   7.969
19467WAT     H158643   0.456   2.276   7.919
19467WAT     H258644   0.581   2.255   8.022
19468WAT      O58645   3.100   5.152   8.031
19468WAT     H158646   3.095   5.213   7.951
19468WAT     H258647   3.073   5.059   8.003
19469WAT      O58648   1.252   3.562   7.753
19469WAT     H158649   1.314   3.621   7.805
19469WAT     H258650   1.212   3.615   7.678
19470WAT      O58651   3.556   2.223   0.287
19470WAT     H158652   3.503   2.158   0.232
19470WAT     H258653   3.584   2.300   0.230
19471WAT      O58654   7.249   6.117   0.621
19471WAT     H158655   7.250   6.017   0.625
19471WAT     H258656   7.156   6.150   0.633
19472WAT      O58657   2.235   2.454   8.222
19472WAT     H158658   2.185   2.496   8.297
19472WAT     H258659   2.326   2.427   8.253
19473WAT      O58660   4.020   5.806   0.831
19473WAT     H158661   3.966   5.830   0.911
19473WAT     H258662   4.016   5.880   0.764
19474WAT      O58663   9.843   7.112   3.556
19474WAT     H158664   9.831   7.013   3.549
19474WAT     H258665   9.765   7.158   3.513
19475WAT      O58666   3.717   6.835   8.865
19475WAT     H158667   3.667   6.832   8.778
19475WAT     H258668   3.660   6.875   8.936
19476WAT      O58669   3.148   1.236   4.421
19476WAT     H158670   3.207   1.210   4.498
19476WAT     H258671   3.159   1.334   4.403
19477WAT      O58672   4.789   0.348   4.859
19477WAT     H158673   4.868   0.405   4.881
19477WAT     H258674   4.780   0.342   4.759
19478WAT      O58675   2.476   0.742   6.022
19478WAT     H158676   2.421   0.822   6.046
19478WAT     H258677   2.440   0.661   6.067
19479WAT      O58678   7.818   8.957   2.251
19479WAT     H158679   7.748   8.895   2.216
19479WAT     H258680   7.899   8.905   2.276
19480WAT      O58681   1.813   2.370   4.855
19480WAT     H158682   1.797   2.411   4.766
19480WAT     H258683   1.908   2.385   4.882
19481WAT      O58684   8.443   2.761   3.072
19481WAT     H158685   8.393   2.826   3.130
19481WAT     H258686   8.419   2.668   3.099
19482WAT      O58687   2.008   8.045   1.580
19482WAT     H158688   1.913   8.034   1.611
19482WAT     H258689   2.009   8.101   1.497
19483WAT      O58690   2.042   5.382   8.437
19483WAT     H158691   2.011   5.289   8.458
19483WAT     H258692   2.040   5.396   8.338
19484WAT      O58693   5.921   7.686   9.443
19484WAT     H158694   5.942   7.727   9.355
19484WAT     H258695   5.838   7.727   9.481
19485WAT      O58696   0.203   7.469   8.230
19485WAT     H158697   0.232   7.561   8.255
19485WAT     H258698   0.283   7.411   8.217
19486WAT      O58699   0.322   2.509   2.919
19486WAT     H158700   0.402   2.543   2.969
19486WAT     H258701   0.350   2.432   2.861
19487WAT      O58702   1.519   7.844   3.206
19487WAT     H158703   1.567   7.815   3.288
19487WAT     H258704   1.422   7.859   3.228
19488WAT      O58705   1.196   3.896   6.101
19488WAT     H158706   1.134   3.844   6.043
19488WAT     H258707   1.187   3.993   6.079
19489WAT      O58708   4.718   7.311   0.849
19489WAT     H158709   4.805   7.343   0.811
19489WAT     H258710   4.729   7.217   0.883
19490WAT      O58711   1.347   8.141   4.623
19490WAT     H158712   1.346   8.072   4.695
19490WAT     H258713   1.290   8.218   4.650
19491WAT      O58714   7.808   7.397   5.729
19491WAT     H158715   7.745   7.474   5.727
19491WAT     H258716   7.758   7.313   5.753
19492WAT      O58717   3.643   1.471   5.448
19492WAT     H158718   3.605   1.563   5.438
19492WAT     H258719   3.574   1.409   5.485
19493WAT      O58720   5.441   9.030   7.271
19493WAT     H158721   5.376   9.021   7.347
19493WAT     H258722   5.430   9.119   7.228
19494WAT      O58723   4.655   6.700   2.345
19494WAT     H158724   4.709   6.653   2.416
19494WAT     H258725   4.571   6.736   2.386
19495WAT      O58726   6.595   5.114   7.186
19495WAT     H158727   6.624   5.209   7.197
19495WAT     H258728   6.610   5.085   7.092
19496WAT      O58729   5.017   1.982   1.379
19496WAT     H158730   5.009   2.009   1.475
19496WAT     H258731   4.960   2.041   1.322
19497WAT      O58732   7.942   6.907   8.472
19497WAT     H158733   7.937   7.007   8.462
19497WAT     H258734   8.020   6.873   8.420
19498WAT      O58735   5.725   7.543   8.490
19498WAT     H158736   5.746   7.639   8.508
19498WAT     H258737   5.805   7.487   8.507
19499WAT      O58738   2.381   8.722   3.774
19499WAT     H158739   2.283   8.737   3.760
19499WAT     H258740   2.400   8.708   3.871
19500WAT      O58741   5.496   2.200   4.289
19500WAT     H158742   5.466   2.194   4.384
19500WAT     H258743   5.517   2.296   4.267
19501WAT      O58744   0.708   4.044   9.070
19501WAT     H158745   0.770   3.984   9.020
19501WAT     H258746   0.711   4.136   9.029
19502WAT      O58747   1.899   9.762   0.493
19502WAT     H158748   1.877   9.803   0.581
19502WAT     H258749   1.988   9.794   0.462
19503WAT      O58750   1.457   5.989   1.517
19503WAT     H158751   1.430   6.084   1.498
19503WAT     H258752   1.499   5.984   1.608
19504WAT      O58753   4.502   1.382   7.626
19504WAT     H158754   4.512   1.366   7.527
19504WAT     H258755   4.482   1.479   7.642
19505WAT      O58756   6.878   4.296   3.175
19505WAT     H158757   6.808   4.225   3.177
19505WAT     H258758   6.966   4.257   3.199
19506WAT      O58759   7.546   6.563   4.540
19506WAT     H158760   7.506   6.471   4.538
19506WAT     H258761   7.474   6.630   4.523
19507WAT      O58762   6.500   0.079   7.145
19507WAT     H158763   6.579   0.135   7.121
19507WAT     H258764   6.455   0.117   7.226
19508WAT      O58765   9.836   6.716   1.223
19508WAT     H158766   9.865   6.717   1.318
19508WAT     H258767   9.886   6.646   1.173
19509WAT      O58768   6.786   1.398   4.216
19509WAT     H158769   6.755   1.321   4.273
19509WAT     H258770   6.734   1.399   4.131
19510WAT      O58771   4.265   1.834   5.828
19510WAT     H158772   4.199   1.836   5.903
19510WAT     H258773   4.294   1.740   5.811
19511WAT      O58774   3.702   5.149   7.404
19511WAT     H158775   3.613   5.184   7.373
19511WAT     H258776   3.771   5.166   7.334
19512WAT      O58777   1.856   3.068   6.173
19512WAT     H158778   1.901   3.110   6.095
19512WAT     H258779   1.911   3.080   6.255
19513WAT      O58780   3.519   6.765   6.507
19513WAT     H158781   3.613   6.742   6.481
19513WAT     H258782   3.520   6.835   6.578
19514WAT      O58783   0.563   3.414   1.772
19514WAT     H158784   0.486   3.450   1.720
19514WAT     H258785   0.639   3.479   1.768
19515WAT      O58786   3.457   1.195   1.667
19515WAT     H158787   3.457   1.141   1.751
19515WAT     H258788   3.397   1.275   1.679
19516WAT      O58789   8.947   2.431   5.583
19516WAT     H158790   9.042   2.454   5.562
19516WAT     H258791   8.901   2.398   5.500
19517WAT      O58792   8.806   6.092   0.385
19517WAT     H158793   8.773   6.144   0.306
19517WAT     H258794   8.887   6.137   0.423
19518WAT      O58795   6.080   5.740   6.573
19518WAT     H158796   6.133   5.659   6.600
19518WAT     H258797   6.104   5.816   6.633
19519WAT      O58798   0.846   5.620   0.423
19519WAT     H158799   0.915   5.629   0.494
19519WAT     H258800   0.783   5.698   0.427
19520WAT      O58801   4.945   1.118   1.715
19520WAT     H158802   4.903   1.190   1.660
19520WAT     H258803   4.929   1.029   1.671
19521WAT      O58804   3.022   5.871   5.809
19521WAT     H158805   2.958   5.895   5.883
19521WAT     H258806   3.108   5.839   5.849
19522WAT      O58807   9.026   8.582   6.380
19522WAT     H158808   9.094   8.510   6.366
19522WAT     H258809   9.046   8.631   6.464
19523WAT      O58810   1.398   6.900   4.909
19523WAT     H158811   1.476   6.917   4.849
19523WAT     H258812   1.430   6.862   4.996
19524WAT      O58813   9.721   6.837   5.556
19524WAT     H158814   9.718   6.907   5.628
19524WAT     H258815   9.776   6.871   5.479
19525WAT      O58816   9.532   5.478   3.800
19525WAT     H158817   9.510   5.417   3.877
19525WAT     H258818   9.492   5.441   3.716
19526WAT      O58819   8.515   3.556   2.248
19526WAT     H158820   8.563   3.532   2.164
19526WAT     H258821   8.440   3.491   2.264
19527WAT      O58822   0.934   4.198   0.207
19527WAT     H158823   0.946   4.246   0.120
19527WAT     H258824   0.897   4.261   0.275
19528WAT      O58825   7.078   8.516   8.204
19528WAT     H158826   7.163   8.538   8.252
19528WAT     H258827   7.024   8.599   8.190
19529WAT      O58828   1.077   4.060   9.620
19529WAT     H158829   1.013   4.115   9.674
19529WAT     H258830   1.164   4.109   9.613
19530WAT      O58831   8.260   6.664   8.399
19530WAT     H158832   8.166   6.630   8.392
19530WAT     H258833   8.265   6.755   8.357
19531WAT      O58834   5.919   9.677   0.643
19531WAT     H158835   5.891   9.771   0.624
19531WAT     H258836   5.950   9.633   0.559
19532WAT      O58837   9.134   4.738   0.502
19532WAT     H158838   9.042   4.700   0.493
19532WAT     H258839   9.190   4.707   0.425
19533WAT      O58840   2.033   8.372   3.821
19533WAT     H158841   1.973   8.438   3.866
19533WAT     H258842   1.981   8.319   3.755
19534WAT      O58843   7.703   0.830   2.646
19534WAT     H158844   7.631   0.844   2.579
19534WAT     H258845   7.724   0.916   2.691
19535WAT      O58846   8.030   8.290   5.861
19535WAT     H158847   7.984   8.202   5.876
19535WAT     H258848   8.129   8.275   5.856
19536WAT      O58849   6.905   2.816   0.891
19536WAT     H158850   6.810   2.846   0.893
19536WAT     H258851   6.964   2.894   0.871
19537WAT      O58852   1.454   3.187   3.077
19537WAT     H158853   1.362   3.226   3.069
19537WAT     H258854   1.520   3.248   3.035
19538WAT      O58855   5.916   3.610   1.484
19538WAT     H158856   5.885   3.580   1.394
19538WAT     H258857   5.928   3.709   1.484
19539WAT      O58858   1.410   4.478   8.072
19539WAT     H158859   1.498   4.432   8.072
19539WAT     H258860   1.421   4.571   8.038
19540WAT      O58861   7.987   0.488   6.889
19540WAT     H158862   8.005   0.474   6.987
19540WAT     H258863   7.963   0.401   6.847
19541WAT      O58864   7.862   4.133   9.032
19541WAT     H158865   7.846   4.152   8.935
19541WAT     H258866   7.818   4.203   9.088
19542WAT      O58867   3.640   4.632   3.905
19542WAT     H158868   3.613   4.721   3.943
19542WAT     H258869   3.645   4.639   3.805
19543WAT      O58870   9.298   9.805   2.175
19543WAT     H158871   9.296   9.848   2.265
19543WAT     H258872   9.269   9.872   2.106
19544WAT      O58873   5.093   6.171   8.159
19544WAT     H158874   5.069   6.263   8.190
19544WAT     H258875   5.164   6.133   8.219
19545WAT      O58876   9.248   4.663   5.774
19545WAT     H158877   9.250   4.580   5.831
19545WAT     H258878   9.322   4.724   5.803
19546WAT      O58879   9.386   1.904   1.107
19546WAT     H158880   9.387   2.002   1.089
19546WAT     H258881   9.471   1.878   1.152
19547WAT      O58882   1.251   8.310   0.760
19547WAT     H158883   1.200   8.232   0.796
19547WAT     H258884   1.342   8.313   0.801
19548WAT      O58885   6.177   2.787   6.711
19548WAT     H158886   6.107   2.729   6.669
19548WAT     H258887   6.249   2.806   6.645
19549WAT      O58888   5.754   1.359   8.113
19549WAT     H158889   5.693   1.322   8.183
19549WAT     H258890   5.709   1.353   8.024
19550WAT      O58891   8.321   3.382   2.284
19550WAT     H158892   8.282   3.348   2.369
19550WAT     H258893   8.261   3.357   2.207
19551WAT      O58894   1.752   5.811   7.242
19551WAT     H158895   1.795   5.876   7.305
19551WAT     H258896   1.819   5.779   7.176
19552WAT      O58897   2.845   0.635   5.709
19552WAT     H158898   2.772   0.627   5.642
19552WAT     H258899   2.806   0.659   5.798
19553WAT      O58900   8.321   2.349   5.061
19553WAT     H158901   8.380   2.368   5.139
19553WAT     H258902   8.348   2.263   5.018
19554WAT      O58903   0.745   4.623   6.416
19554WAT     H158904   0.691   4.571   6.351
19554WAT     H258905   0.775   4.563   6.491
19555WAT      O58906   0.060   8.232   4.220
19555WAT     H158907   0.025   8.276   4.303
19555WAT     H258908   0.154   8.261   4.204
19556WAT      O58909   3.983   3.263   9.730
19556WAT     H158910   3.944   3.353   9.709
19556WAT     H258911   4.026   3.266   9.821
19557WAT      O58912   5.333   2.549   8.712
19557WAT     H158913   5.399   2.477   8.690
19557WAT     H258914   5.270   2.517   8.783
19558WAT      O58915   4.487   6.754   6.531
19558WAT     H158916   4.474   6.818   6.607
19558WAT     H258917   4.407   6.757   6.471
19559WAT      O58918   4.995   4.162   9.479
19559WAT     H158919   5.068   4.202   9.424
19559WAT     H258920   4.988   4.212   9.566
19560WAT      O58921   1.000   5.877   3.545
19560WAT     H158922   0.911   5.863   3.500
19560WAT     H258923   1.057   5.936   3.487
19561WAT      O58924   0.891   0.861   6.255
19561WAT     H158925   0.827   0.812   6.314
19561WAT     H258926   0.974   0.806   6.244
19562WAT      O58927   7.095   5.079   1.873
19562WAT     H158928   7.062   5.097   1.966
19562WAT     H258929   7.181   5.028   1.878
19563WAT      O58930   1.151   0.707   0.566
19563WAT     H158931   1.147   0.786   0.504
19563WAT     H258932   1.098   0.727   0.648
19564WAT      O58933   7.398   8.271   5.296
19564WAT     H158934   7.365   8.177   5.296
19564WAT     H258935   7.497   8.272   5.284
19565WAT      O58936   8.565   5.016   0.268
19565WAT     H158937   8.531   5.095   0.320
19565WAT     H258938   8.662   5.028   0.250
19566WAT      O58939   0.584   0.469   2.812
19566WAT     H158940   0.642   0.440   2.888
19566WAT     H258941   0.607   0.417   2.730
19567WAT      O58942   2.751   9.339   5.832
19567WAT     H158943   2.823   9.333   5.900
19567WAT     H258944   2.675   9.280   5.858
19568WAT      O58945   7.560   4.555   9.722
19568WAT     H158946   7.463   4.541   9.704
19568WAT     H258947   7.599   4.471   9.759
19569WAT      O58948   3.962   6.320   0.557
19569WAT     H158949   3.898   6.374   0.502
19569WAT     H258950   3.918   6.235   0.585
19570WAT      O58951   1.086   7.777   3.236
19570WAT     H158952   1.146   7.775   3.156
19570WAT     H258953   1.031   7.860   3.234
19571WAT      O58954   8.895   8.843   1.451
19571WAT     H158955   8.899   8.943   1.446
19571WAT     H258956   8.868   8.806   1.361
19572WAT      O58957   1.775   0.285   7.903
19572WAT     H158958   1.823   0.208   7.944
19572WAT     H258959   1.820   0.370   7.930
19573WAT      O58960   4.853   7.307   1.152
19573WAT     H158961   4.899   7.329   1.238
19573WAT     H258962   4.825   7.391   1.106
19574WAT      O58963   7.829   3.777   6.600
19574WAT     H158964   7.772   3.834   6.660
19574WAT     H258965   7.829   3.683   6.635
19575WAT      O58966   1.094   6.971   1.692
19575WAT     H158967   1.176   7.001   1.742
19575WAT     H258968   1.013   7.015   1.731
19576WAT      O58969   1.046   8.630   5.515
19576WAT     H158970   1.101   8.674   5.444
19576WAT     H258971   1.062   8.531   5.514
19577WAT      O58972   7.957   1.555   0.024
19577WAT     H158973   7.943   1.544   0.123
19577WAT     H258974   7.901   1.488  -0.025
19578WAT      O58975   1.350   3.056   5.272
19578WAT     H158976   1.360   3.103   5.359
19578WAT     H258977   1.262   3.009   5.269
19579WAT      O58978   3.877   5.942   0.367
19579WAT     H158979   3.835   5.887   0.440
19579WAT     H258980   3.808   6.002   0.327
19580WAT      O58981   8.015   2.548   1.107
19580WAT     H158982   8.086   2.551   1.037
19580WAT     H258983   7.989   2.641   1.132
19581WAT      O58984   2.925   8.927   8.220
19581WAT     H158985   2.867   8.954   8.297
19581WAT     H258986   3.016   8.902   8.255
19582WAT      O58987   1.504   7.282   7.357
19582WAT     H158988   1.416   7.328   7.366
19582WAT     H258989   1.492   7.197   7.306
19583WAT      O58990   3.009   6.885   8.799
19583WAT     H158991   3.106   6.877   8.818
19583WAT     H258992   2.983   6.820   8.727
19584WAT      O58993   0.585   6.271   3.313
19584WAT     H158994   0.622   6.180   3.333
19584WAT     H258995   0.520   6.265   3.238
19585WAT      O58996   6.166   8.440   8.062
19585WAT     H158997   6.183   8.373   8.134
19585WAT     H258998   6.250   8.456   8.010
19586WAT      O58999   0.682   3.815   4.765
19586WAT     H159000   0.587   3.804   4.794
19586WAT     H259001   0.685   3.859   4.675
19587WAT      O59002   3.112   1.928   6.477
19587WAT     H159003   3.096   1.830   6.465
19587WAT     H259004   3.189   1.957   6.420
19588WAT      O59005   5.150   7.295   5.952
19588WAT     H159006   5.243   7.331   5.959
19588WAT     H259007   5.088   7.369   5.925
19589WAT      O59008   7.396   3.020   2.835
19589WAT     H159009   7.336   2.940   2.826
19589WAT     H259010   7.394   3.052   2.930
19590WAT      O59011   0.716   8.724   3.790
19590WAT     H159012   0.648   8.738   3.718
19590WAT     H259013   0.710   8.798   3.856
19591WAT      O59014   2.649   5.609   4.236
19591WAT     H159015   2.739   5.615   4.278
19591WAT     H259016   2.653   5.547   4.157
19592WAT      O59017   0.729   4.047   1.209
19592WAT     H159018   0.652   4.108   1.191
19592WAT     H259019   0.803   4.066   1.145
19593WAT      O59020   6.829   7.327   8.270
19593WAT     H159021   6.800   7.238   8.236
19593WAT     H259022   6.748   7.382   8.294
19594WAT      O59023   6.776   8.004   5.059
19594WAT     H159024   6.843   7.936   5.089
19594WAT     H259025   6.710   7.961   4.997
19595WAT      O59026   2.867   7.057   9.599
19595WAT     H159027   2.768   7.068   9.590
19595WAT     H259028   2.887   6.990   9.671
19596WAT      O59029   6.325   3.035   1.554
19596WAT     H159030   6.368   3.020   1.643
19596WAT     H259031   6.390   3.010   1.482
19597WAT      O59032   7.847   0.647   6.272
19597WAT     H159033   7.761   0.643   6.322
19597WAT     H259034   7.912   0.583   6.312
19598WAT      O59035   9.701   4.295   9.808
19598WAT     H159036   9.649   4.269   9.890
19598WAT     H259037   9.780   4.350   9.836
19599WAT      O59038   8.913   9.495   3.400
19599WAT     H159039   8.995   9.515   3.347
19599WAT     H259040   8.833   9.529   3.351
19600WAT      O59041   4.903   2.825   0.465
19600WAT     H159042   4.859   2.736   0.481
19600WAT     H259043   4.971   2.841   0.537
19601WAT      O59044   5.943   4.831   1.739
19601WAT     H159045   5.974   4.820   1.645
19601WAT     H259046   5.887   4.914   1.747
19602WAT      O59047   2.623   8.283   0.243
19602WAT     H159048   2.576   8.336   0.313
19602WAT     H259049   2.714   8.323   0.226
19603WAT      O59050   8.905   8.583   1.565
19603WAT     H159051   8.816   8.548   1.593
19603WAT     H259052   8.896   8.678   1.535
19604WAT      O59053   2.784   4.287   1.894
19604WAT     H159054   2.845   4.209   1.886
19604WAT     H259055   2.783   4.338   1.808
19605WAT      O59056   1.054   6.054   0.113
19605WAT     H159057   1.073   6.018   0.205
19605WAT     H259058   0.966   6.019   0.081
19606WAT      O59059   8.003   3.874   1.199
19606WAT     H159060   7.923   3.851   1.254
19606WAT     H259061   7.982   3.862   1.102
19607WAT      O59062   3.613   6.968   2.882
19607WAT     H159063   3.538   7.030   2.904
19607WAT     H259064   3.694   6.993   2.934
19608WAT      O59065   4.845   6.501   3.530
19608WAT     H159066   4.921   6.447   3.495
19608WAT     H259067   4.878   6.568   3.597
19609WAT      O59068   2.267   0.235   2.950
19609WAT     H159069   2.358   0.275   2.946
19609WAT     H259070   2.234   0.217   2.857
19610WAT      O59071   4.860   8.005   5.243
19610WAT     H159072   4.771   8.036   5.209
19610WAT     H259073   4.863   7.905   5.244
19611WAT      O59074   2.138   4.988   7.546
19611WAT     H159075   2.139   4.999   7.645
19611WAT     H259076   2.056   4.938   7.519
19612WAT      O59077   9.548   7.929   7.420
19612WAT     H159078   9.630   7.923   7.478
19612WAT     H259079   9.507   7.838   7.412
19613WAT      O59080   6.325   9.203   2.399
19613WAT     H159081   6.249   9.139   2.398
19613WAT     H259082   6.372   9.198   2.487
19614WAT      O59083   9.527   7.955   3.903
19614WAT     H159084   9.588   7.878   3.922
19614WAT     H259085   9.528   8.019   3.979
19615WAT      O59086   0.873   4.729   8.247
19615WAT     H159087   0.888   4.679   8.161
19615WAT     H259088   0.896   4.825   8.234
19616WAT      O59089   2.144   0.054   4.266
19616WAT     H159090   2.073   0.101   4.318
19616WAT     H259091   2.216   0.119   4.242
19617WAT      O59092   1.668   8.498   3.768
19617WAT     H159093   1.677   8.407   3.808
19617WAT     H259094   1.579   8.537   3.791
19618WAT      O59095   0.508   8.549   3.574
19618WAT     H159096   0.463   8.462   3.555
19618WAT     H259097   0.451   8.624   3.539
19619WAT      O59098   3.562   8.903   9.001
19619WAT     H159099   3.588   8.914   9.097
19619WAT     H259100   3.622   8.836   8.957
19620WAT      O59101   1.815   7.932   8.921
19620WAT     H159102   1.862   7.963   8.839
19620WAT     H259103   1.877   7.936   8.999
19621WAT      O59104   3.030   0.842   7.165
19621WAT     H159105   3.099   0.829   7.236
19621WAT     H259106   3.006   0.753   7.126
19622WAT      O59107   7.619   2.520   6.225
19622WAT     H159108   7.576   2.512   6.315
19622WAT     H259109   7.608   2.433   6.176
19623WAT      O59110   6.685   9.812   3.337
19623WAT     H159111   6.770   9.862   3.352
19623WAT     H259112   6.671   9.746   3.411
19624WAT      O59113   8.929   1.362   3.916
19624WAT     H159114   8.831   1.375   3.926
19624WAT     H259115   8.948   1.321   3.827
19625WAT      O59116   5.368   8.239   1.888
19625WAT     H159117   5.405   8.329   1.867
19625WAT     H259118   5.344   8.235   1.985
19626WAT      O59119   6.244   8.976   7.979
19626WAT     H159120   6.186   8.918   7.922
19626WAT     H259121   6.248   8.939   8.072
19627WAT      O59122   7.553   9.182   5.086
19627WAT     H159123   7.606   9.101   5.062
19627WAT     H259124   7.529   9.232   5.003
19628WAT      O59125   3.163   3.375   7.179
19628WAT     H159126   3.098   3.334   7.115
19628WAT     H259127   3.168   3.473   7.163
19629WAT      O59128   4.012   1.359   1.813
19629WAT     H159129   4.109   1.348   1.791
19629WAT     H259130   3.980   1.447   1.778
19630WAT      O59131   9.360   5.030   4.150
19630WAT     H159132   9.286   4.973   4.186
19630WAT     H259133   9.348   5.124   4.183
19631WAT      O59134   0.381   7.863   6.876
19631WAT     H159135   0.441   7.920   6.932
19631WAT     H259136   0.384   7.895   6.781
19632WAT      O59137   5.618   2.868   4.260
19632WAT     H159138   5.711   2.832   4.263
19632WAT     H259139   5.611   2.948   4.319
19633WAT      O59140   8.859   7.740   5.282
19633WAT     H159141   8.846   7.642   5.266
19633WAT     H259142   8.932   7.752   5.350
19634WAT      O59143   9.519   1.483   4.176
19634WAT     H159144   9.533   1.496   4.078
19634WAT     H259145   9.473   1.395   4.192
19635WAT      O59146   1.908   0.792   0.576
19635WAT     H159147   1.941   0.725   0.510
19635WAT     H259148   1.884   0.746   0.662
19636WAT      O59149   9.605   2.031   8.017
19636WAT     H159150   9.591   1.968   8.094
19636WAT     H259151   9.641   2.118   8.051
19637WAT      O59152   0.127   4.188   7.931
19637WAT     H159153   0.041   4.240   7.927
19637WAT     H259154   0.165   4.179   7.839
19638WAT      O59155   0.361   6.961   8.105
19638WAT     H159156   0.388   6.978   8.010
19638WAT     H259157   0.297   6.884   8.108
19639WAT      O59158   7.340   0.062   1.482
19639WAT     H159159   7.278   0.071   1.560
19639WAT     H259160   7.323   0.135   1.417
19640WAT      O59161   6.626   0.012   9.832
19640WAT     H159162   6.539  -0.010   9.875
19640WAT     H259163   6.649  -0.059   9.765
19641WAT      O59164   0.599   5.254   6.859
19641WAT     H159165   0.694   5.244   6.886
19641WAT     H259166   0.578   5.192   6.783
19642WAT      O59167   0.147   4.476   5.558
19642WAT     H159168   0.224   4.418   5.530
19642WAT     H259169   0.061   4.430   5.537
19643WAT      O59170   7.646   7.743   4.874
19643WAT     H159171   7.710   7.810   4.838
19643WAT     H259172   7.667   7.653   4.835
19644WAT      O59173   4.127   1.896   6.584
19644WAT     H159174   4.100   1.939   6.498
19644WAT     H259175   4.165   1.965   6.646
19645WAT      O59176   7.519   5.866   9.562
19645WAT     H159177   7.583   5.791   9.550
19645WAT     H259178   7.565   5.943   9.606
19646WAT      O59179   9.613   7.310   5.265
19646WAT     H159180   9.545   7.380   5.287
19646WAT     H259181   9.704   7.351   5.266
19647WAT      O59182   4.393   9.535   0.467
19647WAT     H159183   4.482   9.582   0.467
19647WAT     H259184   4.328   9.588   0.521
19648WAT      O59185   9.128   1.339   5.188
19648WAT     H159186   9.098   1.425   5.149
19648WAT     H259187   9.062   1.308   5.257
19649WAT      O59188   8.563   3.491   5.388
19649WAT     H159189   8.559   3.503   5.488
19649WAT     H259190   8.534   3.575   5.343
19650WAT      O59191   2.969   3.704   4.270
19650WAT     H159192   2.978   3.751   4.358
19650WAT     H259193   3.060   3.682   4.235
19651WAT      O59194   2.872   3.147   3.925
19651WAT     H159195   2.896   3.097   4.009
19651WAT     H259196   2.915   3.237   3.928
19652WAT      O59197   2.795   8.656   4.481
19652WAT     H159198   2.787   8.735   4.419
19652WAT     H259199   2.778   8.685   4.575
19653WAT      O59200   7.567   6.643   6.259
19653WAT     H159201   7.516   6.614   6.340
19653WAT     H259202   7.507   6.640   6.179
19654WAT      O59203   1.658   8.352   0.565
19654WAT     H159204   1.648   8.448   0.591
19654WAT     H259205   1.711   8.304   0.634
19655WAT      O59206   0.062   5.764   1.559
19655WAT     H159207   0.123   5.816   1.618
19655WAT     H259208   0.115   5.699   1.504
19656WAT      O59209   6.700   2.103   5.961
19656WAT     H159210   6.715   2.057   6.048
19656WAT     H259211   6.783   2.097   5.905
19657WAT      O59212   9.166   5.732   5.952
19657WAT     H159213   9.237   5.796   5.981
19657WAT     H259214   9.163   5.654   6.015
19658WAT      O59215   1.396   9.304   5.383
19658WAT     H159216   1.309   9.258   5.400
19658WAT     H259217   1.454   9.294   5.464
19659WAT      O59218   3.639   2.600   8.613
19659WAT     H159219   3.543   2.586   8.588
19659WAT     H259220   3.682   2.512   8.634
19660WAT      O59221   2.257   5.869   2.903
19660WAT     H159222   2.184   5.804   2.924
19660WAT     H259223   2.308   5.837   2.823
19661WAT      O59224   0.450   1.322   0.139
19661WAT     H159225   0.441   1.409   0.091
19661WAT     H259226   0.407   1.249   0.086
19662WAT      O59227   9.326   6.014   1.659
19662WAT     H159228   9.378   5.929   1.646
19662WAT     H259229   9.305   6.025   1.756
19663WAT      O59230   6.046   4.982   8.704
19663WAT     H159231   6.043   4.892   8.748
19663WAT     H259232   6.028   4.971   8.606
19664WAT      O59233   0.127   2.213   6.384
19664WAT     H159234   0.055   2.280   6.403
19664WAT     H259235   0.090   2.139   6.329
19665WAT      O59236   8.930   1.231   7.826
19665WAT     H159237   8.915   1.187   7.738
19665WAT     H259238   9.018   1.278   7.826
19666WAT      O59239   8.573   6.610   2.625
19666WAT     H159240   8.529   6.694   2.593
19666WAT     H259241   8.503   6.541   2.645
19667WAT      O59242   5.657   6.419   8.954
19667WAT     H159243   5.592   6.493   8.972
19667WAT     H259244   5.736   6.455   8.906
19668WAT      O59245   4.122   6.979   0.470
19668WAT     H159246   4.154   6.963   0.377
19668WAT     H259247   4.122   6.892   0.520
19669WAT      O59248   6.745   3.623   4.549
19669WAT     H159249   6.838   3.610   4.583
19669WAT     H259250   6.748   3.663   4.457
19670WAT      O59251   5.255   2.986   3.954
19670WAT     H159252   5.283   3.055   4.022
19670WAT     H259253   5.336   2.955   3.904
19671WAT      O59254   7.219   8.856   8.358
19671WAT     H159255   7.267   8.934   8.319
19671WAT     H259256   7.143   8.887   8.415
19672WAT      O59257   0.538   0.198   5.318
19672WAT     H159258   0.582   0.162   5.400
19672WAT     H259259   0.608   0.234   5.255
19673WAT      O59260   3.573   4.933   2.319
19673WAT     H159261   3.500   4.998   2.300
19673WAT     H259262   3.534   4.850   2.360
19674WAT      O59263   1.583   4.501   7.279
19674WAT     H159264   1.591   4.471   7.184
19674WAT     H259265   1.550   4.595   7.281
19675WAT      O59266   3.168   1.031   0.994
19675WAT     H159267   3.080   1.075   1.013
19675WAT     H259268   3.168   0.938   1.032
19676WAT      O59269   0.896   0.335   7.581
19676WAT     H159270   0.943   0.383   7.655
19676WAT     H259271   0.858   0.402   7.517
19677WAT      O59272   5.823   8.952   2.434
19677WAT     H159273   5.795   8.857   2.448
19677WAT     H259274   5.756   8.998   2.376
19678WAT      O59275   5.622   8.112   1.249
19678WAT     H159276   5.673   8.197   1.256
19678WAT     H259277   5.625   8.064   1.337
19679WAT      O59278   7.248   9.184   9.851
19679WAT     H159279   7.185   9.213   9.779
19679WAT     H259280   7.312   9.257   9.872
19680WAT      O59281   0.622   4.030   9.348
19680WAT     H159282   0.716   4.065   9.346
19680WAT     H259283   0.591   4.011   9.254
19681WAT      O59284   4.189   1.571   7.545
19681WAT     H159285   4.244   1.605   7.468
19681WAT     H259286   4.119   1.508   7.511
19682WAT      O59287   1.755   5.927   4.069
19682WAT     H159288   1.712   5.840   4.092
19682WAT     H259289   1.841   5.937   4.119
19683WAT      O59290   4.922   4.323   5.051
19683WAT     H159291   4.966   4.240   5.017
19683WAT     H259292   4.823   4.313   5.044
19684WAT      O59293   4.535   5.008   3.051
19684WAT     H159294   4.578   4.920   3.033
19684WAT     H259295   4.605   5.077   3.069
19685WAT      O59296   6.586   6.345   6.547
19685WAT     H159297   6.668   6.293   6.570
19685WAT     H259298   6.548   6.387   6.629
19686WAT      O59299   6.629   9.280   8.939
19686WAT     H159300   6.667   9.370   8.961
19686WAT     H259301   6.545   9.266   8.991
19687WAT      O59302   0.763   3.077   3.741
19687WAT     H159303   0.689   3.100   3.803
19687WAT     H259304   0.805   3.161   3.706
19688WAT      O59305   0.289   7.081   9.512
19688WAT     H159306   0.227   7.144   9.465
19688WAT     H259307   0.241   7.038   9.588
19689WAT      O59308   4.895   3.489   2.352
19689WAT     H159309   4.889   3.392   2.373
19689WAT     H259310   4.978   3.507   2.298
19690WAT      O59311   3.819   1.837   9.426
19690WAT     H159312   3.787   1.756   9.477
19690WAT     H259313   3.767   1.844   9.341
19691WAT      O59314   9.311   4.728   0.164
19691WAT     H159315   9.269   4.819   0.163
19691WAT     H259316   9.364   4.715   0.080
19692WAT      O59317   3.211   6.654   4.638
19692WAT     H159318   3.304   6.638   4.672
19692WAT     H259319   3.150   6.674   4.715
19693WAT      O59320   5.472   3.898   4.018
19693WAT     H159321   5.457   3.801   4.038
19693WAT     H259322   5.425   3.953   4.086
19694WAT      O59323   4.998   5.586   9.559
19694WAT     H159324   5.087   5.630   9.551
19694WAT     H259325   4.984   5.526   9.481
19695WAT      O59326   3.614   2.767   3.068
19695WAT     H159327   3.653   2.679   3.092
19695WAT     H259328   3.666   2.808   2.993
19696WAT      O59329   8.870   0.773   3.783
19696WAT     H159330   8.947   0.835   3.770
19696WAT     H259331   8.797   0.797   3.718
19697WAT      O59332   3.546   9.361   4.307
19697WAT     H159333   3.507   9.292   4.368
19697WAT     H259334   3.487   9.442   4.306
19698WAT      O59335   2.883   3.302   8.499
19698WAT     H159336   2.951   3.264   8.436
19698WAT     H259337   2.929   3.339   8.579
19699WAT      O59338   9.521   4.316   2.531
19699WAT     H159339   9.533   4.414   2.546
19699WAT     H259340   9.442   4.284   2.582
19700WAT      O59341   4.704   0.762   5.006
19700WAT     H159342   4.718   0.784   5.102
19700WAT     H259343   4.778   0.803   4.952
19701WAT      O59344   2.829   8.899   3.486
19701WAT     H159345   2.876   8.943   3.410
19701WAT     H259346   2.852   8.946   3.571
19702WAT      O59347   1.729   8.892   0.604
19702WAT     H159348   1.771   8.968   0.654
19702WAT     H259349   1.655   8.926   0.546
19703WAT      O59350   9.505   8.002   2.251
19703WAT     H159351   9.492   7.918   2.304
19703WAT     H259352   9.464   8.079   2.300
19704WAT      O59353   2.119   6.760   6.697
19704WAT     H159354   2.090   6.808   6.781
19704WAT     H259355   2.188   6.692   6.721
19705WAT      O59356   8.884   7.118   3.355
19705WAT     H159357   8.954   7.069   3.303
19705WAT     H259358   8.891   7.216   3.335
19706WAT      O59359   8.385   1.540   6.115
19706WAT     H159360   8.389   1.458   6.173
19706WAT     H259361   8.468   1.546   6.060
19707WAT      O59362   8.931   3.013   2.250
19707WAT     H159363   8.872   2.966   2.316
19707WAT     H259364   8.944   2.955   2.170
19708WAT      O59365   0.377   1.296   7.968
19708WAT     H159366   0.445   1.297   8.042
19708WAT     H259367   0.368   1.388   7.929
19709WAT      O59368   8.464   1.029   6.803
19709WAT     H159369   8.476   1.099   6.733
19709WAT     H259370   8.378   0.980   6.785
19710WAT      O59371   6.829   0.061   2.463
19710WAT     H159372   6.751  -0.002   2.467
19710WAT     H259373   6.902   0.028   2.523
19711WAT      O59374   6.451   4.443   3.843
19711WAT     H159375   6.392   4.493   3.780
19711WAT     H259376   6.475   4.502   3.920
19712WAT      O59377   7.962   3.937   9.290
19712WAT     H159378   7.919   3.956   9.202
19712WAT     H259379   8.046   3.991   9.298
19713WAT      O59380   1.377   2.491   6.857
19713WAT     H159381   1.431   2.543   6.792
19713WAT     H259382   1.283   2.527   6.859
19714WAT      O59383   2.270   6.225   9.480
19714WAT     H159384   2.231   6.307   9.438
19714WAT     H259385   2.365   6.243   9.507
19715WAT      O59386   4.108   0.603   0.471
19715WAT     H159387   4.200   0.596   0.433
19715WAT     H259388   4.114   0.622   0.569
19716WAT      O59389   8.026   0.903   7.748
19716WAT     H159390   8.114   0.925   7.706
19716WAT     H259391   7.986   0.987   7.787
19717WAT      O59392   5.919   4.677   4.533
19717WAT     H159393   5.895   4.654   4.439
19717WAT     H259394   5.860   4.627   4.596
19718WAT      O59395   4.093   6.269   6.602
19718WAT     H159396   4.027   6.344   6.610
19718WAT     H259397   4.133   6.250   6.692
19719WAT      O59398   9.680   8.112   4.406
19719WAT     H159399   9.729   8.134   4.490
19719WAT     H259400   9.677   8.192   4.346
19720WAT      O59401   9.694   4.676   0.041
19720WAT     H159402   9.753   4.597   0.021
19720WAT     H259403   9.738   4.759   0.007
19721WAT      O59404   9.781   8.605   6.128
19721WAT     H159405   9.697   8.618   6.181
19721WAT     H259406   9.780   8.665   6.049
19722WAT      O59407   7.812   6.056   2.175
19722WAT     H159408   7.764   5.968   2.186
19722WAT     H259409   7.844   6.087   2.264
19723WAT      O59410   2.126   5.276   6.616
19723WAT     H159411   2.153   5.214   6.690
19723WAT     H259412   2.141   5.230   6.528
19724WAT      O59413   4.979   8.037   7.355
19724WAT     H159414   5.046   8.059   7.425
19724WAT     H259415   4.903   7.987   7.396
19725WAT      O59416   7.445   7.267   8.095
19725WAT     H159417   7.524   7.276   8.035
19725WAT     H259418   7.387   7.348   8.087
19726WAT      O59419   5.407   9.500   3.315
19726WAT     H159420   5.460   9.451   3.246
19726WAT     H259421   5.346   9.565   3.270
19727WAT      O59422   1.347   5.525   1.892
19727WAT     H159423   1.409   5.510   1.815
19727WAT     H259424   1.298   5.440   1.912
19728WAT      O59425   5.083   7.501   8.702
19728WAT     H159426   4.994   7.546   8.699
19728WAT     H259427   5.111   7.476   8.610
19729WAT      O59428   6.933   6.380   0.248
19729WAT     H159429   6.946   6.287   0.282
19729WAT     H259430   7.020   6.430   0.255
19730WAT      O59431   1.563   2.675   6.763
19730WAT     H159432   1.629   2.687   6.838
19730WAT     H259433   1.611   2.680   6.676
19731WAT      O59434   9.621   7.308   3.538
19731WAT     H159435   9.667   7.396   3.531
19731WAT     H259436   9.553   7.299   3.465
19732WAT      O59437   2.300   3.113   6.701
19732WAT     H159438   2.209   3.153   6.688
19732WAT     H259439   2.370   3.180   6.678
19733WAT      O59440   0.017   2.008   6.256
19733WAT     H159441  -0.065   2.036   6.206
19733WAT     H259442  -0.009   1.949   6.333
19734WAT      O59443   6.800   7.534   8.619
19734WAT     H159444   6.867   7.539   8.545
19734WAT     H259445   6.844   7.496   8.701
19735WAT      O59446   7.284   6.106   7.711
19735WAT     H159447   7.381   6.092   7.731
19735WAT     H259448   7.248   6.027   7.662
19736WAT      O59449   5.330   6.483   7.500
19736WAT     H159450   5.306   6.478   7.403
19736WAT     H259451   5.399   6.555   7.514
19737WAT      O59452   2.000   8.896   7.156
19737WAT     H159453   2.048   8.877   7.242
19737WAT     H259454   1.958   8.813   7.122
19738WAT      O59455   6.209   6.011   1.045
19738WAT     H159456   6.158   5.990   1.129
19738WAT     H259457   6.303   5.978   1.056
19739WAT      O59458   2.276   5.903   1.102
19739WAT     H159459   2.209   5.945   1.162
19739WAT     H259460   2.305   5.968   1.032
19740WAT      O59461   7.408   4.951   7.872
19740WAT     H159462   7.481   5.017   7.853
19740WAT     H259463   7.320   4.991   7.848
19741WAT      O59464   3.603   2.208   2.565
19741WAT     H159465   3.674   2.255   2.618
19741WAT     H259466   3.516   2.216   2.612
19742WAT      O59467   5.064   5.230   3.485
19742WAT     H159468   5.041   5.207   3.579
19742WAT     H259469   5.155   5.196   3.463
19743WAT      O59470   1.303   6.686   1.576
19743WAT     H159471   1.314   6.743   1.658
19743WAT     H259472   1.268   6.742   1.501
19744WAT      O59473   2.522   7.550   5.086
19744WAT     H159474   2.525   7.628   5.148
19744WAT     H259475   2.429   7.539   5.051
19745WAT      O59476   2.987   3.232   2.493
19745WAT     H159477   2.982   3.297   2.416
19745WAT     H259478   3.082   3.208   2.510
19746WAT      O59479   2.229   5.366   4.958
19746WAT     H159480   2.276   5.454   4.952
19746WAT     H259481   2.197   5.340   4.867
19747WAT      O59482   2.334   5.045   4.521
19747WAT     H159483   2.349   5.043   4.422
19747WAT     H259484   2.246   5.089   4.540
19748WAT      O59485   0.435   1.142   4.612
19748WAT     H159486   0.475   1.195   4.537
19748WAT     H259487   0.400   1.204   4.682
19749WAT      O59488   7.039   1.248   3.395
19749WAT     H159489   7.074   1.340   3.377
19749WAT     H259490   6.942   1.244   3.369
19750WAT      O59491   5.749   1.675   1.311
19750WAT     H159492   5.700   1.755   1.276
19750WAT     H259493   5.770   1.689   1.408
19751WAT      O59494   1.899   6.198   2.299
19751WAT     H159495   1.997   6.186   2.317
19751WAT     H259496   1.852   6.110   2.305
19752WAT      O59497   9.316   7.452   7.498
19752WAT     H159498   9.406   7.481   7.466
19752WAT     H259499   9.245   7.490   7.438
19753WAT      O59500   2.607   1.329   4.877
19753WAT     H159501   2.576   1.295   4.788
19753WAT     H259502   2.578   1.424   4.888
19754WAT      O59503   3.047   2.418   0.193
19754WAT     H159504   3.121   2.483   0.212
19754WAT     H259505   3.085   2.338   0.148
19755WAT      O59506   9.451   9.608   2.102
19755WAT     H159507   9.406   9.588   2.015
19755WAT     H259508   9.406   9.686   2.146
19756WAT      O59509   9.676   3.095   5.881
19756WAT     H159510   9.715   3.131   5.796
19756WAT     H259511   9.681   3.164   5.952
19757WAT      O59512   0.838   5.200   7.533
19757WAT     H159513   0.801   5.117   7.574
19757WAT     H259514   0.821   5.199   7.434
19758WAT      O59515   9.498   8.689   0.017
19758WAT     H159516   9.411   8.659   0.055
19758WAT     H259517   9.485   8.775  -0.031
19759WAT      O59518   4.626   8.152   7.387
19759WAT     H159519   4.618   8.180   7.291
19759WAT     H259520   4.629   8.052   7.392
19760WAT      O59521   0.396   4.213   7.029
19760WAT     H159522   0.477   4.217   6.970
19760WAT     H259523   0.421   4.241   7.121
19761WAT      O59524   1.403   5.027   5.796
19761WAT     H159525   1.321   5.076   5.826
19761WAT     H259526   1.484   5.080   5.820
19762WAT      O59527   5.712   8.599   8.952
19762WAT     H159528   5.735   8.582   8.857
19762WAT     H259529   5.783   8.561   9.011
19763WAT      O59530   2.340   5.577   6.816
19763WAT     H159531   2.433   5.609   6.800
19763WAT     H259532   2.335   5.530   6.904
19764WAT      O59533   7.115   8.089   4.427
19764WAT     H159534   7.071   8.074   4.338
19764WAT     H259535   7.130   8.001   4.472
19765WAT      O59536   0.232   3.755   7.027
19765WAT     H159537   0.162   3.801   7.082
19765WAT     H259538   0.321   3.795   7.046
19766WAT      O59539   8.904   3.255   9.362
19766WAT     H159540   8.850   3.279   9.281
19766WAT     H259541   8.997   3.288   9.351
19767WAT      O59542   9.728   4.687   4.228
19767WAT     H159543   9.813   4.738   4.241
19767WAT     H259544   9.741   4.618   4.156
19768WAT      O59545   5.593   4.801   6.805
19768WAT     H159546   5.688   4.814   6.833
19768WAT     H259547   5.532   4.840   6.874
19769WAT      O59548   8.806   8.932   5.326
19769WAT     H159549   8.757   8.867   5.384
19769WAT     H259550   8.884   8.969   5.376
19770WAT      O59551   3.217   9.019   4.031
19770WAT     H159552   3.162   9.095   3.996
19770WAT     H259553   3.162   8.964   4.094
19771WAT      O59554   7.588   2.429   8.938
19771WAT     H159555   7.609   2.339   8.974
19771WAT     H259556   7.553   2.487   9.012
19772WAT      O59557   3.334   6.479   9.435
19772WAT     H159558   3.280   6.562   9.445
19772WAT     H259559   3.427   6.496   9.468
19773WAT      O59560   7.312   5.656   3.241
19773WAT     H159561   7.337   5.640   3.337
19773WAT     H259562   7.264   5.576   3.206
19774WAT      O59563   0.771   3.819   0.969
19774WAT     H159564   0.780   3.742   0.906
19774WAT     H259565   0.767   3.785   1.062
19775WAT      O59566   4.431   6.920   4.539
19775WAT     H159567   4.474   6.999   4.583
19775WAT     H259568   4.404   6.945   4.446
19776WAT      O59569   9.427   8.228   9.255
19776WAT     H159570   9.465   8.304   9.202
19776WAT     H259571   9.457   8.141   9.214
19777WAT      O59572   6.627   6.996   1.408
19777WAT     H159573   6.575   7.080   1.391
19777WAT     H259574   6.628   6.940   1.325
19778WAT      O59575   7.525   2.351   2.220
19778WAT     H159576   7.564   2.291   2.290
19778WAT     H259577   7.526   2.305   2.132
19779WAT      O59578   7.803   9.025   6.946
19779WAT     H159579   7.728   9.083   6.913
19779WAT     H259580   7.890   9.063   6.915
19780WAT      O59581   4.381   2.162   0.428
19780WAT     H159582   4.468   2.132   0.389
19780WAT     H259583   4.360   2.107   0.509
19781WAT      O59584   0.585   8.978   0.591
19781WAT     H159585   0.669   8.924   0.586
19781WAT     H259586   0.603   9.064   0.638
19782WAT      O59587   6.722   4.260   6.805
19782WAT     H159588   6.641   4.276   6.747
19782WAT     H259589   6.786   4.200   6.756
19783WAT      O59590   9.235   4.129   7.328
19783WAT     H159591   9.315   4.071   7.341
19783WAT     H259592   9.264   4.222   7.305
19784WAT      O59593   1.469   9.729   3.086
19784WAT     H159594   1.527   9.663   3.038
19784WAT     H259595   1.461   9.812   3.032
19785WAT      O59596   4.135   3.870   9.168
19785WAT     H159597   4.227   3.868   9.207
19785WAT     H259598   4.134   3.931   9.089
19786WAT      O59599   9.765   9.415   4.425
19786WAT     H159600   9.854   9.380   4.453
19786WAT     H259601   9.716   9.345   4.373
19787WAT      O59602   4.090   5.330   2.891
19787WAT     H159603   4.067   5.275   2.811
19787WAT     H259604   4.010   5.385   2.917
19788WAT      O59605   2.613   4.627   1.849
19788WAT     H159606   2.529   4.634   1.794
19788WAT     H259607   2.632   4.716   1.891
19789WAT      O59608   1.977   8.171   0.521
19789WAT     H159609   2.051   8.220   0.568
19789WAT     H259610   1.987   8.182   0.422
19790WAT      O59611   8.197   8.360   2.642
19790WAT     H159612   8.180   8.454   2.613
19790WAT     H259613   8.169   8.349   2.738
19791WAT      O59614   5.316   5.062   1.899
19791WAT     H159615   5.234   5.086   1.950
19791WAT     H259616   5.369   5.145   1.880
19792WAT      O59617   3.390   2.508   3.037
19792WAT     H159618   3.315   2.555   3.083
19792WAT     H259619   3.470   2.507   3.096
19793WAT      O59620   8.778   5.891   3.415
19793WAT     H159621   8.846   5.888   3.342
19793WAT     H259622   8.758   5.798   3.446
19794WAT      O59623   2.998   9.413   0.253
19794WAT     H159624   3.044   9.472   0.186
19794WAT     H259625   3.034   9.432   0.344
19795WAT      O59626   7.437   4.623   0.206
19795WAT     H159627   7.459   4.616   0.303
19795WAT     H259628   7.447   4.533   0.163
19796WAT      O59629   7.375   5.739   7.555
19796WAT     H159630   7.355   5.658   7.610
19796WAT     H259631   7.291   5.789   7.536
19797WAT      O59632   3.534   3.952   3.186
19797WAT     H159633   3.459   3.992   3.133
19797WAT     H259634   3.555   3.861   3.152
19798WAT      O59635   8.646   7.468   7.524
19798WAT     H159636   8.677   7.513   7.441
19798WAT     H259637   8.596   7.533   7.581
19799WAT      O59638   3.590   9.490   5.794
19799WAT     H159639   3.633   9.464   5.880
19799WAT     H259640   3.640   9.566   5.752
19800WAT      O59641   8.993   0.528   9.684
19800WAT     H159642   9.007   0.608   9.743
19800WAT     H259643   9.031   0.546   9.594
19801WAT      O59644   9.437   7.243   2.475
19801WAT     H159645   9.439   7.342   2.488
19801WAT     H259646   9.343   7.211   2.485
19802WAT      O59647   4.559   5.223   5.837
19802WAT     H159648   4.590   5.162   5.765
19802WAT     H259649   4.463   5.206   5.857
19803WAT      O59650   4.575   7.609   1.301
19803WAT     H159651   4.541   7.518   1.326
19803WAT     H259652   4.515   7.649   1.232
19804WAT      O59653   8.780   8.584   4.899
19804WAT     H159654   8.826   8.602   4.986
19804WAT     H259655   8.682   8.596   4.910
19805WAT      O59656   6.892   6.415   5.682
19805WAT     H159657   6.830   6.455   5.749
19805WAT     H259658   6.924   6.326   5.714
19806WAT      O59659   3.603   7.815   8.957
19806WAT     H159660   3.565   7.731   8.918
19806WAT     H259661   3.563   7.894   8.911
19807WAT      O59662   1.995   9.834   5.795
19807WAT     H159663   2.005   9.760   5.862
19807WAT     H259664   2.002   9.922   5.842
19808WAT      O59665   2.453   3.677   7.825
19808WAT     H159666   2.546   3.706   7.849
19808WAT     H259667   2.398   3.668   7.908
19809WAT      O59668   4.836   0.823   5.489
19809WAT     H159669   4.807   0.798   5.581
19809WAT     H259670   4.926   0.867   5.494
19810WAT      O59671   0.618   7.840   4.025
19810WAT     H159672   0.568   7.842   4.112
19810WAT     H259673   0.611   7.930   3.981
19811WAT      O59674   6.235   3.424   2.453
19811WAT     H159675   6.144   3.391   2.478
19811WAT     H259676   6.298   3.347   2.445
19812WAT      O59677   9.738   7.476   4.797
19812WAT     H159678   9.805   7.419   4.751
19812WAT     H259679   9.784   7.534   4.865
19813WAT      O59680   2.710   9.620   4.304
19813WAT     H159681   2.623   9.591   4.344
19813WAT     H259682   2.777   9.547   4.316
19814WAT      O59683   2.194   1.804   0.823
19814WAT     H159684   2.194   1.814   0.724
19814WAT     H259685   2.121   1.741   0.850
19815WAT      O59686   2.183   2.365   0.060
19815WAT     H159687   2.192   2.463   0.081
19815WAT     H259688   2.145   2.354  -0.032
19816WAT      O59689   0.042   1.743   2.756
19816WAT     H159690  -0.047   1.700   2.763
19816WAT     H259691   0.081   1.727   2.665
19817WAT      O59692   6.553   1.297   6.133
19817WAT     H159693   6.557   1.218   6.071
19817WAT     H259694   6.483   1.361   6.102
19818WAT      O59695   4.003   1.345   7.204
19818WAT     H159696   4.029   1.250   7.183
19818WAT     H259697   4.077   1.406   7.178
19819WAT      O59698   5.469   8.043   2.899
19819WAT     H159699   5.565   8.050   2.927
19819WAT     H259700   5.410   8.074   2.974
19820WAT      O59701   8.427   4.259   2.459
19820WAT     H159702   8.373   4.231   2.379
19820WAT     H259703   8.524   4.241   2.442
19821WAT      O59704   8.489   5.959   6.713
19821WAT     H159705   8.423   6.020   6.757
19821WAT     H259706   8.469   5.952   6.616
19822WAT      O59707   4.640   5.995   9.556
19822WAT     H159708   4.613   6.082   9.596
19822WAT     H259709   4.706   5.949   9.615
19823WAT      O59710   9.396   2.616   4.218
19823WAT     H159711   9.470   2.598   4.153
19823WAT     H259712   9.361   2.529   4.252
19824WAT      O59713   0.947   6.495   5.860
19824WAT     H159714   0.874   6.471   5.797
19824WAT     H259715   0.992   6.579   5.828
19825WAT      O59716   4.974   5.009   2.929
19825WAT     H159717   4.969   5.099   2.972
19825WAT     H259718   4.968   4.938   2.999
19826WAT      O59719   5.920   5.096   6.986
19826WAT     H159720   5.963   5.184   7.009
19826WAT     H259721   5.937   5.032   7.061
19827WAT      O59722   4.417   4.388   5.936
19827WAT     H159723   4.407   4.350   6.028
19827WAT     H259724   4.512   4.376   5.906
19828WAT      O59725   9.202   5.747   8.297
19828WAT     H159726   9.178   5.744   8.393
19828WAT     H259727   9.295   5.784   8.287
19829WAT      O59728   7.501   8.330   5.923
19829WAT     H159729   7.455   8.313   6.010
19829WAT     H259730   7.450   8.399   5.871
19830WAT      O59731   9.293   9.799   1.490
19830WAT     H159732   9.305   9.737   1.412
19830WAT     H259733   9.249   9.883   1.458
19831WAT      O59734   9.180   8.631   7.381
19831WAT     H159735   9.278   8.620   7.400
19831WAT     H259736   9.129   8.632   7.467
19832WAT      O59737   0.935   3.467   5.700
19832WAT     H159738   1.018   3.458   5.756
19832WAT     H259739   0.856   3.437   5.753
19833WAT      O59740   5.737   7.485   9.689
19833WAT     H159741   5.767   7.417   9.756
19833WAT     H259742   5.774   7.462   9.599
19834WAT      O59743   1.990   9.385   0.574
19834WAT     H159744   1.962   9.399   0.479
19834WAT     H259745   2.048   9.461   0.603
19835WAT      O59746   2.085   9.525   5.178
19835WAT     H159747   2.137   9.469   5.113
19835WAT     H259748   2.133   9.526   5.266
19836WAT      O59749   4.640   2.482   4.469
19836WAT     H159750   4.641   2.401   4.527
19836WAT     H259751   4.733   2.517   4.458
19837WAT      O59752   6.915   8.166   4.887
19837WAT     H159753   6.855   8.110   4.831
19837WAT     H259754   6.903   8.142   4.983
19838WAT      O59755   5.277   0.433   1.085
19838WAT     H159756   5.184   0.466   1.101
19838WAT     H259757   5.343   0.494   1.130
19839WAT      O59758   7.336   3.135   5.574
19839WAT     H159759   7.358   3.050   5.621
19839WAT     H259760   7.376   3.134   5.482
19840WAT      O59761   5.687   5.835   5.144
19840WAT     H159762   5.645   5.890   5.072
19840WAT     H259763   5.770   5.880   5.176
19841WAT      O59764   4.116   0.707   9.687
19841WAT     H159765   4.143   0.709   9.783
19841WAT     H259766   4.021   0.677   9.679
19842WAT      O59767   0.552   5.809   1.800
19842WAT     H159768   0.541   5.875   1.874
19842WAT     H259769   0.649   5.790   1.786
19843WAT      O59770   3.482   4.185   9.866
19843WAT     H159771   3.514   4.113   9.927
19843WAT     H259772   3.544   4.263   9.872
19844WAT      O59773   6.856   6.731   1.792
19844WAT     H159774   6.797   6.676   1.851
19844WAT     H259775   6.917   6.786   1.848
19845WAT      O59776   1.258   5.135   7.858
19845WAT     H159777   1.291   5.062   7.918
19845WAT     H259778   1.159   5.142   7.866
19846WAT      O59779   7.342   7.249   7.790
19846WAT     H159780   7.440   7.235   7.801
19846WAT     H259781   7.292   7.180   7.844
19847WAT      O59782   0.957   8.080   9.295
19847WAT     H159783   0.956   8.102   9.392
19847WAT     H259784   0.884   8.130   9.248
19848WAT      O59785   0.645   7.030   6.250
19848WAT     H159786   0.593   6.950   6.279
19848WAT     H259787   0.743   7.012   6.259
19849WAT      O59788   7.071   0.372   4.756
19849WAT     H159789   7.027   0.398   4.841
19849WAT     H259790   7.170   0.368   4.769
19850WAT      O59791   2.423   9.003   1.144
19850WAT     H159792   2.516   8.969   1.160
19850WAT     H259793   2.413   9.093   1.187
19851WAT      O59794   1.922   3.791   7.567
19851WAT     H159795   1.897   3.695   7.552
19851WAT     H259796   1.885   3.846   7.492
19852WAT      O59797   4.261   4.191   2.170
19852WAT     H159798   4.217   4.262   2.115
19852WAT     H259799   4.291   4.117   2.110
19853WAT      O59800   5.799   7.760   4.786
19853WAT     H159801   5.822   7.851   4.820
19853WAT     H259802   5.841   7.747   4.696
19854WAT      O59803   8.032   5.479   2.576
19854WAT     H159804   7.989   5.443   2.659
19854WAT     H259805   8.069   5.570   2.594
19855WAT      O59806   0.698   0.625   7.666
19855WAT     H159807   0.669   0.720   7.654
19855WAT     H259808   0.711   0.584   7.576
19856WAT      O59809   7.980   6.689   8.645
19856WAT     H159810   7.991   6.603   8.595
19856WAT     H259811   7.944   6.760   8.584
19857WAT      O59812   2.186   2.198   2.629
19857WAT     H159813   2.102   2.152   2.602
19857WAT     H259814   2.264   2.137   2.617
19858WAT      O59815   0.034   1.500   7.951
19858WAT     H159816   0.114   1.450   7.983
19858WAT     H259817  -0.025   1.520   8.030
19859WAT      O59818   9.685   4.515   3.862
19859WAT     H159819   9.608   4.454   3.884
19859WAT     H259820   9.757   4.503   3.930
19860WAT      O59821   6.000   8.061   8.698
19860WAT     H159822   6.051   7.979   8.672
19860WAT     H259823   5.932   8.038   8.768
19861WAT      O59824   0.639   9.220   3.132
19861WAT     H159825   0.575   9.212   3.055
19861WAT     H259826   0.716   9.159   3.117
19862WAT      O59827   5.864   9.715   3.685
19862WAT     H159828   5.876   9.628   3.637
19862WAT     H259829   5.863   9.698   3.784
19863WAT      O59830   0.483   2.841   3.081
19863WAT     H159831   0.512   2.746   3.093
19863WAT     H259832   0.556   2.902   3.112
19864WAT      O59833   0.337   4.437   8.165
19864WAT     H159834   0.300   4.351   8.199
19864WAT     H259835   0.316   4.510   8.230
19865WAT      O59836   7.640   8.417   9.275
19865WAT     H159837   7.624   8.501   9.328
19865WAT     H259838   7.580   8.417   9.195
19866WAT      O59839   3.389   8.624   3.078
19866WAT     H159840   3.330   8.609   3.157
19866WAT     H259841   3.333   8.630   2.995
19867WAT      O59842   4.318   3.160   2.361
19867WAT     H159843   4.294   3.166   2.264
19867WAT     H259844   4.246   3.202   2.416
19868WAT      O59845   1.129   9.302   3.442
19868WAT     H159846   1.178   9.230   3.393
19868WAT     H259847   1.109   9.272   3.535
19869WAT      O59848   3.875   2.151   6.657
19869WAT     H159849   3.817   2.077   6.622
19869WAT     H259850   3.829   2.195   6.735
19870WAT      O59851   7.091   8.628   8.712
19870WAT     H159852   7.150   8.553   8.681
19870WAT     H259853   6.998   8.593   8.723
19871WAT      O59854   9.721   3.431   6.929
19871WAT     H159855   9.769   3.412   6.844
19871WAT     H259856   9.642   3.371   6.937
19872WAT      O59857   2.888   5.664   4.321
19872WAT     H159858   2.968   5.616   4.286
19872WAT     H259859   2.884   5.653   4.420
19873WAT      O59860   3.431   6.534   6.405
19873WAT     H159861   3.516   6.493   6.372
19873WAT     H259862   3.452   6.618   6.455
19874WAT      O59863   2.128   3.977   1.926
19874WAT     H159864   2.160   3.986   1.831
19874WAT     H259865   2.039   4.022   1.935
19875WAT      O59866   3.554   0.462   0.848
19875WAT     H159867   3.579   0.512   0.930
19875WAT     H259868   3.637   0.432   0.801
19876WAT      O59869   3.238   5.628   4.971
19876WAT     H159870   3.250   5.530   4.956
19876WAT     H259871   3.151   5.644   5.018
19877WAT      O59872   4.602   7.748   4.769
19877WAT     H159873   4.573   7.685   4.697
19877WAT     H259874   4.679   7.708   4.819
19878WAT      O59875   7.778   6.900   2.911
19878WAT     H159876   7.826   6.842   2.846
19878WAT     H259877   7.726   6.970   2.862
19879WAT      O59878   0.060   8.653   5.603
19879WAT     H159879   0.102   8.744   5.598
19879WAT     H259880   0.005   8.647   5.686
19880WAT      O59881   9.222   1.631   9.781
19880WAT     H159882   9.246   1.670   9.870
19880WAT     H259883   9.240   1.699   9.710
19881WAT      O59884   6.367   5.251   6.077
19881WAT     H159885   6.396   5.208   6.162
19881WAT     H259886   6.278   5.295   6.090
19882WAT      O59887   9.219   4.563   8.125
19882WAT     H159888   9.231   4.648   8.177
19882WAT     H259889   9.202   4.584   8.029
19883WAT      O59890   1.526   4.234   3.297
19883WAT     H159891   1.615   4.191   3.286
19883WAT     H259892   1.528   4.326   3.257
19884WAT      O59893   6.499   1.349   9.736
19884WAT     H159894   6.542   1.405   9.665
19884WAT     H259895   6.407   1.323   9.707
19885WAT      O59896   4.843   1.653   2.658
19885WAT     H159897   4.748   1.625   2.648
19885WAT     H259898   4.902   1.593   2.604
19886WAT      O59899   3.038   1.115   2.149
19886WAT     H159900   2.972   1.188   2.162
19886WAT     H259901   2.990   1.030   2.129
19887WAT      O59902   4.682   1.400   4.714
19887WAT     H159903   4.765   1.383   4.662
19887WAT     H259904   4.606   1.351   4.673
19888WAT      O59905   7.296   1.944   7.991
19888WAT     H159906   7.238   2.021   8.017
19888WAT     H259907   7.353   1.918   8.069
19889WAT      O59908   1.865   7.847   2.282
19889WAT     H159909   1.945   7.815   2.230
19889WAT     H259910   1.820   7.921   2.231
19890WAT      O59911   4.794   8.312   9.663
19890WAT     H159912   4.772   8.263   9.578
19890WAT     H259913   4.832   8.401   9.641
19891WAT      O59914   5.307   5.740   4.070
19891WAT     H159915   5.223   5.752   4.016
19891WAT     H259916   5.365   5.672   4.025
19892WAT      O59917   0.081   2.858   0.110
19892WAT     H159918   0.032   2.851   0.197
19892WAT     H259919   0.052   2.941   0.063
19893WAT      O59920   8.808   1.195   0.506
19893WAT     H159921   8.888   1.184   0.447
19893WAT     H259922   8.731   1.228   0.452
19894WAT      O59923   1.953   1.709   0.907
19894WAT     H159924   1.913   1.633   0.857
19894WAT     H259925   1.989   1.677   0.995
19895WAT      O59926   8.422   0.995   7.470
19895WAT     H159927   8.383   0.903   7.475
19895WAT     H259928   8.521   0.989   7.457
19896WAT      O59929   0.303   4.595   7.935
19896WAT     H159930   0.332   4.554   8.022
19896WAT     H259931   0.225   4.544   7.899
19897WAT      O59932   3.335   3.352   4.777
19897WAT     H159933   3.362   3.256   4.777
19897WAT     H259934   3.402   3.406   4.827
19898WAT      O59935   8.790   8.809   7.136
19898WAT     H159936   8.787   8.736   7.205
19898WAT     H259937   8.711   8.870   7.148
19899WAT      O59938   8.723   3.825   5.551
19899WAT     H159939   8.804   3.867   5.592
19899WAT     H259940   8.641   3.873   5.582
19900WAT      O59941   7.766   6.057   2.865
19900WAT     H159942   7.770   6.153   2.891
19900WAT     H259943   7.739   6.002   2.944
19901WAT      O59944   1.440   0.364   1.174
19901WAT     H159945   1.529   0.399   1.147
19901WAT     H259946   1.442   0.264   1.174
19902WAT      O59947   4.708   2.351   3.491
19902WAT     H159948   4.807   2.337   3.487
19902WAT     H259949   4.673   2.321   3.580
19903WAT      O59950   5.491   5.235   8.886
19903WAT     H159951   5.506   5.147   8.841
19903WAT     H259952   5.455   5.301   8.820
19904WAT      O59953   7.606   0.609   4.671
19904WAT     H159954   7.672   0.653   4.611
19904WAT     H259955   7.652   0.576   4.754
19905WAT      O59956   4.302   2.419   0.355
19905WAT     H159957   4.303   2.328   0.397
19905WAT     H259958   4.283   2.411   0.257
19906WAT      O59959   2.279   7.085   6.719
19906WAT     H159960   2.331   7.042   6.792
19906WAT     H259961   2.181   7.085   6.742
19907WAT      O59962   1.128   5.942   4.536
19907WAT     H159963   1.204   5.887   4.569
19907WAT     H259964   1.070   5.968   4.612
19908WAT      O59965   0.380   7.599   4.053
19908WAT     H159966   0.369   7.519   4.113
19908WAT     H259967   0.310   7.596   3.981
19909WAT      O59968   2.710   5.051   1.303
19909WAT     H159969   2.781   5.012   1.362
19909WAT     H259970   2.714   5.008   1.213
19910WAT      O59971   0.304   8.945   9.373
19910WAT     H159972   0.316   8.964   9.470
19910WAT     H259973   0.235   9.006   9.335
19911WAT      O59974   3.390   4.695   7.816
19911WAT     H159975   3.379   4.791   7.791
19911WAT     H259976   3.365   4.637   7.738
19912WAT      O59977   8.812   0.428   4.980
19912WAT     H159978   8.715   0.405   4.982
19912WAT     H259979   8.827   0.510   5.035
19913WAT      O59980   8.838   9.490   2.784
19913WAT     H159981   8.742   9.461   2.783
19913WAT     H259982   8.895   9.416   2.746
19914WAT      O59983   2.000   2.774   6.441
19914WAT     H159984   2.075   2.815   6.389
19914WAT     H259985   2.033   2.692   6.488
19915WAT      O59986   7.433   7.233   0.164
19915WAT     H159987   7.388   7.217   0.252
19915WAT     H259988   7.368   7.213   0.090
19916WAT      O59989   5.708   2.335   3.844
19916WAT     H159990   5.741   2.406   3.782
19916WAT     H259991   5.669   2.260   3.791
19917WAT      O59992   0.013   2.389   8.237
19917WAT     H159993   0.050   2.445   8.163
19917WAT     H259994   0.032   2.433   8.325
19918WAT      O59995   0.649   5.100   9.699
19918WAT     H159996   0.690   5.175   9.752
19918WAT     H259997   0.595   5.042   9.761
19919WAT      O59998   1.098   2.525   9.106
19919WAT     H159999   1.121   2.614   9.145
19919WAT     H260000   1.138   2.453   9.162
19920WAT      O60001   4.192   6.642   3.251
19920WAT     H160002   4.204   6.703   3.329
19920WAT     H260003   4.103   6.659   3.208
19921WAT      O60004   8.411   7.040   3.483
19921WAT     H160005   8.462   7.119   3.450
19921WAT     H260006   8.327   7.030   3.429
19922WAT      O60007   6.808   5.828   8.591
19922WAT     H160008   6.779   5.769   8.667
19922WAT     H260009   6.898   5.867   8.612
19923WAT      O60010   4.059   6.964   9.637
19923WAT     H160011   4.139   7.016   9.607
19923WAT     H260012   4.077   6.922   9.726
19924WAT      O60013   2.146   7.149   7.916
19924WAT     H160014   2.151   7.129   7.819
19924WAT     H260015   2.233   7.125   7.960
19925WAT      O60016   8.286   4.283   3.861
19925WAT     H160017   8.358   4.352   3.849
19925WAT     H260018   8.254   4.286   3.956
19926WAT      O60019   7.373   3.520   4.721
19926WAT     H160020   7.293   3.486   4.770
19926WAT     H260021   7.344   3.569   4.639
19927WAT      O60022   5.106   0.241   9.289
19927WAT     H160023   5.021   0.201   9.256
19927WAT     H260024   5.184   0.199   9.242
19928WAT      O60025   6.924   9.782   8.942
19928WAT     H160026   6.874   9.843   8.880
19928WAT     H260027   7.021   9.808   8.943
19929WAT      O60028   2.450   8.521   4.229
19929WAT     H160029   2.466   8.586   4.303
19929WAT     H260030   2.499   8.550   4.147
19930WAT      O60031   1.048   9.807   0.709
19930WAT     H160032   1.041   9.905   0.690
19930WAT     H260033   0.975   9.759   0.661
19931WAT      O60034   3.008   7.271   5.805
19931WAT     H160035   3.053   7.188   5.836
19931WAT     H260036   3.032   7.288   5.709
19932WAT      O60037   6.066   9.261   4.133
19932WAT     H160038   6.017   9.190   4.081
19932WAT     H260039   6.161   9.235   4.144
19933WAT      O60040   8.547   0.243   4.728
19933WAT     H160041   8.572   0.147   4.737
19933WAT     H260042   8.562   0.290   4.815
19934WAT      O60043   1.867   2.397   5.324
19934WAT     H160044   1.934   2.386   5.250
19934WAT     H260045   1.869   2.316   5.383
19935WAT      O60046   7.696   7.801   0.466
19935WAT     H160047   7.631   7.757   0.404
19935WAT     H260048   7.774   7.741   0.480
19936WAT      O60049   5.051   8.526   5.618
19936WAT     H160050   5.033   8.624   5.609
19936WAT     H260051   5.026   8.496   5.710
19937WAT      O60052   8.114   2.594   5.709
19937WAT     H160053   8.064   2.677   5.733
19937WAT     H260054   8.077   2.555   5.625
19938WAT      O60055   6.611   2.890   0.852
19938WAT     H160056   6.540   2.819   0.852
19938WAT     H260057   6.632   2.916   0.758
19939WAT      O60058   8.133   8.328   3.231
19939WAT     H160059   8.098   8.271   3.156
19939WAT     H260060   8.139   8.272   3.314
19940WAT      O60061   0.758   2.465   1.410
19940WAT     H160062   0.754   2.552   1.361
19940WAT     H260063   0.812   2.400   1.357
19941WAT      O60064   2.215   4.820   1.464
19941WAT     H160065   2.299   4.770   1.448
19941WAT     H260066   2.224   4.874   1.548
19942WAT      O60067   7.674   5.282   1.669
19942WAT     H160068   7.592   5.339   1.678
19942WAT     H260069   7.689   5.232   1.755
19943WAT      O60070   0.790   9.511   6.394
19943WAT     H160071   0.840   9.490   6.477
19943WAT     H260072   0.845   9.486   6.314
19944WAT      O60073   3.946   7.364   0.156
19944WAT     H160074   4.006   7.405   0.087
19944WAT     H260075   3.983   7.382   0.247
19945WAT      O60076   1.621   3.487   4.603
19945WAT     H160077   1.633   3.557   4.533
19945WAT     H260078   1.527   3.452   4.600
19946WAT      O60079   6.218   6.491   0.958
19946WAT     H160080   6.162   6.422   1.004
19946WAT     H260081   6.314   6.476   0.983
19947WAT      O60082   3.353   5.296   7.834
19947WAT     H160083   3.346   5.313   7.933
19947WAT     H260084   3.437   5.246   7.815
19948WAT      O60085   3.891   2.119   7.079
19948WAT     H160086   3.963   2.186   7.063
19948WAT     H260087   3.812   2.140   7.021
19949WAT      O60088   1.689   8.456   3.283
19949WAT     H160089   1.779   8.413   3.274
19949WAT     H260090   1.686   8.510   3.367
19950WAT      O60091   1.248   1.801   3.941
19950WAT     H160092   1.212   1.849   4.021
19950WAT     H260093   1.183   1.810   3.865
19951WAT      O60094   6.823   9.285   4.606
19951WAT     H160095   6.727   9.260   4.594
19951WAT     H260096   6.833   9.337   4.691
19952WAT      O60097   3.149   5.687   1.868
19952WAT     H160098   3.059   5.730   1.871
19952WAT     H260099   3.143   5.593   1.901
19953WAT      O60100   0.533   7.071   4.773
19953WAT     H160101   0.624   7.042   4.746
19953WAT     H260102   0.488   6.998   4.825
19954WAT      O60103   1.528   8.759   8.541
19954WAT     H160104   1.565   8.730   8.629
19954WAT     H260105   1.441   8.712   8.524
19955WAT      O60106   7.319   0.268   3.021
19955WAT     H160107   7.227   0.257   3.058
19955WAT     H260108   7.365   0.343   3.068
19956WAT      O60109   1.740   2.105   9.012
19956WAT     H160110   1.808   2.040   9.045
19956WAT     H260111   1.721   2.087   8.915
19957WAT      O60112   5.379   0.712   2.167
19957WAT     H160113   5.371   0.662   2.080
19957WAT     H260114   5.324   0.667   2.236
19958WAT      O60115   8.361   8.476   8.465
19958WAT     H160116   8.434   8.530   8.423
19958WAT     H260117   8.295   8.537   8.509
19959WAT      O60118   2.560   7.584   0.390
19959WAT     H160119   2.607   7.632   0.316
19959WAT     H260120   2.560   7.486   0.371
19960WAT      O60121   7.347   8.957   9.108
19960WAT     H160122   7.357   9.043   9.059
19960WAT     H260123   7.434   8.908   9.107
19961WAT      O60124   1.211   6.115   3.670
19961WAT     H160125   1.257   6.202   3.688
19961WAT     H260126   1.185   6.110   3.573
19962WAT      O60127   0.773   2.317   4.174
19962WAT     H160128   0.848   2.329   4.239
19962WAT     H260129   0.713   2.244   4.205
19963WAT      O60130   2.533   7.506   1.735
19963WAT     H160131   2.450   7.471   1.692
19963WAT     H260132   2.591   7.430   1.763
19964WAT      O60133   0.883   7.576   4.217
19964WAT     H160134   0.916   7.671   4.216
19964WAT     H260135   0.842   7.556   4.306
19965WAT      O60136   7.340   2.495   7.081
19965WAT     H160137   7.358   2.397   7.090
19965WAT     H260138   7.426   2.545   7.077
19966WAT      O60139   8.214   5.469   1.946
19966WAT     H160140   8.184   5.499   1.856
19966WAT     H260141   8.146   5.405   1.983
19967WAT      O60142   7.779   2.844   4.757
19967WAT     H160143   7.821   2.902   4.687
19967WAT     H260144   7.830   2.853   4.843
19968WAT      O60145   7.861   1.609   1.925
19968WAT     H160146   7.815   1.635   2.010
19968WAT     H260147   7.814   1.530   1.885
19969WAT      O60148   5.103   2.411   6.045
19969WAT     H160149   5.131   2.471   6.119
19969WAT     H260150   5.177   2.403   5.978
19970WAT      O60151   0.165   5.415   4.186
19970WAT     H160152   0.204   5.500   4.150
19970WAT     H260153   0.107   5.372   4.117
19971WAT      O60154   0.178   7.975   0.685
19971WAT     H160155   0.178   8.069   0.720
19971WAT     H260156   0.103   7.924   0.726
19972WAT      O60157   7.116   7.229   8.962
19972WAT     H160158   7.125   7.328   8.949
19972WAT     H260159   7.114   7.208   9.060
19973WAT      O60160   6.482   5.666   0.832
19973WAT     H160161   6.460   5.573   0.804
19973WAT     H260162   6.411   5.700   0.895
19974WAT      O60163   3.963   3.702   5.369
19974WAT     H160164   3.904   3.766   5.418
19974WAT     H260165   3.940   3.608   5.397
19975WAT      O60166   2.476   3.366   7.263
19975WAT     H160167   2.424   3.445   7.231
19975WAT     H260168   2.414   3.302   7.309
19976WAT      O60169   7.708   1.149   3.579
19976WAT     H160170   7.666   1.113   3.662
19976WAT     H260171   7.657   1.229   3.547
19977WAT      O60172   3.294   0.483   7.129
19977WAT     H160173   3.362   0.513   7.062
19977WAT     H260174   3.206   0.472   7.085
19978WAT      O60175   6.039   4.958   5.057
19978WAT     H160176   6.134   4.976   5.032
19978WAT     H260177   6.035   4.900   5.138
19979WAT      O60178   7.522   0.714   0.304
19979WAT     H160179   7.563   0.631   0.342
19979WAT     H260180   7.435   0.691   0.260
19980WAT      O60181   4.805   1.803   5.121
19980WAT     H160182   4.859   1.736   5.174
19980WAT     H260183   4.744   1.754   5.060
19981WAT      O60184   2.331   1.940   1.775
19981WAT     H160185   2.408   2.000   1.754
19981WAT     H260186   2.246   1.992   1.770
19982WAT      O60187   4.492   2.040   8.241
19982WAT     H160188   4.570   2.020   8.301
19982WAT     H260189   4.412   1.991   8.274
19983WAT      O60190   2.387   4.803   9.287
19983WAT     H160191   2.345   4.845   9.368
19983WAT     H260192   2.424   4.874   9.227
19984WAT      O60193   6.268   6.764   9.558
19984WAT     H160194   6.193   6.821   9.523
19984WAT     H260195   6.230   6.680   9.598
19985WAT      O60196   4.004   3.453   4.820
19985WAT     H160197   3.915   3.415   4.795
19985WAT     H260198   4.021   3.535   4.765
19986WAT      O60199   7.239   4.202   3.014
19986WAT     H160200   7.335   4.179   2.997
19986WAT     H260201   7.229   4.301   3.020
19987WAT      O60202   5.885   2.792   4.224
19987WAT     H160203   5.946   2.737   4.281
19987WAT     H260204   5.925   2.882   4.209
19988WAT      O60205   0.699   3.225   7.725
19988WAT     H160206   0.673   3.184   7.813
19988WAT     H260207   0.671   3.165   7.650
19989WAT      O60208   8.236   5.382   3.135
19989WAT     H160209   8.244   5.292   3.178
19989WAT     H260210   8.308   5.392   3.066
19990WAT      O60211   8.292   7.773   6.928
19990WAT     H160212   8.384   7.759   6.892
19990WAT     H260213   8.295   7.773   7.028
19991WAT      O60214   4.071   2.368   9.552
19991WAT     H160215   4.088   2.353   9.454
19991WAT     H260216   4.079   2.281   9.601
19992WAT      O60217   1.489   6.539   7.502
19992WAT     H160218   1.452   6.478   7.573
19992WAT     H260219   1.414   6.578   7.449
19993WAT      O60220   7.024   6.121   9.835
19993WAT     H160221   7.090   6.121   9.910
19993WAT     H260222   7.022   6.030   9.793
19994WAT      O60223   2.877   6.830   5.816
19994WAT     H160224   2.857   6.734   5.794
19994WAT     H260225   2.922   6.834   5.905
19995WAT      O60226   7.076   2.060   1.092
19995WAT     H160227   7.147   2.020   1.150
19995WAT     H260228   7.118   2.098   1.010
19996WAT      O60229   4.100   2.107   9.632
19996WAT     H160230   4.093   2.057   9.546
19996WAT     H260231   4.067   2.049   9.707
19997WAT      O60232   8.248   6.360   6.473
19997WAT     H160233   8.242   6.266   6.440
19997WAT     H260234   8.233   6.362   6.572
19998WAT      O60235   4.051   7.647   8.889
19998WAT     H160236   4.029   7.742   8.866
19998WAT     H260237   4.018   7.586   8.818
19999WAT      O60238   3.599   7.191   1.780
19999WAT     H160239   3.590   7.169   1.877
19999WAT     H260240   3.675   7.255   1.767
20000WAT      O60241   2.426   9.449   6.037
20000WAT     H160242   2.411   9.386   5.961
20000WAT     H260243   2.484   9.406   6.106
20001WAT      O60244   6.942   6.435   7.284
20001WAT     H160245   6.980   6.520   7.321
20001WAT     H260246   6.847   6.449   7.259
20002WAT      O60247   8.235   0.941   6.658
20002WAT     H160248   8.171   0.867   6.633
20002WAT     H260249   8.185   1.011   6.708
20003WAT      O60250   4.376   0.716   8.912
20003WAT     H160251   4.321   0.773   8.974
20003WAT     H260252   4.379   0.623   8.947
20004WAT      O60253   1.912   8.574   4.016
20004WAT     H160254   1.920   8.504   4.086
20004WAT     H260255   1.913   8.664   4.059
20005WAT      O60256   6.269   1.202   5.122
20005WAT     H160257   6.342   1.133   5.116
20005WAT     H260258   6.290   1.265   5.196
20006WAT      O60259   4.870   3.250   2.427
20006WAT     H160260   4.909   3.172   2.378
20006WAT     H260261   4.772   3.257   2.406
20007WAT      O60262   7.518   8.547   7.828
20007WAT     H160263   7.601   8.558   7.774
20007WAT     H260264   7.468   8.633   7.832
20008WAT      O60265   3.509   0.584   6.565
20008WAT     H160266   3.509   0.569   6.466
20008WAT     H260267   3.507   0.495   6.612
20009WAT      O60268   0.751   2.084   3.430
20009WAT     H160269   0.729   2.015   3.362
20009WAT     H260270   0.807   2.155   3.388
20010WAT      O60271   9.535   0.949   6.562
20010WAT     H160272   9.535   0.974   6.466
20010WAT     H260273   9.601   0.875   6.578
20011WAT      O60274   1.228   8.397   9.797
20011WAT     H160275   1.198   8.492   9.807
20011WAT     H260276   1.288   8.373   9.874
20012WAT      O60277   3.317   0.061   1.403
20012WAT     H160278   3.346   0.132   1.338
20012WAT     H260279   3.382   0.057   1.479
20013WAT      O60280   6.775   6.625   3.789
20013WAT     H160281   6.803   6.530   3.796
20013WAT     H260282   6.828   6.671   3.719
20014WAT      O60283   2.616   3.144   2.270
20014WAT     H160284   2.556   3.114   2.195
20014WAT     H260285   2.671   3.221   2.239
20015WAT      O60286   3.218   7.389   8.777
20015WAT     H160287   3.229   7.443   8.860
20015WAT     H260288   3.130   7.341   8.780
20016WAT      O60289   7.131   4.449   3.860
20016WAT     H160290   7.037   4.447   3.892
20016WAT     H260291   7.171   4.539   3.876
20017WAT      O60292   5.624   7.722   3.903
20017WAT     H160293   5.579   7.763   3.824
20017WAT     H260294   5.691   7.786   3.940
20018WAT      O60295   1.334   5.345   2.936
20018WAT     H160296   1.316   5.278   3.008
20018WAT     H260297   1.253   5.402   2.922
20019WAT      O60298   4.924   2.543   5.491
20019WAT     H160299   4.846   2.493   5.452
20019WAT     H260300   4.925   2.532   5.590
20020WAT      O60301   9.414   1.135   3.108
20020WAT     H160302   9.495   1.165   3.057
20020WAT     H260303   9.400   1.038   3.092
20021WAT      O60304   1.518   0.446   5.786
20021WAT     H160305   1.603   0.393   5.784
20021WAT     H260306   1.450   0.397   5.841
20022WAT      O60307   4.702   1.482   3.108
20022WAT     H160308   4.757   1.421   3.165
20022WAT     H260309   4.620   1.434   3.078
20023WAT      O60310   4.315   8.850   6.134
20023WAT     H160311   4.408   8.815   6.141
20023WAT     H260312   4.267   8.833   6.221
20024WAT      O60313   5.458   5.300   6.389
20024WAT     H160314   5.398   5.235   6.435
20024WAT     H260315   5.500   5.257   6.309
20025WAT      O60316   1.828   4.441   4.580
20025WAT     H160317   1.805   4.522   4.526
20025WAT     H260318   1.754   4.423   4.646
20026WAT      O60319   9.345   9.455   1.074
20026WAT     H160320   9.272   9.387   1.069
20026WAT     H260321   9.399   9.441   1.157
20027WAT      O60322   2.957   6.658   7.524
20027WAT     H160323   3.036   6.630   7.578
20027WAT     H260324   2.887   6.695   7.585
20028WAT      O60325   5.090   2.585   1.185
20028WAT     H160326   5.083   2.673   1.140
20028WAT     H260327   5.022   2.579   1.258
20029WAT      O60328   1.332   4.951   9.017
20029WAT     H160329   1.326   4.921   8.922
20029WAT     H260330   1.271   4.895   9.073
20030WAT      O60331   4.671   6.587   8.613
20030WAT     H160332   4.592   6.547   8.567
20030WAT     H260333   4.745   6.600   8.547
20031WAT      O60334   1.551   5.444   2.104
20031WAT     H160335   1.499   5.360   2.119
20031WAT     H260336   1.500   5.503   2.041
20032WAT      O60337   7.364   9.640   4.906
20032WAT     H160338   7.305   9.562   4.931
20032WAT     H260339   7.308   9.722   4.896
20033WAT      O60340   0.087   4.108   9.404
20033WAT     H160341   0.026   4.110   9.484
20033WAT     H260342   0.034   4.129   9.322
20034WAT      O60343   4.885   0.322   1.765
20034WAT     H160344   4.805   0.263   1.776
20034WAT     H260345   4.930   0.302   1.678
20035WAT      O60346   7.863   7.406   3.311
20035WAT     H160347   7.908   7.474   3.253
20035WAT     H260348   7.920   7.390   3.392
20036WAT      O60349   9.401   5.670   3.299
20036WAT     H160350   9.487   5.647   3.253
20036WAT     H260351   9.408   5.647   3.396
20037WAT      O60352   8.104   9.348   6.777
20037WAT     H160353   8.198   9.372   6.754
20037WAT     H260354   8.046   9.361   6.696
20038WAT      O60355   7.425   9.606   8.926
20038WAT     H160356   7.456   9.554   8.846
20038WAT     H260357   7.339   9.568   8.958
20039WAT      O60358   1.808   7.936   0.628
20039WAT     H160359   1.868   7.860   0.651
20039WAT     H260360   1.863   8.010   0.587
20040WAT      O60361   5.188   3.394   1.828
20040WAT     H160362   5.277   3.349   1.839
20040WAT     H260363   5.171   3.411   1.731
20041WAT      O60364   6.609   2.309   0.363
20041WAT     H160365   6.699   2.326   0.403
20041WAT     H260366   6.580   2.216   0.386
20042WAT      O60367   4.120   2.873   2.271
20042WAT     H160368   4.057   2.797   2.253
20042WAT     H260369   4.081   2.934   2.340
20043WAT      O60370   8.138   4.417   7.811
20043WAT     H160371   8.072   4.385   7.744
20043WAT     H260372   8.143   4.352   7.887
20044WAT      O60373   0.320   0.643   7.682
20044WAT     H160374   0.298   0.725   7.736
20044WAT     H260375   0.368   0.577   7.740
20045WAT      O60376   8.340   8.806   6.279
20045WAT     H160377   8.374   8.887   6.327
20045WAT     H260378   8.417   8.752   6.246
20046WAT      O60379   0.242   2.484   1.842
20046WAT     H160380   0.293   2.428   1.777
20046WAT     H260381   0.298   2.562   1.870
20047WAT      O60382   0.634   7.110   9.308
20047WAT     H160383   0.590   7.134   9.395
20047WAT     H260384   0.572   7.129   9.232
20048WAT      O60385   7.397   0.082   3.825
20048WAT     H160386   7.469   0.062   3.758
20048WAT     H260387   7.434   0.074   3.917
20049WAT      O60388   1.405   2.855   8.020
20049WAT     H160389   1.436   2.806   7.939
20049WAT     H260390   1.398   2.953   7.999
20050WAT      O60391   9.863   5.355   0.148
20050WAT     H160392   9.806   5.351   0.230
20050WAT     H260393   9.806   5.347   0.067
20051WAT      O60394   6.153   9.599   0.787
20051WAT     H160395   6.204   9.677   0.822
20051WAT     H260396   6.060   9.628   0.763
20052WAT      O60397   4.945   0.006   9.497
20052WAT     H160398   4.899  -0.008   9.585
20052WAT     H260399   5.044   0.007   9.512
20053WAT      O60400   5.497   6.613   4.695
20053WAT     H160401   5.474   6.520   4.724
20053WAT     H260402   5.585   6.639   4.734
20054WAT      O60403   3.741   3.419   8.435
20054WAT     H160404   3.742   3.389   8.530
20054WAT     H260405   3.816   3.376   8.385
20055WAT      O60406   7.733   5.311   5.629
20055WAT     H160407   7.651   5.355   5.666
20055WAT     H260408   7.740   5.332   5.531
20056WAT      O60409   3.219   8.840   3.596
20056WAT     H160410   3.247   8.822   3.690
20056WAT     H260411   3.284   8.797   3.533
20057WAT      O60412   5.339   5.735   1.438
20057WAT     H160413   5.406   5.726   1.365
20057WAT     H260414   5.350   5.660   1.503
20058WAT      O60415   0.578   3.596   2.393
20058WAT     H160416   0.563   3.504   2.358
20058WAT     H260417   0.590   3.593   2.492
20059WAT      O60418   5.663   9.545   1.775
20059WAT     H160419   5.738   9.596   1.732
20059WAT     H260420   5.673   9.547   1.874
20060WAT      O60421   8.188   4.912   0.862
20060WAT     H160422   8.286   4.919   0.878
20060WAT     H260423   8.149   5.003   0.846
20061WAT      O60424   0.405   2.728   8.876
20061WAT     H160425   0.442   2.703   8.966
20061WAT     H260426   0.478   2.767   8.820
20062WAT      O60427   1.775   4.017   6.785
20062WAT     H160428   1.695   3.957   6.790
20062WAT     H260429   1.800   4.047   6.877
20063WAT      O60430   9.687   5.791   3.937
20063WAT     H160431   9.654   5.787   3.842
20063WAT     H260432   9.730   5.704   3.960
20064WAT      O60433   5.975   6.392   3.490
20064WAT     H160434   6.009   6.334   3.416
20064WAT     H260435   5.985   6.344   3.577
20065WAT      O60436   6.118   7.968   2.168
20065WAT     H160437   6.091   8.016   2.085
20065WAT     H260438   6.164   8.031   2.230
20066WAT      O60439   4.652   7.286   2.098
20066WAT     H160440   4.646   7.213   2.031
20066WAT     H260441   4.686   7.249   2.185
20067WAT      O60442   6.078   9.777   2.542
20067WAT     H160443   6.018   9.710   2.500
20067WAT     H260444   6.091   9.854   2.480
20068WAT      O60445   1.515   0.069   5.540
20068WAT     H160446   1.601   0.052   5.587
20068WAT     H260447   1.520   0.157   5.492
20069WAT      O60448   5.958   7.635   5.254
20069WAT     H160449   5.863   7.610   5.273
20069WAT     H260450   5.979   7.721   5.300
20070WAT      O60451   8.861   3.207   6.752
20070WAT     H160452   8.795   3.281   6.736
20070WAT     H260453   8.933   3.240   6.813
20071WAT      O60454   5.154   7.123   1.875
20071WAT     H160455   5.114   7.132   1.784
20071WAT     H260456   5.180   7.213   1.909
20072WAT      O60457   0.836   3.692   6.663
20072WAT     H160458   0.790   3.724   6.746
20072WAT     H260459   0.847   3.767   6.599
20073WAT      O60460   8.341   2.758   5.820
20073WAT     H160461   8.272   2.702   5.865
20073WAT     H260462   8.297   2.829   5.765
20074WAT      O60463   3.720   8.726   1.249
20074WAT     H160464   3.817   8.717   1.226
20074WAT     H260465   3.692   8.649   1.307
20075WAT      O60466   5.048   6.840   7.568
20075WAT     H160467   5.043   6.746   7.603
20075WAT     H260468   4.961   6.886   7.583
20076WAT      O60469   7.452   5.911   4.485
20076WAT     H160470   7.520   5.845   4.455
20076WAT     H260471   7.482   6.003   4.461
20077WAT      O60472   7.475   8.301   8.514
20077WAT     H160473   7.486   8.306   8.415
20077WAT     H260474   7.494   8.390   8.554
20078WAT      O60475   4.262   8.011   7.033
20078WAT     H160476   4.289   8.088   7.091
20078WAT     H260477   4.202   8.043   6.960
20079WAT      O60478   4.269   8.021   1.176
20079WAT     H160479   4.208   8.083   1.225
20079WAT     H260480   4.254   7.927   1.208
20080WAT      O60481   0.692   0.778   6.417
20080WAT     H160482   0.752   0.796   6.495
20080WAT     H260483   0.600   0.757   6.449
20081WAT      O60484   5.301   4.470   4.349
20081WAT     H160485   5.392   4.479   4.390
20081WAT     H260486   5.281   4.550   4.293
20082WAT      O60487   0.967   0.791   7.433
20082WAT     H160488   1.018   0.825   7.512
20082WAT     H260489   0.887   0.849   7.417
20083WAT      O60490   0.794   0.456   3.761
20083WAT     H160491   0.874   0.451   3.701
20083WAT     H260492   0.712   0.434   3.708
20084WAT      O60493   4.162   8.786   1.890
20084WAT     H160494   4.126   8.702   1.850
20084WAT     H260495   4.123   8.800   1.981
20085WAT      O60496   0.656   9.301   9.597
20085WAT     H160497   0.710   9.374   9.639
20085WAT     H260498   0.643   9.322   9.500
20086WAT      O60499   3.958   8.003   6.282
20086WAT     H160500   3.892   7.944   6.329
20086WAT     H260501   3.971   8.087   6.334
20087WAT      O60502   3.316   2.057   9.055
20087WAT     H160503   3.256   2.009   9.119
20087WAT     H260504   3.275   2.057   8.964
20088WAT      O60505   0.421   6.453   7.915
20088WAT     H160506   0.459   6.451   8.007
20088WAT     H260507   0.333   6.500   7.917
20089WAT      O60508   7.172   9.576   9.005
20089WAT     H160509   7.164   9.574   9.105
20089WAT     H260510   7.136   9.663   8.970
20090WAT      O60511   8.496   1.675   3.967
20090WAT     H160512   8.583   1.715   3.995
20090WAT     H260513   8.462   1.723   3.887
20091WAT      O60514   4.727   9.786   4.291
20091WAT     H160515   4.628   9.778   4.286
20091WAT     H260516   4.755   9.789   4.387
20092WAT      O60517   3.349   6.352   4.907
20092WAT     H160518   3.354   6.314   4.814
20092WAT     H260519   3.273   6.418   4.911
20093WAT      O60520   7.772   0.174   4.309
20093WAT     H160521   7.853   0.174   4.251
20093WAT     H260522   7.743   0.080   4.327
20094WAT      O60523   7.665   1.103   0.751
20094WAT     H160524   7.677   1.034   0.822
20094WAT     H260525   7.686   1.064   0.662
20095WAT      O60526   8.509   0.084   1.386
20095WAT     H160527   8.437   0.034   1.434
20095WAT     H260528   8.521   0.174   1.427
20096WAT      O60529   4.251   2.423   1.106
20096WAT     H160530   4.191   2.463   1.175
20096WAT     H260531   4.275   2.492   1.038
20097WAT      O60532   4.071   4.987   6.337
20097WAT     H160533   4.167   4.968   6.354
20097WAT     H260534   4.019   4.969   6.421
20098WAT      O60535   3.766   5.344   0.480
20098WAT     H160536   3.793   5.402   0.556
20098WAT     H260537   3.673   5.312   0.493
20099WAT      O60538   3.003   5.835   1.494
20099WAT     H160539   3.020   5.887   1.578
20099WAT     H260540   2.954   5.892   1.429
20100WAT      O60541   7.907   1.180   8.324
20100WAT     H160542   7.859   1.198   8.410
20100WAT     H260543   8.000   1.215   8.330
20101WAT      O60544   5.960   3.865   9.224
20101WAT     H160545   6.021   3.802   9.176
20101WAT     H260546   5.925   3.933   9.159
20102WAT      O60547   8.527   6.368   1.576
20102WAT     H160548   8.500   6.451   1.625
20102WAT     H260549   8.454   6.341   1.513
20103WAT      O60550   3.532   7.536   2.873
20103WAT     H160551   3.619   7.495   2.846
20103WAT     H260552   3.534   7.634   2.853
20104WAT      O60553   6.282   1.357   3.463
20104WAT     H160554   6.235   1.304   3.534
20104WAT     H260555   6.381   1.345   3.473
20105WAT      O60556   6.553   2.083   5.698
20105WAT     H160557   6.523   2.131   5.615
20105WAT     H260558   6.566   2.149   5.772
20106WAT      O60559   5.545   9.404   3.113
20106WAT     H160560   5.637   9.382   3.146
20106WAT     H260561   5.550   9.484   3.054
20107WAT      O60562   7.883   3.963   6.975
20107WAT     H160563   7.946   4.037   6.999
20107WAT     H260564   7.932   3.876   6.978
20108WAT      O60565   8.203   6.136   6.341
20108WAT     H160566   8.247   6.054   6.378
20108WAT     H260567   8.110   6.114   6.313
20109WAT      O60568   1.747   2.071   3.046
20109WAT     H160569   1.733   2.167   3.068
20109WAT     H260570   1.845   2.052   3.039
20110WAT      O60571   8.265   2.836   2.846
20110WAT     H160572   8.343   2.846   2.907
20110WAT     H260573   8.184   2.877   2.888
20111WAT      O60574   6.623   5.898   0.506
20111WAT     H160575   6.674   5.971   0.462
20111WAT     H260576   6.585   5.930   0.592
20112WAT      O60577   5.538   9.063   0.333
20112WAT     H160578   5.631   9.033   0.355
20112WAT     H260579   5.507   9.129   0.402
20113WAT      O60580   9.326   4.053   3.281
20113WAT     H160581   9.347   4.077   3.186
20113WAT     H260582   9.299   3.957   3.286
20114WAT      O60583   5.152   6.679   1.552
20114WAT     H160584   5.222   6.736   1.596
20114WAT     H260585   5.062   6.720   1.566
20115WAT      O60586   2.511   3.806   2.690
20115WAT     H160587   2.565   3.889   2.684
20115WAT     H260588   2.465   3.790   2.603
20116WAT      O60589   7.861   6.224   4.080
20116WAT     H160590   7.877   6.180   3.992
20116WAT     H260591   7.928   6.297   4.094
20117WAT      O60592   3.141   1.005   5.542
20117WAT     H160593   3.084   0.943   5.596
20117WAT     H260594   3.195   1.063   5.604
20118WAT      O60595   0.858   9.546   4.544
20118WAT     H160596   0.868   9.636   4.501
20118WAT     H260597   0.921   9.482   4.500
20119WAT      O60598   2.020   6.183   0.234
20119WAT     H160599   1.961   6.137   0.302
20119WAT     H260600   1.968   6.256   0.189
20120WAT      O60601   1.905   8.816   4.120
20120WAT     H160602   1.909   8.902   4.068
20120WAT     H260603   1.880   8.836   4.215
20121WAT      O60604   2.489   7.687   2.320
20121WAT     H160605   2.579   7.648   2.335
20121WAT     H260606   2.426   7.615   2.288
20122WAT      O60607   7.998   4.317   2.931
20122WAT     H160608   7.945   4.245   2.886
20122WAT     H260609   8.082   4.333   2.881
20123WAT      O60610   9.287   2.968   4.665
20123WAT     H160611   9.368   2.915   4.641
20123WAT     H260612   9.205   2.913   4.652
20124WAT      O60613   3.611   4.589   9.109
20124WAT     H160614   3.548   4.609   9.183
20124WAT     H260615   3.704   4.580   9.146
20125WAT      O60616   5.452   0.341   0.869
20125WAT     H160617   5.484   0.259   0.917
20125WAT     H260618   5.385   0.389   0.925
20126WAT      O60619   2.895   6.249   1.029
20126WAT     H160620   2.877   6.152   1.012
20126WAT     H260621   2.960   6.258   1.104
20127WAT      O60622   6.570   1.043   3.520
20127WAT     H160623   6.555   0.958   3.470
20127WAT     H260624   6.568   1.025   3.619
20128WAT      O60625   1.358   0.864   4.104
20128WAT     H160626   1.443   0.811   4.108
20128WAT     H260627   1.348   0.905   4.014
20129WAT      O60628   4.565   2.934   7.332
20129WAT     H160629   4.625   2.980   7.267
20129WAT     H260630   4.550   2.993   7.411
20130WAT      O60631   2.411   2.703   0.947
20130WAT     H160632   2.499   2.698   0.993
20130WAT     H260633   2.425   2.708   0.848
20131WAT      O60634   3.246   3.902   1.333
20131WAT     H160635   3.289   3.924   1.421
20131WAT     H260636   3.148   3.919   1.339
20132WAT      O60637   0.736   3.275   7.260
20132WAT     H160638   0.771   3.355   7.211
20132WAT     H260639   0.809   3.236   7.316
20133WAT      O60640   2.707   8.772   1.702
20133WAT     H160641   2.670   8.752   1.792
20133WAT     H260642   2.676   8.862   1.671
20134WAT      O60643   4.314   5.929   5.628
20134WAT     H160644   4.322   5.925   5.529
20134WAT     H260645   4.394   5.886   5.670
20135WAT      O60646   8.838   8.478   7.763
20135WAT     H160647   8.740   8.459   7.757
20135WAT     H260648   8.889   8.394   7.743
20136WAT      O60649   0.902   1.163   2.648
20136WAT     H160650   0.838   1.118   2.586
20136WAT     H260651   0.904   1.113   2.735
20137WAT      O60652   3.512   1.339   8.448
20137WAT     H160653   3.463   1.303   8.368
20137WAT     H260654   3.465   1.311   8.532
20138WAT      O60655   9.280   2.731   2.152
20138WAT     H160656   9.314   2.820   2.182
20138WAT     H260657   9.235   2.740   2.063
20139WAT      O60658   1.770   2.643   0.991
20139WAT     H160659   1.759   2.546   1.011
20139WAT     H260660   1.846   2.656   0.927
20140WAT      O60661   3.980   4.676   5.794
20140WAT     H160662   4.067   4.634   5.821
20140WAT     H260663   3.960   4.653   5.699
20141WAT      O60664   6.315   0.005   0.515
20141WAT     H160665   6.309   0.017   0.416
20141WAT     H260666   6.331  -0.091   0.536
20142WAT      O60667   3.531   1.754   5.946
20142WAT     H160668   3.625   1.743   5.916
20142WAT     H260669   3.472   1.769   5.867
20143WAT      O60670   6.412   6.630   8.875
20143WAT     H160671   6.349   6.706   8.893
20143WAT     H260672   6.421   6.617   8.776
20144WAT      O60673   9.607   0.402   3.467
20144WAT     H160674   9.621   0.351   3.552
20144WAT     H260675   9.642   0.348   3.390
20145WAT      O60676   4.094   9.232   0.937
20145WAT     H160677   4.132   9.162   0.997
20145WAT     H260678   4.165   9.298   0.913
20146WAT      O60679   1.901   6.164   1.441
20146WAT     H160680   1.919   6.253   1.482
20146WAT     H260681   1.811   6.164   1.399
20147WAT      O60682   2.306   3.345   9.077
20147WAT     H160683   2.206   3.340   9.070
20147WAT     H260684   2.331   3.400   9.157
20148WAT      O60685   6.232   7.128   6.384
20148WAT     H160686   6.149   7.072   6.385
20148WAT     H260687   6.209   7.222   6.411
20149WAT      O60688   8.749   6.561   1.471
20149WAT     H160689   8.703   6.491   1.526
20149WAT     H260690   8.847   6.542   1.467
20150WAT      O60691   7.261   2.551   5.104
20150WAT     H160692   7.279   2.647   5.127
20150WAT     H260693   7.346   2.499   5.107
20151WAT      O60694   5.284   0.974   7.728
20151WAT     H160695   5.252   0.932   7.813
20151WAT     H260696   5.368   0.928   7.698
20152WAT      O60697   7.665   1.411   1.898
20152WAT     H160698   7.644   1.409   1.996
20152WAT     H260699   7.639   1.324   1.857
20153WAT      O60700   5.607   6.968   5.055
20153WAT     H160701   5.554   7.015   5.125
20153WAT     H260702   5.703   6.967   5.080
20154WAT      O60703   9.161   2.881   8.846
20154WAT     H160704   9.103   2.803   8.822
20154WAT     H260705   9.257   2.855   8.837
20155WAT      O60706   8.561   3.969   2.835
20155WAT     H160707   8.526   3.990   2.744
20155WAT     H260708   8.521   4.033   2.901
20156WAT      O60709   2.422   9.500   3.528
20156WAT     H160710   2.355   9.570   3.554
20156WAT     H260711   2.374   9.419   3.495
20157WAT      O60712   4.486   6.078   9.289
20157WAT     H160713   4.494   6.062   9.387
20157WAT     H260714   4.527   6.002   9.239
20158WAT      O60715   0.922   2.675   6.623
20158WAT     H160716   1.016   2.667   6.590
20158WAT     H260717   0.887   2.584   6.645
20159WAT      O60718   7.444   7.520   7.872
20159WAT     H160719   7.399   7.448   7.820
20159WAT     H260720   7.385   7.550   7.947
20160WAT      O60721   7.130   3.370   5.740
20160WAT     H160722   7.229   3.352   5.738
20160WAT     H260723   7.083   3.305   5.681
20161WAT      O60724   4.846   3.736   6.655
20161WAT     H160725   4.941   3.722   6.683
20161WAT     H260726   4.841   3.812   6.590
20162WAT      O60727   7.693   6.314   2.950
20162WAT     H160728   7.739   6.394   2.910
20162WAT     H260729   7.637   6.343   3.028
20163WAT      O60730   4.107   6.218   1.905
20163WAT     H160731   4.154   6.286   1.961
20163WAT     H260732   4.058   6.264   1.831
20164WAT      O60733   1.835   6.160   9.478
20164WAT     H160734   1.755   6.124   9.429
20164WAT     H260735   1.910   6.176   9.413
20165WAT      O60736   8.990   1.846   9.830
20165WAT     H160737   9.073   1.849   9.886
20165WAT     H260738   9.005   1.894   9.744
20166WAT      O60739   0.650   9.799   1.465
20166WAT     H160740   0.616   9.785   1.372
20166WAT     H260741   0.573   9.802   1.528
20167WAT      O60742   6.102   0.343   2.397
20167WAT     H160743   6.072   0.438   2.395
20167WAT     H260744   6.046   0.292   2.463
20168WAT      O60745   6.297   7.854   6.834
20168WAT     H160746   6.289   7.900   6.746
20168WAT     H260747   6.207   7.844   6.876
20169WAT      O60748   2.768   4.691   6.837
20169WAT     H160749   2.700   4.624   6.866
20169WAT     H260750   2.727   4.782   6.838
20170WAT      O60751   9.697   1.547   4.697
20170WAT     H160752   9.708   1.545   4.598
20170WAT     H260753   9.672   1.455   4.729
20171WAT      O60754   8.309   0.324   1.244
20171WAT     H160755   8.289   0.275   1.329
20171WAT     H260756   8.401   0.300   1.213
20172WAT      O60757   9.831   4.603   4.713
20172WAT     H160758   9.746   4.601   4.765
20172WAT     H260759   9.830   4.529   4.645
20173WAT      O60760   2.478   9.550   0.013
20173WAT     H160761   2.550   9.486   0.037
20173WAT     H260762   2.407   9.549   0.084
20174WAT      O60763   6.148   9.486   5.549
20174WAT     H160764   6.203   9.408   5.578
20174WAT     H260765   6.166   9.505   5.453
20175WAT      O60766   1.998   2.049   1.886
20175WAT     H160767   1.946   2.070   1.803
20175WAT     H260768   2.030   2.134   1.928
20176WAT      O60769   4.426   8.106   7.871
20176WAT     H160770   4.358   8.168   7.831
20176WAT     H260771   4.510   8.111   7.818
20177WAT      O60772   2.802   0.980   8.319
20177WAT     H160773   2.795   0.952   8.224
20177WAT     H260774   2.832   0.902   8.375
20178WAT      O60775   2.205   9.764   1.578
20178WAT     H160776   2.193   9.744   1.675
20178WAT     H260777   2.181   9.860   1.561
20179WAT      O60778   4.112   5.837   7.860
20179WAT     H160779   4.193   5.857   7.804
20179WAT     H260780   4.127   5.868   7.954
20180WAT      O60781   8.579   7.636   6.280
20180WAT     H160782   8.562   7.581   6.362
20180WAT     H260783   8.610   7.576   6.206
20181WAT      O60784   7.750   0.155   3.082
20181WAT     H160785   7.680   0.113   3.140
20181WAT     H260786   7.823   0.193   3.139
20182WAT      O60787   9.104   6.789   4.800
20182WAT     H160788   9.158   6.710   4.774
20182WAT     H260789   9.018   6.789   4.750
20183WAT      O60790   7.819   0.851   2.027
20183WAT     H160791   7.755   0.919   2.061
20183WAT     H260792   7.907   0.861   2.073
20184WAT      O60793   8.718   0.029   0.877
20184WAT     H160794   8.766   0.093   0.816
20184WAT     H260795   8.776   0.008   0.956
20185WAT      O60796   6.438   1.911   2.117
20185WAT     H160797   6.426   1.824   2.165
20185WAT     H260798   6.469   1.981   2.182
20186WAT      O60799   9.360   8.741   3.606
20186WAT     H160800   9.269   8.761   3.568
20186WAT     H260801   9.377   8.801   3.684
20187WAT      O60802   6.405   0.077   6.847
20187WAT     H160803   6.442   0.166   6.822
20187WAT     H260804   6.398   0.071   6.947
20188WAT      O60805   7.581   8.818   0.417
20188WAT     H160806   7.500   8.814   0.477
20188WAT     H260807   7.578   8.741   0.353
20189WAT      O60808   7.253   1.554   3.797
20189WAT     H160809   7.289   1.646   3.808
20189WAT     H260810   7.283   1.516   3.709
20190WAT      O60811   4.563   6.041   7.612
20190WAT     H160812   4.500   6.067   7.540
20190WAT     H260813   4.657   6.066   7.586
20191WAT      O60814   4.900   9.238   0.030
20191WAT     H160815   4.935   9.212   0.120
20191WAT     H260816   4.866   9.157  -0.018
20192WAT      O60817   5.268   4.109   6.683
20192WAT     H160818   5.233   4.020   6.651
20192WAT     H260819   5.236   4.181   6.621
20193WAT      O60820   0.377   9.504   5.814
20193WAT     H160821   0.469   9.466   5.822
20193WAT     H260822   0.318   9.439   5.767
20194WAT      O60823   3.826   5.978   8.371
20194WAT     H160824   3.898   6.009   8.433
20194WAT     H260825   3.861   5.902   8.315
20195WAT      O60826   0.629   7.412   9.032
20195WAT     H160827   0.691   7.374   8.963
20195WAT     H260828   0.678   7.420   9.119
20196WAT      O60829   4.188   4.543   8.864
20196WAT     H160830   4.172   4.605   8.787
20196WAT     H260831   4.115   4.474   8.867
20197WAT      O60832   5.737   4.783   4.789
20197WAT     H160833   5.642   4.789   4.758
20197WAT     H260834   5.738   4.769   4.888
20198WAT      O60835   2.886   0.785   0.051
20198WAT     H160836   2.944   0.857   0.014
20198WAT     H260837   2.905   0.773   0.149
20199WAT      O60838   5.571   1.246   7.171
20199WAT     H160839   5.627   1.313   7.219
20199WAT     H260840   5.515   1.196   7.237
20200WAT      O60841   8.941   7.178   3.603
20200WAT     H160842   8.915   7.146   3.512
20200WAT     H260843   8.973   7.273   3.598
20201WAT      O60844   3.824   9.350   2.021
20201WAT     H160845   3.881   9.421   1.980
20201WAT     H260846   3.793   9.287   1.949
20202WAT      O60847   6.142   5.380   7.621
20202WAT     H160848   6.220   5.396   7.681
20202WAT     H260849   6.159   5.421   7.531
20203WAT      O60850   3.207   2.070   0.765
20203WAT     H160851   3.230   2.050   0.670
20203WAT     H260852   3.286   2.052   0.823
20204WAT      O60853   5.033   3.269   2.649
20204WAT     H160854   4.965   3.263   2.577
20204WAT     H260855   5.067   3.178   2.671
20205WAT      O60856   2.511   7.605   3.067
20205WAT     H160857   2.508   7.682   3.129
20205WAT     H260858   2.586   7.544   3.091
20206WAT      O60859   6.827   8.684   0.667
20206WAT     H160860   6.742   8.715   0.710
20206WAT     H260861   6.820   8.695   0.568
20207WAT      O60862   2.213   4.653   0.221
20207WAT     H160863   2.172   4.744   0.230
20207WAT     H260864   2.146   4.590   0.181
20208WAT      O60865   1.368   2.586   6.212
20208WAT     H160866   1.417   2.673   6.208
20208WAT     H260867   1.387   2.540   6.299
20209WAT      O60868   9.558   6.368   5.252
20209WAT     H160869   9.568   6.392   5.155
20209WAT     H260870   9.648   6.358   5.293
20210WAT      O60871   9.658   5.141   5.889
20210WAT     H160872   9.741   5.102   5.930
20210WAT     H260873   9.619   5.075   5.824
20211WAT      O60874   1.559   7.748   5.178
20211WAT     H160875   1.587   7.823   5.238
20211WAT     H260876   1.520   7.785   5.093
20212WAT      O60877   8.470   5.390   6.306
20212WAT     H160878   8.437   5.351   6.220
20212WAT     H260879   8.446   5.328   6.381
20213WAT      O60880   6.460   0.051   9.446
20213WAT     H160881   6.463  -0.048   9.461
20213WAT     H260882   6.548   0.091   9.472
20214WAT      O60883   2.717   2.841   9.367
20214WAT     H160884   2.753   2.889   9.286
20214WAT     H260885   2.672   2.756   9.338
20215WAT      O60886   9.538   0.775   0.625
20215WAT     H160887   9.532   0.863   0.579
20215WAT     H260888   9.449   0.750   0.662
20216WAT      O60889   1.618   3.335   1.023
20216WAT     H160890   1.565   3.420   1.031
20216WAT     H260891   1.651   3.308   1.114
20217WAT      O60892   7.837   2.057   6.254
20217WAT     H160893   7.759   2.038   6.314
20217WAT     H260894   7.804   2.081   6.163
20218WAT      O60895   4.118   1.476   5.738
20218WAT     H160896   4.038   1.451   5.793
20218WAT     H260897   4.201   1.459   5.791
20219WAT      O60898   5.400   5.883   6.139
20219WAT     H160899   5.456   5.935   6.075
20219WAT     H260900   5.421   5.912   6.233
20220WAT      O60901   3.844   4.768   5.998
20220WAT     H160902   3.888   4.739   5.913
20220WAT     H260903   3.897   4.842   6.039
20221WAT      O60904   8.090   6.406   5.162
20221WAT     H160905   8.120   6.456   5.244
20221WAT     H260906   8.137   6.443   5.082
20222WAT      O60907   6.993   1.372   9.641
20222WAT     H160908   6.948   1.288   9.611
20222WAT     H260909   7.082   1.380   9.595
20223WAT      O60910   3.334   7.764   3.956
20223WAT     H160911   3.318   7.860   3.981
20223WAT     H260912   3.352   7.711   4.038
20224WAT      O60913   3.197   6.557   5.023
20224WAT     H160914   3.162   6.554   5.117
20224WAT     H260915   3.141   6.621   4.969
20225WAT      O60916   0.144   1.908   8.222
20225WAT     H160917   0.158   1.967   8.301
20225WAT     H260918   0.131   1.814   8.254
20226WAT      O60919   4.741   1.688   1.935
20226WAT     H160920   4.660   1.721   1.888
20226WAT     H260921   4.821   1.739   1.905
20227WAT      O60922   3.103   5.410   8.811
20227WAT     H160923   3.097   5.311   8.827
20227WAT     H260924   3.050   5.458   8.881
20228WAT      O60925   2.677   6.723   8.677
20228WAT     H160926   2.699   6.771   8.763
20228WAT     H260927   2.697   6.783   8.600
20229WAT      O60928   6.516   1.929   6.944
20229WAT     H160929   6.455   2.008   6.942
20229WAT     H260930   6.595   1.947   6.885
20230WAT      O60931   7.389   6.284   7.268
20230WAT     H160932   7.340   6.347   7.207
20230WAT     H260933   7.487   6.286   7.246
20231WAT      O60934   0.165   2.128   9.425
20231WAT     H160935   0.066   2.134   9.437
20231WAT     H260936   0.197   2.040   9.459
20232WAT      O60937   0.639   9.734   0.991
20232WAT     H160938   0.713   9.799   1.011
20232WAT     H260939   0.598   9.758   0.903
20233WAT      O60940   9.146   0.027   9.172
20233WAT     H160941   9.137   0.080   9.256
20233WAT     H260942   9.094   0.071   9.099
20234WAT      O60943   6.250   3.175   8.599
20234WAT     H160944   6.217   3.095   8.650
20234WAT     H260945   6.280   3.245   8.663
20235WAT      O60946   9.472   3.607   8.058
20235WAT     H160947   9.379   3.614   8.021
20235WAT     H260948   9.473   3.634   8.154
20236WAT      O60949   6.064   3.131   2.489
20236WAT     H160950   6.056   3.065   2.414
20236WAT     H260951   6.159   3.163   2.496
20237WAT      O60952   2.806   2.169   1.309
20237WAT     H160953   2.848   2.248   1.354
20237WAT     H260954   2.738   2.129   1.370
20238WAT      O60955   8.951   4.095   0.388
20238WAT     H160956   8.934   4.147   0.305
20238WAT     H260957   9.045   4.112   0.419
20239WAT      O60958   9.150   5.553   6.184
20239WAT     H160959   9.155   5.468   6.132
20239WAT     H260960   9.098   5.538   6.268
20240WAT      O60961   4.612   6.673   7.405
20240WAT     H160962   4.544   6.649   7.337
20240WAT     H260963   4.699   6.630   7.381
20241WAT      O60964   5.975   0.664   6.632
20241WAT     H160965   5.885   0.638   6.668
20241WAT     H260966   5.972   0.759   6.601
20242WAT      O60967   5.506   1.467   6.630
20242WAT     H160968   5.481   1.562   6.645
20242WAT     H260969   5.424   1.410   6.641
20243WAT      O60970   2.461   8.233   6.975
20243WAT     H160971   2.508   8.313   6.937
20243WAT     H260972   2.463   8.159   6.908
20244WAT      O60973   5.277   8.896   4.416
20244WAT     H160974   5.235   8.985   4.396
20244WAT     H260975   5.206   8.832   4.443
20245WAT      O60976   5.711   6.183   8.257
20245WAT     H160977   5.741   6.140   8.342
20245WAT     H260978   5.775   6.160   8.183
20246WAT      O60979   7.637   6.315   6.724
20246WAT     H160980   7.659   6.223   6.690
20246WAT     H260981   7.603   6.308   6.818
20247WAT      O60982   4.913   9.236   8.273
20247WAT     H160983   4.945   9.240   8.179
20247WAT     H260984   4.924   9.326   8.316
20248WAT      O60985   9.718   8.116   8.081
20248WAT     H160986   9.661   8.034   8.076
20248WAT     H260987   9.763   8.121   8.170
20249WAT      O60988   3.810   8.939   4.448
20249WAT     H160989   3.890   8.893   4.411
20249WAT     H260990   3.753   8.973   4.374
20250WAT      O60991   0.584   8.091   9.805
20250WAT     H160992   0.515   8.083   9.733
20250WAT     H260993   0.568   8.174   9.858
20251WAT      O60994   2.231   4.791   3.103
20251WAT     H160995   2.194   4.789   3.010
20251WAT     H260996   2.163   4.754   3.166
20252WAT      O60997   3.072   4.633   1.722
20252WAT     H160998   3.113   4.542   1.722
20252WAT     H260999   3.065   4.667   1.815
20253WAT      O61000   7.754   7.648   9.186
20253WAT     H161001   7.756   7.639   9.087
20253WAT     H261002   7.705   7.569   9.226
20254WAT      O61003   7.735   0.530   1.186
20254WAT     H161004   7.807   0.599   1.175
20254WAT     H261005   7.656   0.571   1.233
20255WAT      O61006   5.956   1.701   5.497
20255WAT     H161007   5.991   1.691   5.404
20255WAT     H261008   5.912   1.790   5.507
20256WAT      O61009   0.038   0.779   0.853
20256WAT     H161010   0.136   0.770   0.866
20256WAT     H261011   0.011   0.875   0.863
20257WAT      O61012   8.451   9.342   1.187
20257WAT     H161013   8.429   9.418   1.248
20257WAT     H261014   8.378   9.331   1.120
20258WAT      O61015   1.727   6.121   8.102
20258WAT     H161016   1.746   6.028   8.070
20258WAT     H261017   1.814   6.167   8.123
20259WAT      O61018   7.012   5.807   8.936
20259WAT     H161019   7.018   5.708   8.927
20259WAT     H261020   7.053   5.851   8.856
20260WAT      O61021   9.415   4.296   5.475
20260WAT     H161022   9.346   4.300   5.403
20260WAT     H261023   9.468   4.381   5.476
20261WAT      O61024   1.854   2.265   4.340
20261WAT     H161025   1.790   2.333   4.376
20261WAT     H261026   1.940   2.271   4.390
20262WAT      O61027   3.293   0.652   5.243
20262WAT     H161028   3.301   0.743   5.284
20262WAT     H261029   3.307   0.659   5.144
20263WAT      O61030   8.213   7.900   3.335
20263WAT     H161031   8.265   7.898   3.250
20263WAT     H261032   8.132   7.959   3.324
20264WAT      O61033   0.487   3.314   9.059
20264WAT     H161034   0.543   3.347   8.982
20264WAT     H261035   0.516   3.360   9.143
20265WAT      O61036   5.676   2.326   5.909
20265WAT     H161037   5.683   2.241   5.960
20265WAT     H261038   5.700   2.310   5.813
20266WAT      O61039   1.749   2.457   9.751
20266WAT     H161040   1.733   2.550   9.717
20266WAT     H261041   1.804   2.461   9.834
20267WAT      O61042   7.799   4.822   2.676
20267WAT     H161043   7.819   4.853   2.769
20267WAT     H261044   7.776   4.725   2.677
20268WAT      O61045   9.749   2.178   0.280
20268WAT     H161046   9.710   2.157   0.190
20268WAT     H261047   9.840   2.218   0.268
20269WAT      O61048   6.254   3.832   6.427
20269WAT     H161049   6.311   3.859   6.505
20269WAT     H261050   6.211   3.743   6.446
20270WAT      O61051   2.392   5.347   2.018
20270WAT     H161052   2.346   5.385   2.099
20270WAT     H261053   2.491   5.355   2.029
20271WAT      O61054   5.496   0.164   2.795
20271WAT     H161055   5.590   0.132   2.789
20271WAT     H261056   5.493   0.255   2.836
20272WAT      O61057   7.101   0.237   3.385
20272WAT     H161058   7.193   0.230   3.423
20272WAT     H261059   7.106   0.259   3.287
20273WAT      O61060   7.650   0.978   7.559
20273WAT     H161061   7.693   1.062   7.591
20273WAT     H261062   7.573   0.956   7.619
20274WAT      O61063   5.998   0.495   5.554
20274WAT     H161064   5.901   0.472   5.550
20274WAT     H261065   6.035   0.500   5.462
20275WAT      O61066   2.021   1.698   4.746
20275WAT     H161067   1.950   1.767   4.729
20275WAT     H261068   2.016   1.669   4.842
20276WAT      O61069   7.041   0.668   8.070
20276WAT     H161070   6.986   0.682   8.153
20276WAT     H261071   7.082   0.577   8.073
20277WAT      O61072   5.852   1.123   7.973
20277WAT     H161073   5.856   1.219   8.001
20277WAT     H261074   5.945   1.088   7.959
20278WAT      O61075   5.459   1.435   5.443
20278WAT     H161076   5.392   1.441   5.369
20278WAT     H261077   5.542   1.389   5.410
20279WAT      O61078   0.373   7.324   0.378
20279WAT     H161079   0.326   7.237   0.388
20279WAT     H261080   0.421   7.346   0.463
20280WAT      O61081   4.643   6.785   4.123
20280WAT     H161082   4.624   6.779   4.025
20280WAT     H261083   4.739   6.763   4.140
20281WAT      O61084   1.193   9.835   3.440
20281WAT     H161085   1.143   9.908   3.395
20281WAT     H261086   1.169   9.832   3.537
20282WAT      O61087   6.226   8.577   4.016
20282WAT     H161088   6.272   8.663   3.997
20282WAT     H261089   6.171   8.586   4.099
20283WAT      O61090   5.295   9.707   0.391
20283WAT     H161091   5.224   9.648   0.430
20283WAT     H261092   5.311   9.681   0.296
20284WAT      O61093   0.972   7.586   7.371
20284WAT     H161094   1.063   7.622   7.350
20284WAT     H261095   0.962   7.578   7.470
20285WAT      O61096   7.598   1.888   1.989
20285WAT     H161097   7.503   1.899   1.959
20285WAT     H261098   7.656   1.955   1.944
20286WAT      O61099   8.812   2.130   6.691
20286WAT     H161100   8.863   2.153   6.608
20286WAT     H261101   8.861   2.164   6.771
20287WAT      O61102   9.332   0.493   5.634
20287WAT     H161103   9.414   0.537   5.672
20287WAT     H261104   9.323   0.401   5.673
20288WAT      O61105   7.597   4.804   8.017
20288WAT     H161106   7.671   4.853   8.064
20288WAT     H261107   7.541   4.870   7.967
20289WAT      O61108   2.329   4.216   7.774
20289WAT     H161109   2.357   4.173   7.688
20289WAT     H261110   2.274   4.152   7.827
20290WAT      O61111   5.834   1.962   0.236
20290WAT     H161112   5.917   2.004   0.199
20290WAT     H261113   5.815   1.877   0.187
20291WAT      O61114   7.038   7.421   2.782
20291WAT     H161115   6.953   7.422   2.729
20291WAT     H261116   7.090   7.505   2.763
20292WAT      O61117   6.811   0.881   3.686
20292WAT     H161118   6.808   0.972   3.729
20292WAT     H261119   6.900   0.840   3.702
20293WAT      O61120   7.466   8.253   8.235
20293WAT     H161121   7.515   8.335   8.204
20293WAT     H261122   7.415   8.214   8.158
20294WAT      O61123   0.764   2.073   1.982
20294WAT     H161124   0.707   2.067   2.064
20294WAT     H261125   0.706   2.089   1.902
20295WAT      O61126   3.383   3.884   2.283
20295WAT     H161127   3.344   3.969   2.250
20295WAT     H261128   3.335   3.855   2.366
20296WAT      O61129   7.853   5.722   2.057
20296WAT     H161130   7.767   5.772   2.049
20296WAT     H261131   7.853   5.646   1.991
20297WAT      O61132   0.322   9.498   4.064
20297WAT     H161133   0.416   9.473   4.088
20297WAT     H261134   0.258   9.450   4.124
20298WAT      O61135   6.313   4.620   1.030
20298WAT     H161136   6.281   4.587   1.119
20298WAT     H261137   6.403   4.580   1.010
20299WAT      O61138   5.536   1.097   7.451
20299WAT     H161139   5.586   1.122   7.534
20299WAT     H261140   5.555   1.002   7.428
20300WAT      O61141   2.277   6.847   0.132
20300WAT     H161142   2.351   6.885   0.076
20300WAT     H261143   2.314   6.821   0.222
20301WAT      O61144   3.966   1.866   2.834
20301WAT     H161145   3.965   1.961   2.802
20301WAT     H261146   3.892   1.853   2.900
20302WAT      O61147   0.915   3.501   5.430
20302WAT     H161148   0.938   3.492   5.527
20302WAT     H261149   0.947   3.420   5.381
20303WAT      O61150   8.714   9.836   8.000
20303WAT     H161151   8.666   9.866   8.082
20303WAT     H261152   8.811   9.824   8.020
20304WAT      O61153   1.178   5.508   8.334
20304WAT     H161154   1.211   5.492   8.241
20304WAT     H261155   1.080   5.530   8.331
20305WAT      O61156   4.550   4.473   1.479
20305WAT     H161157   4.527   4.434   1.390
20305WAT     H261158   4.649   4.469   1.492
20306WAT      O61159   5.232   0.958   6.424
20306WAT     H161160   5.312   0.949   6.483
20306WAT     H261161   5.231   1.050   6.384
20307WAT      O61162   7.582   7.294   6.166
20307WAT     H161163   7.668   7.303   6.215
20307WAT     H261164   7.596   7.239   6.084
20308WAT      O61165   8.612   6.883   2.829
20308WAT     H161166   8.571   6.847   2.745
20308WAT     H261167   8.681   6.818   2.862
20309WAT      O61168   3.014   7.190   7.716
20309WAT     H161169   3.108   7.224   7.719
20309WAT     H261170   2.954   7.253   7.766
20310WAT      O61171   7.547   1.177   9.854
20310WAT     H161172   7.526   1.108   9.923
20310WAT     H261173   7.634   1.222   9.877
20311WAT      O61174   9.053   3.292   6.977
20311WAT     H161175   8.990   3.330   7.045
20311WAT     H261176   9.135   3.348   6.972
20312WAT      O61177   8.656   3.994   5.921
20312WAT     H161178   8.608   3.926   5.976
20312WAT     H261179   8.752   3.967   5.909
20313WAT      O61180   3.449   6.450   1.065
20313WAT     H161181   3.488   6.541   1.046
20313WAT     H261182   3.517   6.380   1.045
20314WAT      O61183   1.593   2.790   0.857
20314WAT     H161184   1.659   2.739   0.911
20314WAT     H261185   1.589   2.752   0.764
20315WAT      O61186   2.893   0.821   4.987
20315WAT     H161187   2.970   0.862   5.036
20315WAT     H261188   2.921   0.732   4.950
20316WAT      O61189   5.953   9.176   0.893
20316WAT     H161190   5.971   9.110   0.965
20316WAT     H261191   5.875   9.234   0.919
20317WAT      O61192   5.035   3.265   1.131
20317WAT     H161193   5.031   3.182   1.074
20317WAT     H261194   5.090   3.335   1.084
20318WAT      O61195   3.829   7.753   1.648
20318WAT     H161196   3.813   7.664   1.604
20318WAT     H261197   3.778   7.757   1.734
20319WAT      O61198   4.740   2.733   9.279
20319WAT     H161199   4.647   2.705   9.301
20319WAT     H261200   4.805   2.680   9.334
20320WAT      O61201   4.621   3.692   2.003
20320WAT     H161202   4.702   3.640   2.030
20320WAT     H261203   4.545   3.669   2.064
20321WAT      O61204   6.795   5.070   4.319
20321WAT     H161205   6.855   4.990   4.327
20321WAT     H261206   6.816   5.119   4.235
20322WAT      O61207   5.367   8.624   0.817
20322WAT     H161208   5.368   8.643   0.719
20322WAT     H261209   5.341   8.708   0.866
20323WAT      O61210   2.293   8.337   3.782
20323WAT     H161211   2.207   8.326   3.831
20323WAT     H261212   2.276   8.378   3.693
20324WAT      O61213   2.029   3.056   0.814
20324WAT     H161214   2.118   3.097   0.792
20324WAT     H261215   1.964   3.127   0.839
20325WAT      O61216   1.424   1.902   3.285
20325WAT     H161217   1.509   1.867   3.246
20325WAT     H261218   1.445   1.967   3.358
20326WAT      O61219   3.636   9.619   4.084
20326WAT     H161220   3.679   9.528   4.089
20326WAT     H261221   3.707   9.688   4.069
20327WAT      O61222   5.539   8.755   9.337
20327WAT     H161223   5.519   8.722   9.245
20327WAT     H261224   5.585   8.683   9.389
20328WAT      O61225   6.036   5.322   8.509
20328WAT     H161226   5.994   5.255   8.447
20328WAT     H261227   6.134   5.306   8.513
20329WAT      O61228   5.200   9.614   1.718
20329WAT     H161229   5.218   9.619   1.816
20329WAT     H261230   5.281   9.644   1.668
20330WAT      O61231   9.101   7.514   1.486
20330WAT     H161232   9.038   7.550   1.417
20330WAT     H261233   9.184   7.570   1.487
20331WAT      O61234   1.418   2.221   9.115
20331WAT     H161235   1.358   2.271   9.177
20331WAT     H261236   1.409   2.259   9.022
20332WAT      O61237   9.389   7.269   4.992
20332WAT     H161238   9.445   7.310   4.920
20332WAT     H261239   9.444   7.206   5.046
20333WAT      O61240   9.518   7.597   1.621
20333WAT     H161241   9.582   7.580   1.546
20333WAT     H261242   9.549   7.550   1.703
20334WAT      O61243   5.480   3.961   9.059
20334WAT     H161244   5.454   3.864   9.060
20334WAT     H261245   5.570   3.971   9.017
20335WAT      O61246   2.114   8.262   4.054
20335WAT     H161247   2.080   8.286   3.963
20335WAT     H261248   2.067   8.179   4.085
20336WAT      O61249   1.625   9.248   1.229
20336WAT     H161250   1.687   9.282   1.300
20336WAT     H261251   1.535   9.288   1.241
20337WAT      O61252   1.051   7.979   6.607
20337WAT     H161253   1.112   7.901   6.597
20337WAT     H261254   1.046   8.005   6.704
20338WAT      O61255   4.581   6.686   5.270
20338WAT     H161256   4.502   6.747   5.265
20338WAT     H261257   4.566   6.608   5.209
20339WAT      O61258   2.153   3.367   5.000
20339WAT     H161259   2.194   3.315   4.926
20339WAT     H261260   2.194   3.340   5.087
20340WAT      O61261   5.773   6.696   1.662
20340WAT     H161262   5.678   6.725   1.647
20340WAT     H261263   5.805   6.734   1.749
20341WAT      O61264   5.771   9.725   7.872
20341WAT     H161265   5.722   9.640   7.854
20341WAT     H261266   5.713   9.785   7.928
20342WAT      O61267   2.545   9.055   0.258
20342WAT     H161268   2.620   9.105   0.300
20342WAT     H261269   2.506   8.991   0.325
20343WAT      O61270   4.889   8.584   1.855
20343WAT     H161271   4.913   8.502   1.803
20343WAT     H261272   4.971   8.619   1.902
20344WAT      O61273   0.244   5.579   5.814
20344WAT     H161274   0.156   5.590   5.860
20344WAT     H261275   0.304   5.656   5.839
20345WAT      O61276   1.974   9.706   2.871
20345WAT     H161277   1.952   9.610   2.852
20345WAT     H261278   1.991   9.717   2.969
20346WAT      O61279   7.181   8.092   1.638
20346WAT     H161280   7.114   8.019   1.625
20346WAT     H261281   7.185   8.147   1.555
20347WAT      O61282   3.644   8.882   9.250
20347WAT     H161283   3.589   8.849   9.326
20347WAT     H261284   3.718   8.940   9.284
20348WAT      O61285   6.766   0.398   6.878
20348WAT     H161286   6.862   0.424   6.889
20348WAT     H261287   6.715   0.475   6.838
20349WAT      O61288   9.634   3.613   1.826
20349WAT     H161289   9.600   3.572   1.741
20349WAT     H261290   9.684   3.697   1.804
20350WAT      O61291   6.656   9.392   6.848
20350WAT     H161292   6.646   9.304   6.802
20350WAT     H261293   6.752   9.420   6.846
20351WAT      O61294   5.685   7.910   7.509
20351WAT     H161295   5.713   7.821   7.544
20351WAT     H261296   5.752   7.942   7.442
20352WAT      O61297   7.259   6.124   3.693
20352WAT     H161298   7.305   6.185   3.629
20352WAT     H261299   7.175   6.090   3.652
20353WAT      O61300   2.904   2.637   3.267
20353WAT     H161301   2.981   2.600   3.216
20353WAT     H261302   2.820   2.591   3.239
20354WAT      O61303   7.118   5.794   8.119
20354WAT     H161304   7.151   5.852   8.193
20354WAT     H261305   7.026   5.823   8.092
20355WAT      O61306   1.080   2.724   7.159
20355WAT     H161307   1.170   2.752   7.126
20355WAT     H261308   1.048   2.645   7.106
20356WAT      O61309   4.258   8.791   3.381
20356WAT     H161310   4.343   8.824   3.339
20356WAT     H261311   4.181   8.809   3.319
20357WAT      O61312   7.134   3.994   8.711
20357WAT     H161313   7.095   3.963   8.624
20357WAT     H261314   7.206   4.061   8.694
20358WAT      O61315   6.960   9.391   2.949
20358WAT     H161316   7.058   9.377   2.931
20358WAT     H261317   6.910   9.307   2.929
20359WAT      O61318   3.213   8.595   5.722
20359WAT     H161319   3.222   8.617   5.625
20359WAT     H261320   3.271   8.517   5.744
20360WAT      O61321   6.467   3.015   3.598
20360WAT     H161322   6.424   3.058   3.519
20360WAT     H261323   6.563   2.995   3.576
20361WAT      O61324   0.509   0.546   3.204
20361WAT     H161325   0.455   0.607   3.145
20361WAT     H261326   0.606   0.553   3.180
20362WAT      O61327   1.355   9.417   1.176
20362WAT     H161328   1.390   9.452   1.262
20362WAT     H261329   1.283   9.349   1.194
20363WAT      O61330   6.523   8.976   3.963
20363WAT     H161331   6.510   9.075   3.951
20363WAT     H261332   6.599   8.960   4.026
20364WAT      O61333   3.519   4.799   9.813
20364WAT     H161334   3.554   4.836   9.727
20364WAT     H261335   3.419   4.812   9.816
20365WAT      O61336   0.832   6.716   8.407
20365WAT     H161337   0.840   6.617   8.399
20365WAT     H261338   0.882   6.759   8.332
20366WAT      O61339   8.007   8.915   8.710
20366WAT     H161340   7.945   8.931   8.786
20366WAT     H261341   8.096   8.883   8.744
20367WAT      O61342   5.262   6.102   8.350
20367WAT     H161343   5.331   6.169   8.323
20367WAT     H261344   5.307   6.024   8.394
20368WAT      O61345   1.209   6.419   1.604
20368WAT     H161346   1.222   6.390   1.698
20368WAT     H261347   1.194   6.518   1.601
20369WAT      O61348   2.720   7.094   0.107
20369WAT     H161349   2.760   7.185   0.116
20369WAT     H261350   2.793   7.025   0.104
20370WAT      O61351   5.697   9.506   8.296
20370WAT     H161352   5.670   9.423   8.345
20370WAT     H261353   5.785   9.491   8.251
20371WAT      O61354   7.553   2.603   3.851
20371WAT     H161355   7.482   2.642   3.792
20371WAT     H261356   7.587   2.673   3.913
20372WAT      O61357   0.392   8.794   0.596
20372WAT     H161358   0.468   8.860   0.594
20372WAT     H261359   0.423   8.710   0.641
20373WAT      O61360   1.186   2.703   8.050
20373WAT     H161361   1.116   2.770   8.076
20373WAT     H261362   1.267   2.751   8.017
20374WAT      O61363   2.366   6.595   6.785
20374WAT     H161364   2.423   6.675   6.766
20374WAT     H261365   2.361   6.580   6.883
20375WAT      O61366   6.987   2.971   9.249
20375WAT     H161367   6.948   2.981   9.158
20375WAT     H261368   7.078   3.013   9.251
20376WAT      O61369   2.313   5.526   3.714
20376WAT     H161370   2.286   5.589   3.787
20376WAT     H261371   2.338   5.438   3.754
20377WAT      O61372   8.327   7.522   1.251
20377WAT     H161373   8.374   7.522   1.163
20377WAT     H261374   8.358   7.445   1.306
20378WAT      O61375   3.070   3.149   8.860
20378WAT     H161376   3.078   3.198   8.774
20378WAT     H261377   2.994   3.186   8.913
20379WAT      O61378   6.335   9.567   0.544
20379WAT     H161379   6.282   9.508   0.483
20379WAT     H261380   6.285   9.580   0.630
20380WAT      O61381   1.303   4.777   6.936
20380WAT     H161382   1.272   4.836   7.011
20380WAT     H261383   1.385   4.816   6.894
20381WAT      O61384   9.487   7.307   0.527
20381WAT     H161385   9.426   7.316   0.448
20381WAT     H261386   9.463   7.375   0.596
20382WAT      O61387   4.593   3.217   0.590
20382WAT     H161388   4.601   3.145   0.520
20382WAT     H261389   4.497   3.237   0.606
20383WAT      O61390   4.031   0.121   8.728
20383WAT     H161391   4.122   0.080   8.737
20383WAT     H261392   3.962   0.056   8.758
20384WAT      O61393   6.658   6.842   1.207
20384WAT     H161394   6.611   6.754   1.211
20384WAT     H261395   6.666   6.872   1.112
20385WAT      O61396   9.286   6.113   0.831
20385WAT     H161397   9.194   6.089   0.861
20385WAT     H261398   9.326   6.036   0.781
20386WAT      O61399   3.953   0.607   2.318
20386WAT     H161400   3.981   0.648   2.405
20386WAT     H261401   4.025   0.545   2.287
20387WAT      O61402   5.240   3.015   9.625
20387WAT     H161403   5.308   3.087   9.642
20387WAT     H261404   5.259   2.937   9.685
20388WAT      O61405   9.872   7.235   7.766
20388WAT     H161406   9.952   7.252   7.708
20388WAT     H261407   9.897   7.171   7.839
20389WAT      O61408   7.530   5.397   9.684
20389WAT     H161409   7.614   5.358   9.647
20389WAT     H261410   7.467   5.416   9.609
20390WAT      O61411   0.800   3.066   6.801
20390WAT     H161412   0.765   3.040   6.891
20390WAT     H261413   0.872   3.134   6.811
20391WAT      O61414   3.335   5.082   2.237
20391WAT     H161415   3.291   5.014   2.177
20391WAT     H261416   3.309   5.174   2.208
20392WAT      O61417   0.277   4.557   8.541
20392WAT     H161418   0.206   4.583   8.607
20392WAT     H261419   0.359   4.527   8.591
20393WAT      O61420   3.091   4.222   9.592
20393WAT     H161421   3.111   4.124   9.601
20393WAT     H261422   3.009   4.245   9.644
20394WAT      O61423   8.011   5.867   2.859
20394WAT     H161424   7.937   5.935   2.859
20394WAT     H261425   8.018   5.826   2.769
20395WAT      O61426   2.601   4.225   9.258
20395WAT     H161427   2.534   4.285   9.301
20395WAT     H261428   2.554   4.147   9.217
20396WAT      O61429   1.318   3.775   0.243
20396WAT     H161430   1.378   3.703   0.277
20396WAT     H261431   1.223   3.749   0.258
20397WAT      O61432   6.179   0.359   5.989
20397WAT     H161433   6.236   0.421   5.935
20397WAT     H261434   6.125   0.301   5.927
20398WAT      O61435   7.324   9.818   8.747
20398WAT     H161436   7.308   9.783   8.655
20398WAT     H261437   7.420   9.804   8.772
20399WAT      O61438   2.702   7.016   6.272
20399WAT     H161439   2.706   7.047   6.367
20399WAT     H261440   2.713   7.095   6.211
20400WAT      O61441   6.962   5.765   2.823
20400WAT     H161442   6.925   5.821   2.898
20400WAT     H261443   6.975   5.823   2.742
20401WAT      O61444   9.802   6.911   5.312
20401WAT     H161445   9.810   6.837   5.245
20401WAT     H261446   9.883   6.969   5.307
20402WAT      O61447   3.457   6.383   2.053
20402WAT     H161448   3.516   6.398   1.974
20402WAT     H261449   3.513   6.360   2.133
20403WAT      O61450   0.191   7.840   6.203
20403WAT     H161451   0.136   7.883   6.275
20403WAT     H261452   0.133   7.778   6.151
20404WAT      O61453   5.692   2.448   2.582
20404WAT     H161454   5.765   2.515   2.596
20404WAT     H261455   5.708   2.399   2.496
20405WAT      O61456   7.297   5.157   6.435
20405WAT     H161457   7.307   5.059   6.454
20405WAT     H261458   7.242   5.169   6.352
20406WAT      O61459   1.862   8.612   1.921
20406WAT     H161460   1.774   8.630   1.965
20406WAT     H261461   1.878   8.513   1.919
20407WAT      O61462   2.463   0.397   8.885
20407WAT     H161463   2.478   0.385   8.983
20407WAT     H261464   2.522   0.471   8.851
20408WAT      O61465   2.278   4.376   8.310
20408WAT     H161466   2.301   4.356   8.214
20408WAT     H261467   2.325   4.310   8.369
20409WAT      O61468   2.067   0.222   0.715
20409WAT     H161469   2.128   0.143   0.707
20409WAT     H261470   2.052   0.261   0.624
20410WAT      O61471   5.349   6.092   9.357
20410WAT     H161472   5.263   6.105   9.407
20410WAT     H261473   5.390   6.180   9.337
20411WAT      O61474   1.673   6.350   8.579
20411WAT     H161475   1.690   6.425   8.643
20411WAT     H261476   1.641   6.388   8.492
20412WAT      O61477   9.142   3.328   1.780
20412WAT     H161478   9.189   3.384   1.848
20412WAT     H261479   9.188   3.337   1.692
20413WAT      O61480   7.740   8.515   7.661
20413WAT     H161481   7.684   8.447   7.615
20413WAT     H261482   7.787   8.571   7.593
20414WAT      O61483   3.173   5.444   0.350
20414WAT     H161484   3.162   5.411   0.444
20414WAT     H261485   3.261   5.414   0.315
20415WAT      O61486   7.218   3.370   9.590
20415WAT     H161487   7.308   3.358   9.548
20415WAT     H261488   7.229   3.391   9.687
20416WAT      O61489   9.326   2.035   7.981
20416WAT     H161490   9.334   1.947   7.935
20416WAT     H261491   9.417   2.071   8.001
20417WAT      O61492   2.410   2.079   4.734
20417WAT     H161493   2.389   2.054   4.829
20417WAT     H261494   2.325   2.101   4.686
20418WAT      O61495   6.462   6.055   8.711
20418WAT     H161496   6.496   6.008   8.629
20418WAT     H261497   6.419   5.988   8.772
20419WAT      O61498   6.143   5.461   6.016
20419WAT     H161499   6.060   5.439   5.966
20419WAT     H261500   6.120   5.490   6.109
20420WAT      O61501   0.905   8.876   1.983
20420WAT     H161502   0.842   8.846   1.912
20420WAT     H261503   0.859   8.941   2.043
20421WAT      O61504   2.921   0.109   1.612
20421WAT     H161505   2.846   0.060   1.570
20421WAT     H261506   2.988   0.044   1.649
20422WAT      O61507   9.296   3.061   6.193
20422WAT     H161508   9.291   3.035   6.096
20422WAT     H261509   9.235   3.003   6.246
20423WAT      O61510   9.265   1.592   5.457
20423WAT     H161511   9.312   1.677   5.479
20423WAT     H261512   9.277   1.571   5.360
20424WAT      O61513   4.290   8.998   4.876
20424WAT     H161514   4.303   9.089   4.836
20424WAT     H261515   4.250   9.007   4.967
20425WAT      O61516   2.286   1.358   4.721
20425WAT     H161517   2.274   1.272   4.672
20425WAT     H261518   2.198   1.406   4.725
20426WAT      O61519   7.852   1.960   5.304
20426WAT     H161520   7.801   1.981   5.387
20426WAT     H261521   7.789   1.932   5.232
20427WAT      O61522   4.965   4.809   7.479
20427WAT     H161523   4.868   4.833   7.488
20427WAT     H261524   5.000   4.779   7.568
20428WAT      O61525   3.132   2.743   8.235
20428WAT     H161526   3.169   2.823   8.283
20428WAT     H261527   3.161   2.660   8.282
20429WAT      O61528   4.690   1.073   5.233
20429WAT     H161529   4.675   0.974   5.235
20429WAT     H261530   4.786   1.093   5.251
20430WAT      O61531   0.346   4.953   5.892
20430WAT     H161532   0.315   4.880   5.830
20430WAT     H261533   0.271   4.977   5.955
20431WAT      O61534   3.839   8.253   5.321
20431WAT     H161535   3.839   8.182   5.390
20431WAT     H261536   3.892   8.332   5.353
20432WAT      O61537   8.838   4.051   1.997
20432WAT     H161538   8.787   4.136   2.001
20432WAT     H261539   8.835   4.015   1.903
20433WAT      O61540   1.588   7.777   0.702
20433WAT     H161541   1.620   7.735   0.787
20433WAT     H261542   1.657   7.841   0.668
20434WAT      O61543   7.924   6.140   6.979
20434WAT     H161544   7.922   6.192   7.064
20434WAT     H261545   7.929   6.202   6.901
20435WAT      O61546   4.502   5.445   7.601
20435WAT     H161547   4.485   5.406   7.691
20435WAT     H261548   4.583   5.504   7.604
20436WAT      O61549   0.219   4.348   2.398
20436WAT     H161550   0.186   4.318   2.488
20436WAT     H261551   0.156   4.416   2.360
20437WAT      O61552   0.622   4.633   4.390
20437WAT     H161553   0.564   4.603   4.465
20437WAT     H261554   0.708   4.582   4.390
20438WAT      O61555   8.668   9.587   5.343
20438WAT     H161556   8.734   9.520   5.311
20438WAT     H261557   8.716   9.668   5.377
20439WAT      O61558   5.145   2.978   7.440
20439WAT     H161559   5.155   2.923   7.357
20439WAT     H261560   5.208   2.945   7.510
20440WAT      O61561   3.534   1.306   4.257
20440WAT     H161562   3.540   1.211   4.291
20440WAT     H261563   3.562   1.368   4.330
20441WAT      O61564   2.117   1.829   6.119
20441WAT     H161565   2.169   1.900   6.071
20441WAT     H261566   2.101   1.752   6.058
20442WAT      O61567   4.897   2.406   2.339
20442WAT     H161568   4.930   2.485   2.287
20442WAT     H261569   4.858   2.437   2.426
20443WAT      O61570   0.861   6.836   9.618
20443WAT     H161571   0.827   6.836   9.524
20443WAT     H261572   0.850   6.745   9.658
20444WAT      O61573   4.756   3.799   2.899
20444WAT     H161574   4.847   3.840   2.893
20444WAT     H261575   4.750   3.723   2.834
20445WAT      O61576   6.591   7.293   1.383
20445WAT     H161577   6.629   7.385   1.393
20445WAT     H261578   6.616   7.255   1.294
20446WAT      O61579   4.865   3.745   4.267
20446WAT     H161580   4.907   3.836   4.269
20446WAT     H261581   4.850   3.717   4.172
20447WAT      O61582   5.959   1.564   2.029
20447WAT     H161583   5.974   1.647   1.975
20447WAT     H261584   5.887   1.581   2.097
20448WAT      O61585   2.435   9.631   1.967
20448WAT     H161586   2.413   9.696   1.895
20448WAT     H261587   2.464   9.545   1.926
20449WAT      O61588   9.736   0.858   1.938
20449WAT     H161589   9.743   0.773   1.887
20449WAT     H261590   9.827   0.889   1.965
20450WAT      O61591   8.431   0.979   1.620
20450WAT     H161592   8.463   1.069   1.649
20450WAT     H261593   8.343   0.989   1.572
20451WAT      O61594   4.190   6.946   3.063
20451WAT     H161595   4.169   7.040   3.038
20451WAT     H261596   4.284   6.924   3.038
20452WAT      O61597   6.721   1.215   0.629
20452WAT     H161598   6.778   1.296   0.614
20452WAT     H261599   6.778   1.133   0.632
20453WAT      O61600   4.698   8.138   4.483
20453WAT     H161601   4.711   8.189   4.398
20453WAT     H261602   4.617   8.080   4.475
20454WAT      O61603   2.085   0.586   6.879
20454WAT     H161604   2.148   0.611   6.806
20454WAT     H261605   2.000   0.552   6.839
20455WAT      O61606   6.013   4.710   0.549
20455WAT     H161607   5.979   4.745   0.636
20455WAT     H261608   5.939   4.665   0.499
20456WAT      O61609   4.734   3.652   4.473
20456WAT     H161610   4.785   3.651   4.388
20456WAT     H261611   4.758   3.733   4.526
20457WAT      O61612   7.652   7.475   0.474
20457WAT     H161613   7.720   7.426   0.420
20457WAT     H261614   7.579   7.509   0.413
20458WAT      O61615   1.179   2.678   6.828
20458WAT     H161616   1.110   2.750   6.839
20458WAT     H261617   1.216   2.681   6.735
20459WAT      O61618   0.941   9.165   0.398
20459WAT     H161619   0.944   9.261   0.372
20459WAT     H261620   0.860   9.122   0.358
20460WAT      O61621   6.469   2.642   2.534
20460WAT     H161622   6.411   2.722   2.547
20460WAT     H261623   6.493   2.633   2.437
20461WAT      O61624   1.893   6.188   2.731
20461WAT     H161625   1.883   6.258   2.801
20461WAT     H261626   1.830   6.207   2.655
20462WAT      O61627   7.216   9.104   7.460
20462WAT     H161628   7.129   9.090   7.414
20462WAT     H261629   7.201   9.119   7.558
20463WAT      O61630   7.522   0.687   5.408
20463WAT     H161631   7.507   0.773   5.360
20463WAT     H261632   7.477   0.690   5.497
20464WAT      O61633   8.189   2.985   0.250
20464WAT     H161634   8.261   2.995   0.181
20464WAT     H261635   8.208   2.904   0.305
20465WAT      O61636   9.533   7.988   4.656
20465WAT     H161637   9.592   7.936   4.719
20465WAT     H261638   9.565   8.083   4.652
20466WAT      O61639   2.885   5.982   6.619
20466WAT     H161640   2.955   6.053   6.619
20466WAT     H261641   2.922   5.899   6.661
20467WAT      O61642   4.761   5.265   2.766
20467WAT     H161643   4.858   5.291   2.765
20467WAT     H261644   4.713   5.318   2.836
20468WAT      O61645   1.847   5.530   2.967
20468WAT     H161646   1.842   5.467   3.045
20468WAT     H261647   1.834   5.478   2.882
20469WAT      O61648   4.409   3.810   9.019
20469WAT     H161649   4.417   3.749   9.097
20469WAT     H261650   4.484   3.876   9.019
20470WAT      O61651   3.236   7.918   6.723
20470WAT     H161652   3.137   7.933   6.728
20470WAT     H261653   3.273   7.906   6.815
20471WAT      O61654   7.531   6.438   4.047
20471WAT     H161655   7.604   6.485   3.997
20471WAT     H261656   7.484   6.503   4.107
20472WAT      O61657   4.205   0.375   5.386
20472WAT     H161658   4.285   0.318   5.404
20472WAT     H261659   4.169   0.412   5.471
20473WAT      O61660   4.399   4.276   6.184
20473WAT     H161661   4.444   4.192   6.212
20473WAT     H261662   4.426   4.351   6.245
20474WAT      O61663   9.330   0.100   9.811
20474WAT     H161664   9.314   0.192   9.846
20474WAT     H261665   9.427   0.091   9.785
20475WAT      O61666   0.695   1.728   9.679
20475WAT     H161667   0.745   1.813   9.661
20475WAT     H261668   0.758   1.661   9.718
20476WAT      O61669   4.475   1.824   6.518
20476WAT     H161670   4.485   1.905   6.576
20476WAT     H261671   4.437   1.749   6.572
20477WAT      O61672   6.696   9.273   4.189
20477WAT     H161673   6.795   9.265   4.181
20477WAT     H261674   6.659   9.191   4.235
20478WAT      O61675   9.038   0.089   1.342
20478WAT     H161676   9.049   0.150   1.263
20478WAT     H261677   9.043  -0.006   1.311
20479WAT      O61678   0.390   5.973   3.527
20479WAT     H161679   0.325   6.036   3.569
20479WAT     H261680   0.394   5.990   3.428
20480WAT      O61681   1.448   4.941   0.830
20480WAT     H161682   1.464   4.911   0.924
20480WAT     H261683   1.355   4.915   0.803
20481WAT      O61684   8.735   3.549   8.509
20481WAT     H161685   8.810   3.527   8.571
20481WAT     H261686   8.649   3.554   8.559
20482WAT      O61687   7.236   0.123   2.749
20482WAT     H161688   7.251   0.188   2.824
20482WAT     H261689   7.229   0.172   2.663
20483WAT      O61690   2.726   9.165   0.406
20483WAT     H161691   2.778   9.087   0.442
20483WAT     H261692   2.724   9.237   0.475
20484WAT      O61693   3.731   2.231   3.877
20484WAT     H161694   3.748   2.272   3.787
20484WAT     H261695   3.818   2.213   3.923
20485WAT      O61696   4.725   5.675   3.071
20485WAT     H161697   4.720   5.650   3.168
20485WAT     H261698   4.639   5.653   3.026
20486WAT      O61699   2.122   9.737   1.849
20486WAT     H161700   2.057   9.680   1.798
20486WAT     H261701   2.169   9.681   1.917
20487WAT      O61702   2.008   9.005   5.365
20487WAT     H161703   1.969   9.056   5.288
20487WAT     H261704   2.107   9.001   5.356
20488WAT      O61705   2.061   3.310   7.543
20488WAT     H161706   2.116   3.366   7.604
20488WAT     H261707   2.081   3.213   7.560
20489WAT      O61708   2.463   2.373   7.423
20489WAT     H161709   2.400   2.306   7.384
20489WAT     H261710   2.487   2.345   7.516
20490WAT      O61711   8.884   2.255   5.791
20490WAT     H161712   8.786   2.261   5.814
20490WAT     H261713   8.906   2.321   5.720
20491WAT      O61714   8.886   4.538   2.446
20491WAT     H161715   8.916   4.623   2.401
20491WAT     H261716   8.943   4.521   2.526
20492WAT      O61717   2.359   6.989   4.211
20492WAT     H161718   2.412   6.953   4.287
20492WAT     H261719   2.391   7.080   4.187
20493WAT      O61720   1.425   3.653   8.980
20493WAT     H161721   1.353   3.586   8.961
20493WAT     H261722   1.511   3.605   8.997
20494WAT      O61723   4.891   4.432   7.932
20494WAT     H161724   4.988   4.457   7.929
20494WAT     H261725   4.883   4.335   7.954
20495WAT      O61726   1.385   2.454   6.449
20495WAT     H161727   1.357   2.358   6.449
20495WAT     H261728   1.473   2.463   6.496
20496WAT      O61729   9.474   9.215   9.832
20496WAT     H161730   9.459   9.247   9.925
20496WAT     H261731   9.386   9.193   9.790
20497WAT      O61732   1.369   2.829   5.916
20497WAT     H161733   1.284   2.795   5.955
20497WAT     H261734   1.445   2.772   5.945
20498WAT      O61735   5.081   0.984   1.438
20498WAT     H161736   5.067   0.888   1.415
20498WAT     H261737   5.054   0.999   1.534
20499WAT      O61738   2.409   5.432   0.704
20499WAT     H161739   2.362   5.380   0.775
20499WAT     H261740   2.507   5.437   0.725
20500WAT      O61741   4.738   4.116   3.691
20500WAT     H161742   4.690   4.196   3.657
20500WAT     H261743   4.682   4.034   3.677
20501WAT      O61744   2.078   5.070   2.066
20501WAT     H161745   2.005   5.007   2.040
20501WAT     H261746   2.096   5.133   1.990
20502WAT      O61747   3.400   4.142   1.093
20502WAT     H161748   3.373   4.046   1.097
20502WAT     H261749   3.483   4.156   1.146
20503WAT      O61750   7.343   3.075   7.218
20503WAT     H161751   7.424   3.062   7.160
20503WAT     H261752   7.365   3.051   7.312
20504WAT      O61753   2.565   6.679   7.547
20504WAT     H161754   2.468   6.701   7.544
20504WAT     H261755   2.579   6.582   7.526
20505WAT      O61756   7.137   7.891   8.903
20505WAT     H161757   7.162   7.987   8.905
20505WAT     H261758   7.168   7.846   8.988
20506WAT      O61759   4.913   7.505   2.249
20506WAT     H161760   4.856   7.526   2.169
20506WAT     H261761   4.957   7.416   2.236
20507WAT      O61762   9.296   0.631   1.652
20507WAT     H161763   9.221   0.601   1.592
20507WAT     H261764   9.321   0.725   1.629
20508WAT      O61765   9.415   1.751   8.540
20508WAT     H161766   9.471   1.672   8.513
20508WAT     H261767   9.465   1.807   8.605
20509WAT      O61768   0.809   2.073   8.303
20509WAT     H161769   0.717   2.110   8.298
20509WAT     H261770   0.865   2.112   8.230
20510WAT      O61771   0.915   8.978   2.824
20510WAT     H161772   0.943   8.969   2.729
20510WAT     H261773   0.816   8.967   2.831
20511WAT      O61774   0.495   5.125   1.628
20511WAT     H161775   0.572   5.087   1.679
20511WAT     H261776   0.475   5.218   1.660
20512WAT      O61777   4.725   9.579   3.233
20512WAT     H161778   4.746   9.581   3.330
20512WAT     H261779   4.686   9.666   3.204
20513WAT      O61780   5.538   4.651   2.633
20513WAT     H161781   5.597   4.659   2.553
20513WAT     H261782   5.563   4.722   2.700
20514WAT      O61783   7.264   5.738   5.800
20514WAT     H161784   7.253   5.639   5.807
20514WAT     H261785   7.356   5.758   5.766
20515WAT      O61786   7.161   3.797   6.099
20515WAT     H161787   7.166   3.775   6.002
20515WAT     H261788   7.201   3.723   6.152
20516WAT      O61789   2.752   4.419   0.247
20516WAT     H161790   2.786   4.325   0.240
20516WAT     H261791   2.678   4.433   0.182
20517WAT      O61792   6.382   6.233   4.216
20517WAT     H161793   6.438   6.313   4.195
20517WAT     H261794   6.344   6.195   4.132
20518WAT      O61795   3.174   3.624   4.083
20518WAT     H161796   3.177   3.700   4.018
20518WAT     H261797   3.264   3.614   4.126
20519WAT      O61798   9.399   4.969   9.477
20519WAT     H161799   9.424   5.020   9.559
20519WAT     H261800   9.346   5.028   9.416
20520WAT      O61801   5.266   5.830   6.476
20520WAT     H161802   5.256   5.742   6.428
20520WAT     H261803   5.346   5.878   6.440
20521WAT      O61804   7.289   9.415   5.464
20521WAT     H161805   7.389   9.418   5.467
20521WAT     H261806   7.253   9.418   5.557
20522WAT      O61807   3.844   1.027   1.544
20522WAT     H161808   3.854   1.075   1.631
20522WAT     H261809   3.747   1.005   1.529
20523WAT      O61810   1.864   2.919   8.579
20523WAT     H161811   1.912   2.967   8.505
20523WAT     H261812   1.766   2.935   8.571
20524WAT      O61813   8.989   7.685   2.453
20524WAT     H161814   8.918   7.717   2.515
20524WAT     H261815   9.063   7.752   2.450
20525WAT      O61816   4.203   3.067   3.929
20525WAT     H161817   4.205   2.980   3.979
20525WAT     H261818   4.127   3.065   3.864
20526WAT      O61819   9.158   1.232   7.202
20526WAT     H161820   9.135   1.188   7.115
20526WAT     H261821   9.085   1.295   7.227
20527WAT      O61822   7.104   1.304   1.472
20527WAT     H161823   7.183   1.244   1.484
20527WAT     H261824   7.118   1.363   1.392
20528WAT      O61825   1.445   5.312   5.515
20528WAT     H161826   1.391   5.247   5.461
20528WAT     H261827   1.384   5.365   5.574
20529WAT      O61828   7.217   6.146   2.447
20529WAT     H161829   7.159   6.176   2.371
20529WAT     H261830   7.287   6.214   2.465
20530WAT      O61831   5.067   4.680   6.023
20530WAT     H161832   5.038   4.776   6.026
20530WAT     H261833   5.031   4.638   5.939
20531WAT      O61834   5.569   8.408   9.675
20531WAT     H161835   5.620   8.432   9.757
20531WAT     H261836   5.596   8.467   9.599
20532WAT      O61837   4.776   3.945   1.923
20532WAT     H161838   4.763   4.031   1.872
20532WAT     H261839   4.696   3.887   1.912
20533WAT      O61840   4.551   1.091   8.479
20533WAT     H161841   4.499   1.096   8.393
20533WAT     H261842   4.519   1.163   8.541
20534WAT      O61843   6.030   8.351   9.566
20534WAT     H161844   6.090   8.338   9.644
20534WAT     H261845   5.972   8.271   9.554
20535WAT      O61846   5.206   5.520   9.300
20535WAT     H161847   5.115   5.483   9.313
20535WAT     H261848   5.221   5.597   9.362
20536WAT      O61849   9.322   7.582   9.459
20536WAT     H161850   9.392   7.584   9.388
20536WAT     H261851   9.335   7.501   9.516
20537WAT      O61852   6.460   7.600   7.536
20537WAT     H161853   6.367   7.579   7.564
20537WAT     H261854   6.459   7.661   7.456
20538WAT      O61855   3.641   0.815   6.576
20538WAT     H161856   3.623   0.718   6.561
20538WAT     H261857   3.591   0.846   6.657
20539WAT      O61858   3.628   4.881   5.874
20539WAT     H161859   3.704   4.847   5.929
20539WAT     H261860   3.584   4.804   5.828
20540WAT      O61861   8.036   7.301   0.594
20540WAT     H161862   8.048   7.253   0.680
20540WAT     H261863   8.020   7.398   0.611
20541WAT      O61864   3.021   9.163   0.126
20541WAT     H161865   2.924   9.139   0.117
20541WAT     H261866   3.029   9.246   0.182
20542WAT      O61867   3.403   3.597   0.709
20542WAT     H161868   3.435   3.503   0.713
20542WAT     H261869   3.326   3.604   0.645
20543WAT      O61870   4.964   0.762   3.446
20543WAT     H161871   4.910   0.748   3.362
20543WAT     H261872   4.981   0.860   3.459
20544WAT      O61873   8.461   6.364   3.186
20544WAT     H161874   8.430   6.298   3.254
20544WAT     H261875   8.458   6.456   3.225
20545WAT      O61876   1.762   0.325   5.743
20545WAT     H161877   1.801   0.409   5.706
20545WAT     H261878   1.820   0.291   5.817
20546WAT      O61879   1.804   1.859   1.346
20546WAT     H161880   1.776   1.766   1.322
20546WAT     H261881   1.831   1.863   1.442
20547WAT      O61882   6.759   3.980   3.393
20547WAT     H161883   6.798   3.981   3.301
20547WAT     H261884   6.677   3.922   3.394
20548WAT      O61885   0.988   7.039   4.943
20548WAT     H161886   1.037   7.051   4.857
20548WAT     H261887   0.943   7.125   4.968
20549WAT      O61888   1.941   9.127   7.360
20549WAT     H161889   1.875   9.125   7.435
20549WAT     H261890   1.909   9.068   7.286
20550WAT      O61891   4.287   4.706   3.378
20550WAT     H161892   4.304   4.798   3.415
20550WAT     H261893   4.372   4.668   3.342
20551WAT      O61894   5.107   5.712   0.237
20551WAT     H161895   5.102   5.706   0.336
20551WAT     H261896   5.074   5.627   0.196
20552WAT      O61897   5.367   3.416   3.461
20552WAT     H161898   5.435   3.424   3.534
20552WAT     H261899   5.410   3.376   3.380
20553WAT      O61900   0.827   5.534   4.774
20553WAT     H161901   0.745   5.591   4.773
20553WAT     H261902   0.908   5.592   4.782
20554WAT      O61903   7.901   9.734   0.867
20554WAT     H161904   7.872   9.642   0.891
20554WAT     H261905   7.995   9.750   0.899
20555WAT      O61906   8.500   6.616   1.712
20555WAT     H161907   8.591   6.658   1.717
20555WAT     H261908   8.440   6.657   1.780
20556WAT      O61909   4.859   3.876   3.757
20556WAT     H161910   4.814   3.938   3.822
20556WAT     H261911   4.790   3.831   3.700
20557WAT      O61912   0.235   7.006   8.795
20557WAT     H161913   0.204   6.955   8.715
20557WAT     H261914   0.325   6.973   8.822
20558WAT      O61915   7.413   5.301   7.322
20558WAT     H161916   7.498   5.273   7.367
20558WAT     H261917   7.407   5.401   7.320
20559WAT      O61918   7.939   1.831   8.133
20559WAT     H161919   7.852   1.849   8.087
20559WAT     H261920   7.957   1.902   8.201
20560WAT      O61921   8.326   1.489   3.816
20560WAT     H161922   8.422   1.516   3.812
20560WAT     H261923   8.283   1.506   3.727
20561WAT      O61924   4.818   9.431   4.974
20561WAT     H161925   4.908   9.474   4.960
20561WAT     H261926   4.762   9.443   4.892
20562WAT      O61927   0.840   8.876   5.215
20562WAT     H161928   0.899   8.939   5.265
20562WAT     H261929   0.813   8.800   5.275
20563WAT      O61930   8.430   8.206   3.467
20563WAT     H161931   8.434   8.235   3.371
20563WAT     H261932   8.509   8.243   3.516
20564WAT      O61933   6.965   5.978   7.978
20564WAT     H161934   7.056   6.020   7.977
20564WAT     H261935   6.907   6.028   8.042
20565WAT      O61936   6.787   6.855   6.045
20565WAT     H161937   6.870   6.806   6.018
20565WAT     H261938   6.723   6.855   5.968
20566WAT      O61939   3.215   0.757   9.850
20566WAT     H161940   3.181   0.851   9.847
20566WAT     H261941   3.214   0.724   9.945
20567WAT      O61942   0.102   7.781   5.798
20567WAT     H161943   0.190   7.825   5.777
20567WAT     H261944   0.029   7.830   5.751
20568WAT      O61945   7.895   7.289   9.547
20568WAT     H161946   7.954   7.344   9.607
20568WAT     H261947   7.941   7.276   9.459
20569WAT      O61948   2.070   6.140   8.580
20569WAT     H161949   1.973   6.117   8.577
20569WAT     H261950   2.104   6.153   8.487
20570WAT      O61951   2.120   7.480   7.364
20570WAT     H161952   2.116   7.456   7.460
20570WAT     H261953   2.173   7.564   7.353
20571WAT      O61954   4.511   1.971   7.197
20571WAT     H161955   4.437   1.995   7.259
20571WAT     H261956   4.581   2.042   7.197
20572WAT      O61957   0.362   6.494   7.623
20572WAT     H161958   0.399   6.483   7.715
20572WAT     H261959   0.369   6.590   7.595
20573WAT      O61960   9.565   5.731   3.691
20573WAT     H161961   9.481   5.743   3.638
20573WAT     H261962   9.566   5.640   3.733
20574WAT      O61963   1.426   3.572   6.128
20574WAT     H161964   1.330   3.560   6.153
20574WAT     H261965   1.483   3.561   6.209
20575WAT      O61966   2.388   1.203   0.958
20575WAT     H161967   2.462   1.149   0.919
20575WAT     H261968   2.330   1.239   0.885
20576WAT      O61969   9.701   3.286   3.817
20576WAT     H161970   9.672   3.263   3.909
20576WAT     H261971   9.639   3.244   3.750
20577WAT      O61972   3.939   3.352   7.984
20577WAT     H161973   3.956   3.448   8.009
20577WAT     H261974   4.025   3.303   7.980
20578WAT      O61975   2.413   2.758   2.289
20578WAT     H161976   2.466   2.826   2.339
20578WAT     H261977   2.435   2.764   2.191
20579WAT      O61978   0.216   9.354   3.057
20579WAT     H161979   0.137   9.299   3.030
20579WAT     H261980   0.263   9.309   3.133
20580WAT      O61981   1.287   7.036   2.962
20580WAT     H161982   1.255   6.984   2.883
20580WAT     H261983   1.275   6.981   3.045
20581WAT      O61984   1.927   0.568   8.930
20581WAT     H161985   1.929   0.655   8.882
20581WAT     H261986   1.835   0.528   8.923
20582WAT      O61987   0.208   1.109   6.564
20582WAT     H161988   0.289   1.119   6.622
20582WAT     H261989   0.183   1.197   6.525
20583WAT      O61990   2.852   8.453   0.239
20583WAT     H161991   2.903   8.466   0.324
20583WAT     H261992   2.827   8.543   0.202
20584WAT      O61993   8.054   3.062   1.402
20584WAT     H161994   8.079   3.016   1.487
20584WAT     H261995   8.119   3.036   1.330
20585WAT      O61996   1.901   5.810   1.945
20585WAT     H161997   1.958   5.759   2.011
20585WAT     H261998   1.810   5.823   1.984
20586WAT      O61999   9.271   7.202   4.245
20586WAT     H162000   9.270   7.271   4.318
20586WAT     H262001   9.257   7.246   4.157
20587WAT      O62002   4.111   9.087   9.649
20587WAT     H162003   4.032   9.149   9.646
20587WAT     H262004   4.190   9.136   9.685
20588WAT      O62005   5.293   3.183   4.131
20588WAT     H162006   5.229   3.184   4.208
20588WAT     H262007   5.386   3.195   4.165
20589WAT      O62008   8.675   0.792   2.376
20589WAT     H162009   8.644   0.771   2.469
20589WAT     H262010   8.598   0.785   2.313
20590WAT      O62011   1.024   3.958   8.103
20590WAT     H162012   1.005   3.902   8.183
20590WAT     H262013   0.969   3.925   8.026
20591WAT      O62014   9.868   3.604   7.702
20591WAT     H162015   9.866   3.610   7.602
20591WAT     H262016   9.877   3.695   7.740
20592WAT      O62017   3.116   1.909   9.206
20592WAT     H162018   3.062   1.969   9.264
20592WAT     H262019   3.063   1.886   9.124
20593WAT      O62020   4.260   4.492   9.820
20593WAT     H162021   4.205   4.431   9.763
20593WAT     H262022   4.344   4.515   9.772
20594WAT      O62023   6.940   4.757   8.491
20594WAT     H162024   6.868   4.688   8.497
20594WAT     H262025   7.007   4.729   8.422
20595WAT      O62026   9.686   2.835   7.265
20595WAT     H162027   9.602   2.817   7.315
20595WAT     H262028   9.754   2.875   7.326
20596WAT      O62029   4.585   5.319   9.627
20596WAT     H162030   4.587   5.393   9.560
20596WAT     H262031   4.519   5.341   9.699
20597WAT      O62032   8.838   6.648   0.949
20597WAT     H162033   8.938   6.644   0.943
20597WAT     H262034   8.809   6.613   1.038
20598WAT      O62035   5.788   1.574   9.266
20598WAT     H162036   5.720   1.598   9.336
20598WAT     H262037   5.842   1.496   9.298
20599WAT      O62038   3.510   9.056   0.475
20599WAT     H162039   3.597   9.008   0.467
20599WAT     H262040   3.443   8.996   0.520
20600WAT      O62041   5.155   7.421   3.550
20600WAT     H162042   5.145   7.340   3.608
20600WAT     H262043   5.237   7.411   3.494
20601WAT      O62044   6.623   9.741   2.492
20601WAT     H162045   6.604   9.716   2.397
20601WAT     H262046   6.537   9.769   2.536
20602WAT      O62047   8.779   2.711   8.954
20602WAT     H162048   8.697   2.655   8.940
20602WAT     H262049   8.766   2.770   9.033
20603WAT      O62050   2.985   9.664   2.413
20603WAT     H162051   3.079   9.672   2.381
20603WAT     H262052   2.935   9.599   2.354
20604WAT      O62053   7.888   1.732   1.678
20604WAT     H162054   7.872   1.708   1.774
20604WAT     H262055   7.811   1.787   1.644
20605WAT      O62056   8.866   4.730   0.177
20605WAT     H162057   8.931   4.781   0.121
20605WAT     H262058   8.773   4.758   0.154
20606WAT      O62059   2.510   4.320   1.950
20606WAT     H162060   2.506   4.338   2.048
20606WAT     H262061   2.605   4.314   1.921
20607WAT      O62062   6.083   6.178   2.167
20607WAT     H162063   6.172   6.178   2.121
20607WAT     H262064   6.012   6.204   2.101
20608WAT      O62065   3.340   0.142   7.404
20608WAT     H162066   3.430   0.106   7.381
20608WAT     H262067   3.338   0.241   7.389
20609WAT      O62068   5.449   5.524   4.586
20609WAT     H162069   5.391   5.540   4.506
20609WAT     H262070   5.544   5.546   4.564
20610WAT      O62071   8.130   6.075   3.211
20610WAT     H162072   8.155   6.016   3.134
20610WAT     H262073   8.034   6.103   3.201
20611WAT      O62074   0.922   5.209   0.414
20611WAT     H162075   0.988   5.147   0.371
20611WAT     H262076   0.901   5.284   0.351
20612WAT      O62077   1.709   8.591   3.518
20612WAT     H162078   1.717   8.553   3.610
20612WAT     H262079   1.731   8.689   3.521
20613WAT      O62080   4.276   9.391   9.634
20613WAT     H162081   4.346   9.373   9.565
20613WAT     H262082   4.289   9.330   9.712
20614WAT      O62083   8.943   1.968   8.217
20614WAT     H162084   9.022   1.944   8.160
20614WAT     H262085   8.930   1.898   8.287
20615WAT      O62086   8.964   7.898   8.535
20615WAT     H162087   8.976   7.950   8.451
20615WAT     H262088   9.035   7.923   8.601
20616WAT      O62089   5.268   5.902   8.139
20616WAT     H162090   5.238   5.950   8.221
20616WAT     H262091   5.367   5.889   8.142
20617WAT      O62092   7.047   4.344   9.140
20617WAT     H162093   7.138   4.308   9.160
20617WAT     H262094   7.053   4.409   9.064
20618WAT      O62095   8.463   2.867   8.570
20618WAT     H162096   8.393   2.875   8.499
20618WAT     H262097   8.423   2.829   8.653
20619WAT      O62098   9.497   9.052   0.651
20619WAT     H162099   9.516   9.012   0.561
20619WAT     H262100   9.567   9.120   0.672
20620WAT      O62101   5.134   6.597   0.033
20620WAT     H162102   5.096   6.684   0.065
20620WAT     H262103   5.213   6.615  -0.026
20621WAT      O62104   9.394   0.527   5.211
20621WAT     H162105   9.345   0.489   5.289
20621WAT     H262106   9.341   0.602   5.172
20622WAT      O62107   1.746   5.345   0.978
20622WAT     H162108   1.845   5.346   0.965
20622WAT     H262109   1.700   5.331   0.890
20623WAT      O62110   4.498   7.335   8.620
20623WAT     H162111   4.495   7.348   8.521
20623WAT     H262112   4.527   7.420   8.665
20624WAT      O62113   2.191   1.679   5.328
20624WAT     H162114   2.176   1.580   5.324
20624WAT     H262115   2.210   1.705   5.423
20625WAT      O62116   4.210   8.812   8.993
20625WAT     H162117   4.285   8.758   9.031
20625WAT     H262118   4.209   8.803   8.893
20626WAT      O62119   2.752   2.260   4.974
20626WAT     H162120   2.820   2.325   5.005
20626WAT     H262121   2.693   2.303   4.906
20627WAT      O62122   6.359   9.708   2.601
20627WAT     H162123   6.392   9.787   2.653
20627WAT     H262124   6.262   9.721   2.581
20628WAT      O62125   5.979   3.592   3.945
20628WAT     H162126   6.024   3.551   3.866
20628WAT     H262127   5.883   3.610   3.923
20629WAT      O62128   6.693   6.781   3.447
20629WAT     H162129   6.674   6.858   3.508
20629WAT     H262130   6.741   6.815   3.365
20630WAT      O62131   4.119   5.301   8.990
20630WAT     H162132   4.182   5.315   8.913
20630WAT     H262133   4.122   5.205   9.019
20631WAT      O62134   3.596   1.572   9.796
20631WAT     H162135   3.645   1.487   9.815
20631WAT     H262136   3.650   1.650   9.828
20632WAT      O62137   1.626   9.065   4.265
20632WAT     H162138   1.528   9.046   4.276
20632WAT     H262139   1.678   8.991   4.306
20633WAT      O62140   4.327   0.812   1.871
20633WAT     H162141   4.239   0.853   1.849
20633WAT     H262142   4.386   0.813   1.790
20634WAT      O62143   7.667   2.240   0.089
20634WAT     H162144   7.686   2.142   0.092
20634WAT     H262145   7.617   2.262   0.005
20635WAT      O62146   4.454   3.474   0.434
20635WAT     H162147   4.456   3.479   0.335
20635WAT     H262148   4.541   3.506   0.471
20636WAT      O62149   2.876   4.084   9.056
20636WAT     H162150   2.966   4.099   9.015
20636WAT     H262151   2.883   4.084   9.156
20637WAT      O62152   8.201   7.190   8.352
20637WAT     H162153   8.122   7.205   8.411
20637WAT     H262154   8.268   7.262   8.367
20638WAT      O62155   5.164   1.171   0.982
20638WAT     H162156   5.236   1.123   0.933
20638WAT     H262157   5.156   1.264   0.945
20639WAT      O62158   4.455   9.536   4.882
20639WAT     H162159   4.401   9.577   4.809
20639WAT     H262160   4.536   9.493   4.843
20640WAT      O62161   6.251   1.135   1.717
20640WAT     H162162   6.265   1.189   1.800
20640WAT     H262163   6.331   1.078   1.700
20641WAT      O62164   3.790   3.746   4.721
20641WAT     H162165   3.804   3.703   4.632
20641WAT     H262166   3.878   3.756   4.767
20642WAT      O62167   9.589   9.141   1.919
20642WAT     H162168   9.688   9.133   1.912
20642WAT     H262169   9.548   9.050   1.922
20643WAT      O62170   8.191   5.342   4.486
20643WAT     H162171   8.162   5.290   4.405
20643WAT     H262172   8.126   5.326   4.560
20644WAT      O62173   6.319   4.847   8.395
20644WAT     H162174   6.335   4.915   8.324
20644WAT     H262175   6.343   4.886   8.484
20645WAT      O62176   3.439   5.808   9.562
20645WAT     H162177   3.480   5.850   9.481
20645WAT     H262178   3.372   5.871   9.601
20646WAT      O62179   8.347   6.451   7.299
20646WAT     H162180   8.306   6.364   7.328
20646WAT     H262181   8.358   6.451   7.200
20647WAT      O62182   8.529   6.564   8.431
20647WAT     H162183   8.434   6.597   8.434
20647WAT     H262184   8.583   6.612   8.500
20648WAT      O62185   9.778   1.642   6.957
20648WAT     H162186   9.690   1.628   6.912
20648WAT     H262187   9.851   1.609   6.897
20649WAT      O62188   2.597   8.367   9.375
20649WAT     H162189   2.544   8.437   9.422
20649WAT     H262190   2.606   8.391   9.278
20650WAT      O62191   5.757   2.697   9.042
20650WAT     H162192   5.741   2.701   8.943
20650WAT     H262193   5.692   2.757   9.088
20651WAT      O62194   7.406   7.815   4.618
20651WAT     H162195   7.478   7.878   4.588
20651WAT     H262196   7.390   7.827   4.716
20652WAT      O62197   2.495   0.757   8.580
20652WAT     H162198   2.447   0.672   8.558
20652WAT     H262199   2.478   0.781   8.675
20653WAT      O62200   9.325   6.643   7.187
20653WAT     H162201   9.268   6.565   7.162
20653WAT     H262202   9.331   6.649   7.287
20654WAT      O62203   6.442   6.661   3.105
20654WAT     H162204   6.425   6.576   3.155
20654WAT     H262205   6.516   6.712   3.149
20655WAT      O62206   9.420   6.233   9.100
20655WAT     H162207   9.371   6.260   9.017
20655WAT     H262208   9.415   6.306   9.168
20656WAT      O62209   6.006   3.972   1.338
20656WAT     H162210   5.940   3.931   1.400
20656WAT     H262211   5.975   4.063   1.310
20657WAT      O62212   8.116   5.219   8.780
20657WAT     H162213   8.047   5.206   8.851
20657WAT     H262214   8.085   5.291   8.717
20658WAT      O62215   8.493   0.677   4.512
20658WAT     H162216   8.487   0.580   4.536
20658WAT     H262217   8.402   0.715   4.503
20659WAT      O62218   1.444   9.075   6.734
20659WAT     H162219   1.432   9.148   6.801
20659WAT     H262220   1.537   9.040   6.739
20660WAT      O62221   3.773   5.404   9.660
20660WAT     H162222   3.707   5.474   9.686
20660WAT     H262223   3.857   5.414   9.713
20661WAT      O62224   2.428   9.463   8.543
20661WAT     H162225   2.511   9.445   8.490
20661WAT     H262226   2.442   9.436   8.638
20662WAT      O62227   6.467   9.772   8.610
20662WAT     H162228   6.510   9.699   8.663
20662WAT     H262229   6.489   9.762   8.513
20663WAT      O62230   1.851   8.801   9.577
20663WAT     H162231   1.948   8.814   9.601
20663WAT     H262232   1.835   8.704   9.557
20664WAT      O62233   3.658   6.840   5.890
20664WAT     H162234   3.597   6.870   5.963
20664WAT     H262235   3.618   6.865   5.801
20665WAT      O62236   1.036   4.427   3.056
20665WAT     H162237   0.990   4.354   3.106
20665WAT     H262238   1.096   4.388   2.987
20666WAT      O62239   4.342   0.092   4.646
20666WAT     H162240   4.244   0.100   4.667
20666WAT     H262241   4.391   0.170   4.684
20667WAT      O62242   1.061   8.610   1.700
20667WAT     H162243   1.017   8.697   1.676
20667WAT     H262244   1.158   8.626   1.717
20668WAT      O62245   0.985   6.578   3.422
20668WAT     H162246   0.950   6.556   3.513
20668WAT     H262247   0.910   6.609   3.364
20669WAT      O62248   3.177   9.405   8.292
20669WAT     H162249   3.165   9.434   8.386
20669WAT     H262250   3.239   9.467   8.245
20670WAT      O62251   5.515   2.801   6.079
20670WAT     H162252   5.563   2.871   6.132
20670WAT     H262253   5.576   2.725   6.061
20671WAT      O62254   0.440   3.941   5.589
20671WAT     H162255   0.474   3.959   5.497
20671WAT     H262256   0.475   3.852   5.620
20672WAT      O62257   8.496   2.589   3.787
20672WAT     H162258   8.443   2.542   3.858
20672WAT     H262259   8.510   2.684   3.814
20673WAT      O62260   2.231   6.233   5.357
20673WAT     H162261   2.206   6.149   5.309
20673WAT     H262262   2.221   6.219   5.455
20674WAT      O62263   1.258   6.932   7.315
20674WAT     H162264   1.271   6.962   7.409
20674WAT     H262265   1.167   6.958   7.284
20675WAT      O62266   4.385   5.058   7.532
20675WAT     H162267   4.361   4.980   7.473
20675WAT     H262268   4.307   5.121   7.537
20676WAT      O62269   9.504   5.999   2.305
20676WAT     H162270   9.512   5.964   2.212
20676WAT     H262271   9.558   6.083   2.314
20677WAT      O62272   4.866   0.509   0.723
20677WAT     H162273   4.828   0.577   0.786
20677WAT     H262274   4.871   0.548   0.631
20678WAT      O62275   6.286   9.122   4.993
20678WAT     H162276   6.266   9.134   5.090
20678WAT     H262277   6.222   9.178   4.939
20679WAT      O62278   0.996   8.493   6.388
20679WAT     H162279   1.035   8.583   6.407
20679WAT     H262280   1.044   8.451   6.311
20680WAT      O62281   6.453   7.985   8.019
20680WAT     H162282   6.547   8.002   8.048
20680WAT     H262283   6.396   7.968   8.099
20681WAT      O62284   6.047   9.612   4.304
20681WAT     H162285   6.075   9.645   4.214
20681WAT     H262286   5.954   9.575   4.298
20682WAT      O62287   2.915   0.915   1.224
20682WAT     H162288   2.863   0.931   1.308
20682WAT     H262289   3.009   0.891   1.248
20683WAT      O62290   5.202   1.959   7.339
20683WAT     H162291   5.103   1.953   7.351
20683WAT     H262292   5.226   2.049   7.303
20684WAT      O62293   4.970   1.671   5.290
20684WAT     H162294   4.983   1.580   5.329
20684WAT     H262295   4.914   1.726   5.352
20685WAT      O62296   2.675   8.877   1.146
20685WAT     H162297   2.649   8.781   1.145
20685WAT     H262298   2.761   8.888   1.197
20686WAT      O62299   9.069   9.188   8.190
20686WAT     H162300   9.146   9.209   8.251
20686WAT     H262301   8.995   9.148   8.244
20687WAT      O62302   0.009   1.614   0.905
20687WAT     H162303  -0.064   1.667   0.948
20687WAT     H262304   0.089   1.672   0.891
20688WAT      O62305   9.412   3.771   3.580
20688WAT     H162306   9.486   3.705   3.571
20688WAT     H262307   9.444   3.861   3.552
20689WAT      O62308   9.102   9.272   3.955
20689WAT     H162309   9.079   9.308   3.865
20689WAT     H262310   9.051   9.187   3.970
20690WAT      O62311   7.534   2.095   1.166
20690WAT     H162312   7.459   2.158   1.183
20690WAT     H262313   7.518   2.046   1.080
20691WAT      O62314   5.986   0.669   5.768
20691WAT     H162315   5.978   0.616   5.683
20691WAT     H262316   5.918   0.636   5.834
20692WAT      O62317   8.944   5.907   6.256
20692WAT     H162318   9.009   5.834   6.278
20692WAT     H262319   8.884   5.923   6.334
20693WAT      O62320   7.601   7.360   5.525
20693WAT     H162321   7.597   7.263   5.503
20693WAT     H262322   7.545   7.378   5.605
20694WAT      O62323   7.079   7.768   4.796
20694WAT     H162324   7.091   7.742   4.892
20694WAT     H262325   6.992   7.732   4.763
20695WAT      O62326   9.261   1.478   0.217
20695WAT     H162327   9.224   1.395   0.175
20695WAT     H262328   9.186   1.542   0.236
20696WAT      O62329   2.958   0.826   2.928
20696WAT     H162330   3.029   0.884   2.887
20696WAT     H262331   2.869   0.849   2.889
20697WAT      O62332   7.347   0.259   5.980
20697WAT     H162333   7.299   0.276   6.066
20697WAT     H262334   7.427   0.202   5.998
20698WAT      O62335   8.245   5.861   5.438
20698WAT     H162336   8.174   5.926   5.411
20698WAT     H262337   8.334   5.905   5.434
20699WAT      O62338   3.066   4.292   6.096
20699WAT     H162339   3.029   4.383   6.117
20699WAT     H262340   3.112   4.255   6.177
20700WAT      O62341   1.006   3.957   8.455
20700WAT     H162342   1.097   3.994   8.472
20700WAT     H262343   1.014   3.864   8.420
20701WAT      O62344   2.719   5.203   4.793
20701WAT     H162345   2.774   5.265   4.849
20701WAT     H262346   2.666   5.143   4.852
20702WAT      O62347   2.975   9.244   2.023
20702WAT     H162348   3.039   9.211   1.954
20702WAT     H262349   2.957   9.172   2.090
20703WAT      O62350   6.867   6.851   7.210
20703WAT     H162351   6.834   6.943   7.187
20703WAT     H262352   6.913   6.811   7.131
20704WAT      O62353   7.890   6.622   1.024
20704WAT     H162354   7.885   6.613   0.924
20704WAT     H262355   7.867   6.535   1.067
20705WAT      O62356   5.909   2.565   6.123
20705WAT     H162357   5.839   2.570   6.195
20705WAT     H262358   5.936   2.470   6.109
20706WAT      O62359   7.559   0.637   1.870
20706WAT     H162360   7.638   0.606   1.924
20706WAT     H262361   7.525   0.561   1.814
20707WAT      O62362   9.179   1.353   6.324
20707WAT     H162363   9.219   1.438   6.357
20707WAT     H262364   9.239   1.276   6.349
20708WAT      O62365   4.024   7.060   5.344
20708WAT     H162366   4.107   7.005   5.354
20708WAT     H262367   3.962   7.040   5.419
20709WAT      O62368   1.311   1.468   6.272
20709WAT     H162369   1.333   1.402   6.200
20709WAT     H262370   1.393   1.488   6.325
20710WAT      O62371   8.114   3.028   4.922
20710WAT     H162372   8.070   3.118   4.926
20710WAT     H262373   8.134   3.005   4.827
20711WAT      O62374   5.630   6.670   7.031
20711WAT     H162375   5.674   6.623   6.954
20711WAT     H262376   5.616   6.766   7.008
20712WAT      O62377   3.288   0.721   2.640
20712WAT     H162378   3.237   0.763   2.565
20712WAT     H262379   3.279   0.777   2.722
20713WAT      O62380   1.353   2.645   0.912
20713WAT     H162381   1.442   2.691   0.915
20713WAT     H262382   1.281   2.712   0.928
20714WAT      O62383   0.807   7.512   1.730
20714WAT     H162384   0.738   7.580   1.707
20714WAT     H262385   0.868   7.499   1.652
20715WAT      O62386   4.540   9.481   9.846
20715WAT     H162387   4.558   9.421   9.768
20715WAT     H262388   4.524   9.574   9.813
20716WAT      O62389   9.028   2.633   2.746
20716WAT     H162390   8.996   2.701   2.812
20716WAT     H262391   8.955   2.567   2.729
20717WAT      O62392   8.742   7.244   5.620
20717WAT     H162393   8.722   7.161   5.568
20717WAT     H262394   8.664   7.307   5.614
20718WAT      O62395   1.248   0.670   1.381
20718WAT     H162396   1.247   0.737   1.307
20718WAT     H262397   1.168   0.683   1.439
20719WAT      O62398   2.776   1.840   5.408
20719WAT     H162399   2.818   1.929   5.390
20719WAT     H262400   2.701   1.824   5.345
20720WAT      O62401   3.666   3.001   4.591
20720WAT     H162402   3.692   2.978   4.685
20720WAT     H262403   3.727   2.955   4.527
20721WAT      O62404   0.332   2.622   9.833
20721WAT     H162405   0.356   2.631   9.930
20721WAT     H262406   0.309   2.711   9.795
20722WAT      O62407   1.462   8.587   4.445
20722WAT     H162408   1.465   8.490   4.466
20722WAT     H262409   1.366   8.618   4.443
20723WAT      O62410   2.069   0.667   0.394
20723WAT     H162411   2.128   0.686   0.473
20723WAT     H262412   2.107   0.712   0.313
20724WAT      O62413   1.537   8.267   0.913
20724WAT     H162414   1.526   8.170   0.890
20724WAT     H262415   1.472   8.291   0.986
20725WAT      O62416   9.669   6.913   2.212
20725WAT     H162417   9.610   6.949   2.283
20725WAT     H262418   9.647   6.817   2.195
20726WAT      O62419   9.436   1.709   0.450
20726WAT     H162420   9.498   1.706   0.528
20726WAT     H262421   9.487   1.736   0.368
20727WAT      O62422   3.164   6.284   8.817
20727WAT     H162423   3.096   6.247   8.880
20727WAT     H262424   3.255   6.252   8.844
20728WAT      O62425   9.271   2.124   2.306
20728WAT     H162426   9.232   2.061   2.374
20728WAT     H262427   9.368   2.139   2.325
20729WAT      O62428   6.014   5.135   7.651
20729WAT     H162429   6.064   5.097   7.729
20729WAT     H262430   6.052   5.224   7.627
20730WAT      O62431   8.667   9.205   2.394
20730WAT     H162432   8.666   9.106   2.379
20730WAT     H262433   8.756   9.232   2.431
20731WAT      O62434   2.043   9.332   8.826
20731WAT     H162435   2.017   9.248   8.779
20731WAT     H262436   1.962   9.376   8.864
20732WAT      O62437   5.889   2.178   6.487
20732WAT     H162438   5.905   2.189   6.585
20732WAT     H262439   5.790   2.178   6.470
20733WAT      O62440   2.229   3.422   5.482
20733WAT     H162441   2.208   3.492   5.550
20733WAT     H262442   2.145   3.387   5.442
20734WAT      O62443   3.978   8.356   6.902
20734WAT     H162444   3.939   8.414   6.831
20734WAT     H262445   3.917   8.354   6.981
20735WAT      O62446   5.077   2.903   8.579
20735WAT     H162447   5.016   2.826   8.594
20735WAT     H262448   5.049   2.980   8.636
20736WAT      O62449   0.971   4.762   0.151
20736WAT     H162450   1.053   4.727   0.198
20736WAT     H262451   0.899   4.693   0.154
20737WAT      O62452   3.092   2.682   2.393
20737WAT     H162453   3.115   2.623   2.316
20737WAT     H262454   3.112   2.777   2.370
20738WAT      O62455   6.094   9.484   1.991
20738WAT     H162456   6.131   9.475   1.898
20738WAT     H262457   6.150   9.548   2.043
20739WAT      O62458   5.026   1.032   3.372
20739WAT     H162459   5.092   1.021   3.447
20739WAT     H262460   5.069   1.007   3.286
20740WAT      O62461   8.449   8.440   1.702
20740WAT     H162462   8.493   8.433   1.791
20740WAT     H262463   8.350   8.449   1.714
20741WAT      O62464   3.215   5.437   2.771
20741WAT     H162465   3.138   5.458   2.831
20741WAT     H262466   3.253   5.522   2.735
20742WAT      O62467   7.811   0.606   8.183
20742WAT     H162468   7.856   0.531   8.232
20742WAT     H262469   7.792   0.680   8.247
20743WAT      O62470   3.484   8.363   3.003
20743WAT     H162471   3.436   8.299   3.063
20743WAT     H262472   3.479   8.455   3.041
20744WAT      O62473   9.739   8.701   4.355
20744WAT     H162474   9.813   8.757   4.318
20744WAT     H262475   9.697   8.749   4.432
20745WAT      O62476   4.144   6.568   8.553
20745WAT     H162477   4.149   6.473   8.522
20745WAT     H262478   4.053   6.604   8.534
20746WAT      O62479   6.818   3.302   1.888
20746WAT     H162480   6.804   3.203   1.884
20746WAT     H262481   6.902   3.326   1.840
20747WAT      O62482   8.968   5.488   4.985
20747WAT     H162483   8.959   5.586   4.967
20747WAT     H262484   9.015   5.474   5.073
20748WAT      O62485   6.138   4.854   6.924
20748WAT     H162486   6.238   4.848   6.926
20748WAT     H262487   6.102   4.829   7.014
20749WAT      O62488   3.201   8.800   2.910
20749WAT     H162489   3.282   8.846   2.873
20749WAT     H262490   3.134   8.786   2.837
20750WAT      O62491   7.284   8.402   6.706
20750WAT     H162492   7.251   8.496   6.699
20750WAT     H262493   7.332   8.378   6.622
20751WAT      O62494   6.447   0.941   3.187
20751WAT     H162495   6.485   1.033   3.198
20751WAT     H262496   6.482   0.882   3.260
20752WAT      O62497   1.654   0.598   5.059
20752WAT     H162498   1.587   0.613   5.131
20752WAT     H262499   1.670   0.499   5.049
20753WAT      O62500   0.295   7.046   2.386
20753WAT     H162501   0.264   7.031   2.292
20753WAT     H262502   0.282   6.962   2.439
20754WAT      O62503   4.914   2.932   2.528
20754WAT     H162504   4.859   2.957   2.608
20754WAT     H262505   4.855   2.926   2.448
20755WAT      O62506   0.566   4.168   3.692
20755WAT     H162507   0.524   4.258   3.685
20755WAT     H262508   0.510   4.101   3.643
20756WAT      O62509   7.688   4.483   3.985
20756WAT     H162510   7.715   4.579   3.989
20756WAT     H262511   7.596   4.473   4.021
20757WAT      O62512   0.401   0.202   0.549
20757WAT     H162513   0.301   0.211   0.551
20757WAT     H262514   0.425   0.107   0.530
20758WAT      O62515   5.035   7.110   6.614
20758WAT     H162516   4.963   7.101   6.683
20758WAT     H262517   5.058   7.207   6.601
20759WAT      O62518   1.966   4.912   4.784
20759WAT     H162519   1.880   4.861   4.787
20759WAT     H262520   2.033   4.867   4.842
20760WAT      O62521   3.610   5.549   4.513
20760WAT     H162522   3.529   5.516   4.464
20760WAT     H262523   3.666   5.471   4.539
20761WAT      O62524   8.473   0.976   0.275
20761WAT     H162525   8.373   0.985   0.281
20761WAT     H262526   8.496   0.909   0.205
20762WAT      O62527   5.476   2.640   0.110
20762WAT     H162528   5.567   2.676   0.092
20762WAT     H262529   5.438   2.684   0.191
20763WAT      O62530   3.267   5.804   0.477
20763WAT     H162531   3.203   5.758   0.416
20763WAT     H262532   3.220   5.879   0.524
20764WAT      O62533   4.311   8.857   0.049
20764WAT     H162534   4.361   8.781   0.089
20764WAT     H262535   4.303   8.931   0.116
20765WAT      O62536   5.600   0.304   8.134
20765WAT     H162537   5.548   0.321   8.218
20765WAT     H262538   5.540   0.315   8.055
20766WAT      O62539   7.497   4.345   5.645
20766WAT     H162540   7.585   4.321   5.604
20766WAT     H262541   7.457   4.423   5.596
20767WAT      O62542   2.705   6.060   9.038
20767WAT     H162543   2.619   6.104   9.063
20767WAT     H262544   2.687   5.995   8.964
20768WAT      O62545   0.992   5.020   2.735
20768WAT     H162546   0.930   4.972   2.797
20768WAT     H262547   0.992   5.118   2.757
20769WAT      O62548   1.510   0.935   1.016
20769WAT     H162549   1.486   0.949   0.920
20769WAT     H262550   1.604   0.965   1.032
20770WAT      O62551   2.260   8.311   8.228
20770WAT     H162552   2.266   8.336   8.324
20770WAT     H262553   2.172   8.340   8.191
20771WAT      O62554   5.232   4.741   6.994
20771WAT     H162555   5.246   4.686   6.913
20771WAT     H262556   5.236   4.683   7.076
20772WAT      O62557   8.854   2.745   9.309
20772WAT     H162558   8.902   2.816   9.361
20772WAT     H262559   8.919   2.674   9.282
20773WAT      O62560   8.688   9.253   4.979
20773WAT     H162561   8.742   9.199   5.043
20773WAT     H262562   8.643   9.192   4.913
20774WAT      O62563   9.084   4.379   4.010
20774WAT     H162564   9.119   4.355   4.101
20774WAT     H262565   9.146   4.342   3.940
20775WAT      O62566   1.780   9.138   9.019
20775WAT     H162567   1.710   9.092   8.964
20775WAT     H262568   1.737   9.203   9.081
20776WAT      O62569   7.852   4.414   9.047
20776WAT     H162570   7.873   4.480   9.118
20776WAT     H262571   7.760   4.431   9.011
20777WAT      O62572   2.804   0.462   9.063
20777WAT     H162573   2.841   0.415   8.983
20777WAT     H262574   2.712   0.428   9.082
20778WAT      O62575   4.609   9.372   3.111
20778WAT     H162576   4.656   9.447   3.157
20778WAT     H262577   4.627   9.286   3.158
20779WAT      O62578   1.334   5.593   9.371
20779WAT     H162579   1.302   5.580   9.277
20779WAT     H262580   1.419   5.646   9.371
20780WAT      O62581   3.233   0.172   0.022
20780WAT     H162582   3.180   0.222   0.090
20780WAT     H262583   3.187   0.085   0.001
20781WAT      O62584   9.399   6.373   1.425
20781WAT     H162585   9.490   6.339   1.449
20781WAT     H262586   9.403   6.472   1.411
20782WAT      O62587   7.017   9.050   6.176
20782WAT     H162588   7.023   8.979   6.106
20782WAT     H262589   6.969   9.014   6.256
20783WAT      O62590   4.715   1.086   9.106
20783WAT     H162591   4.740   1.133   9.191
20783WAT     H262592   4.708   0.987   9.124
20784WAT      O62593   0.606   4.655   8.480
20784WAT     H162594   0.586   4.587   8.551
20784WAT     H262595   0.608   4.610   8.391
20785WAT      O62596   5.270   5.497   1.651
20785WAT     H162597   5.173   5.501   1.624
20785WAT     H262598   5.276   5.489   1.751
20786WAT      O62599   5.889   3.209   7.054
20786WAT     H162600   5.808   3.263   7.029
20786WAT     H262601   5.971   3.263   7.035
20787WAT      O62602   4.489   0.820   8.010
20787WAT     H162603   4.396   0.857   8.012
20787WAT     H262604   4.555   0.894   8.022
20788WAT      O62605   5.578   4.333   4.823
20788WAT     H162606   5.510   4.283   4.769
20788WAT     H262607   5.616   4.272   4.892
20789WAT      O62608   8.901   7.395   5.459
20789WAT     H162609   8.852   7.354   5.535
20789WAT     H262610   8.835   7.429   5.391
20790WAT      O62611   0.390   3.023   8.545
20790WAT     H162612   0.347   2.938   8.577
20790WAT     H262613   0.436   3.068   8.621
20791WAT      O62614   3.916   2.446   8.694
20791WAT     H162615   3.913   2.482   8.787
20791WAT     H262616   3.972   2.506   8.637
20792WAT      O62617   2.624   1.125   6.579
20792WAT     H162618   2.532   1.090   6.559
20792WAT     H262619   2.616   1.208   6.633
20793WAT      O62620   8.178   4.659   6.837
20793WAT     H162621   8.136   4.575   6.871
20793WAT     H262622   8.241   4.695   6.906
20794WAT      O62623   6.282   4.189   2.479
20794WAT     H162624   6.259   4.286   2.473
20794WAT     H262625   6.336   4.173   2.561
20795WAT      O62626   8.730   9.055   0.702
20795WAT     H162627   8.666   9.009   0.763
20795WAT     H262628   8.804   9.095   0.756
20796WAT      O62629   1.625   0.412   7.695
20796WAT     H162630   1.550   0.459   7.741
20796WAT     H262631   1.687   0.373   7.763
20797WAT      O62632   9.417   9.108   7.504
20797WAT     H162633   9.414   9.165   7.422
20797WAT     H262634   9.338   9.130   7.562
20798WAT      O62635   9.762   2.120   7.570
20798WAT     H162636   9.750   2.029   7.529
20798WAT     H262637   9.674   2.151   7.606
20799WAT      O62638   3.679   4.977   5.625
20799WAT     H162639   3.602   4.967   5.562
20799WAT     H262640   3.645   4.973   5.719
20800WAT      O62641   2.215   2.430   0.445
20800WAT     H162642   2.243   2.422   0.541
20800WAT     H262643   2.182   2.342   0.412
20801WAT      O62644   0.578   5.945   5.893
20801WAT     H162645   0.589   5.899   5.806
20801WAT     H262646   0.487   5.927   5.930
20802WAT      O62647   2.439   0.170   5.809
20802WAT     H162648   2.401   0.115   5.883
20802WAT     H262649   2.511   0.119   5.762
20803WAT      O62650   2.951   1.717   1.393
20803WAT     H162651   3.025   1.732   1.328
20803WAT     H262652   2.984   1.660   1.468
20804WAT      O62653   8.822   6.956   2.506
20804WAT     H162654   8.752   6.938   2.437
20804WAT     H262655   8.794   7.035   2.562
20805WAT      O62656   6.176   2.952   6.923
20805WAT     H162657   6.147   2.891   6.849
20805WAT     H262658   6.270   2.930   6.950
20806WAT      O62659   0.817   8.629   7.992
20806WAT     H162660   0.886   8.612   8.062
20806WAT     H262661   0.804   8.546   7.938
20807WAT      O62662   3.455   8.349   8.388
20807WAT     H162663   3.488   8.306   8.304
20807WAT     H262664   3.382   8.413   8.365
20808WAT      O62665   2.139   8.618   9.293
20808WAT     H162666   2.150   8.536   9.349
20808WAT     H262667   2.145   8.699   9.352
20809WAT      O62668   9.486   1.177   6.687
20809WAT     H162669   9.571   1.215   6.723
20809WAT     H262670   9.496   1.079   6.673
20810WAT      O62671   2.276   0.940   2.702
20810WAT     H162672   2.367   0.902   2.685
20810WAT     H262673   2.215   0.867   2.732
20811WAT      O62674   5.584   6.190   5.627
20811WAT     H162675   5.538   6.209   5.714
20811WAT     H262676   5.626   6.275   5.592
20812WAT      O62677   9.746   6.703   7.589
20812WAT     H162678   9.694   6.789   7.586
20812WAT     H262679   9.683   6.626   7.578
20813WAT      O62680   8.007   0.990   5.817
20813WAT     H162681   8.054   0.909   5.852
20813WAT     H262682   7.963   1.038   5.893
20814WAT      O62683   1.588   5.409   0.538
20814WAT     H162684   1.529   5.484   0.569
20814WAT     H262685   1.607   5.418   0.441
20815WAT      O62686   6.793   3.906   6.547
20815WAT     H162687   6.799   3.812   6.514
20815WAT     H262688   6.882   3.935   6.582
20816WAT      O62689   9.223   5.766   1.981
20816WAT     H162690   9.152   5.770   2.052
20816WAT     H262691   9.243   5.670   1.960
20817WAT      O62692   2.318   9.194   1.847
20817WAT     H162693   2.293   9.285   1.814
20817WAT     H262694   2.242   9.154   1.899
20818WAT      O62695   7.844   6.084   8.382
20818WAT     H162696   7.912   6.100   8.454
20818WAT     H262697   7.809   5.991   8.389
20819WAT      O62698   9.294   4.703   5.010
20819WAT     H162699   9.216   4.762   5.030
20819WAT     H262700   9.322   4.716   4.915
20820WAT      O62701   1.365   7.315   2.777
20820WAT     H162702   1.440   7.382   2.779
20820WAT     H262703   1.283   7.359   2.742
20821WAT      O62704   3.590   7.720   9.226
20821WAT     H162705   3.633   7.789   9.285
20821WAT     H262706   3.602   7.746   9.130
20822WAT      O62707   9.236   1.277   0.644
20822WAT     H162708   9.271   1.298   0.735
20822WAT     H262709   9.303   1.223   0.594
20823WAT      O62710   7.047   0.624   2.860
20823WAT     H162711   7.040   0.641   2.761
20823WAT     H262712   7.140   0.593   2.881
20824WAT      O62713   5.401   9.762   8.961
20824WAT     H162714   5.304   9.758   8.985
20824WAT     H262715   5.426   9.681   8.908
20825WAT      O62716   2.916   2.121   8.833
20825WAT     H162717   2.930   2.199   8.894
20825WAT     H262718   2.856   2.148   8.758
20826WAT      O62719   8.307   3.665   2.466
20826WAT     H162720   8.364   3.657   2.384
20826WAT     H262721   8.363   3.693   2.543
20827WAT      O62722   6.933   2.444   1.670
20827WAT     H162723   6.890   2.368   1.717
20827WAT     H262724   7.023   2.462   1.710
20828WAT      O62725   0.531   4.931   2.329
20828WAT     H162726   0.592   4.863   2.370
20828WAT     H262727   0.439   4.921   2.367
20829WAT      O62728   1.791   1.552   1.268
20829WAT     H162729   1.759   1.516   1.355
20829WAT     H262730   1.714   1.590   1.217
20830WAT      O62731   7.679   7.116   0.750
20830WAT     H162732   7.586   7.128   0.784
20830WAT     H262733   7.744   7.157   0.814
20831WAT      O62734   1.797   1.112   6.125
20831WAT     H162735   1.734   1.106   6.048
20831WAT     H262736   1.750   1.086   6.209
20832WAT      O62737   3.218   6.089   1.055
20832WAT     H162738   3.231   6.046   0.966
20832WAT     H262739   3.221   6.019   1.127
20833WAT      O62740   8.672   8.486   8.571
20833WAT     H162741   8.592   8.454   8.621
20833WAT     H262742   8.745   8.509   8.635
20834WAT      O62743   7.998   0.724   2.704
20834WAT     H162744   7.948   0.658   2.761
20834WAT     H262745   7.935   0.764   2.636
20835WAT      O62746   9.528   6.361   3.043
20835WAT     H162747   9.584   6.278   3.035
20835WAT     H262748   9.466   6.367   2.965
20836WAT      O62749   2.531   5.068   4.939
20836WAT     H162750   2.434   5.086   4.925
20836WAT     H262751   2.543   4.979   4.984
20837WAT      O62752   5.023   4.227   3.101
20837WAT     H162753   5.026   4.327   3.113
20837WAT     H262754   5.056   4.182   3.184
20838WAT      O62755   1.289   1.076   7.583
20838WAT     H162756   1.353   1.144   7.548
20838WAT     H262757   1.234   1.040   7.507
20839WAT      O62758   0.453   9.172   5.564
20839WAT     H162759   0.422   9.211   5.651
20839WAT     H262760   0.548   9.141   5.575
20840WAT      O62761   1.876   3.359   4.923
20840WAT     H162762   1.968   3.368   4.962
20840WAT     H262763   1.873   3.280   4.862
20841WAT      O62764   7.612   1.417   3.574
20841WAT     H162765   7.619   1.517   3.575
20841WAT     H262766   7.585   1.385   3.664
20842WAT      O62767   5.785   0.484   2.731
20842WAT     H162768   5.693   0.517   2.710
20842WAT     H262769   5.849   0.561   2.728
20843WAT      O62770   2.284   8.948   8.939
20843WAT     H162771   2.191   8.984   8.935
20843WAT     H262772   2.303   8.895   8.857
20844WAT      O62773   7.198   2.169   3.458
20844WAT     H162774   7.263   2.105   3.417
20844WAT     H262775   7.158   2.226   3.385
20845WAT      O62776   0.444   6.874   4.173
20845WAT     H162777   0.509   6.947   4.196
20845WAT     H262778   0.354   6.897   4.211
20846WAT      O62779   1.569   6.015   0.390
20846WAT     H162780   1.631   6.085   0.356
20846WAT     H262781   1.483   6.018   0.338
20847WAT      O62782   0.700   0.880   0.557
20847WAT     H162783   0.612   0.922   0.533
20847WAT     H262784   0.772   0.949   0.549
20848WAT      O62785   9.205   4.657   3.644
20848WAT     H162786   9.283   4.608   3.607
20848WAT     H262787   9.236   4.744   3.684
20849WAT      O62788   8.947   4.573   6.399
20849WAT     H162789   9.031   4.616   6.433
20849WAT     H262790   8.935   4.483   6.442
20850WAT      O62791   3.394   1.719   6.935
20850WAT     H162792   3.296   1.738   6.939
20850WAT     H262793   3.444   1.796   6.973
20851WAT      O62794   5.465   6.341   9.295
20851WAT     H162795   5.548   6.384   9.332
20851WAT     H262796   5.408   6.410   9.251
20852WAT      O62797   9.008   1.036   1.484
20852WAT     H162798   9.056   0.970   1.427
20852WAT     H262799   8.983   1.116   1.430
20853WAT      O62800   0.899   1.247   6.727
20853WAT     H162801   0.821   1.214   6.674
20853WAT     H262802   0.941   1.325   6.680
20854WAT      O62803   6.187   2.024   8.733
20854WAT     H162804   6.149   2.062   8.649
20854WAT     H262805   6.168   1.926   8.737
20855WAT      O62806   7.399   2.982   6.352
20855WAT     H162807   7.333   2.997   6.278
20855WAT     H262808   7.491   3.003   6.319
20856WAT      O62809   8.557   3.808   6.079
20856WAT     H162810   8.484   3.759   6.032
20856WAT     H262811   8.518   3.869   6.148
20857WAT      O62812   5.679   9.222   9.393
20857WAT     H162813   5.634   9.271   9.318
20857WAT     H262814   5.751   9.280   9.432
20858WAT      O62815   6.950   1.963   4.757
20858WAT     H162816   6.973   1.979   4.662
20858WAT     H262817   6.902   2.043   4.794
20859WAT      O62818   9.838   6.097   3.399
20859WAT     H162819   9.800   6.019   3.448
20859WAT     H262820   9.854   6.172   3.463
20860WAT      O62821   8.544   2.631   4.121
20860WAT     H162822   8.622   2.568   4.123
20860WAT     H262823   8.575   2.724   4.138
20861WAT      O62824   2.218   2.777   1.902
20861WAT     H162825   2.213   2.695   1.844
20861WAT     H262826   2.180   2.755   1.993
20862WAT      O62827   3.737   7.547   4.173
20862WAT     H162828   3.712   7.460   4.130
20862WAT     H262829   3.661   7.612   4.163
20863WAT      O62830   0.152   5.982   6.025
20863WAT     H162831   0.087   6.018   5.957
20863WAT     H262832   0.116   5.997   6.117
20864WAT      O62833   2.594   4.988   0.660
20864WAT     H162834   2.582   4.897   0.699
20864WAT     H262835   2.526   5.003   0.588
20865WAT      O62836   5.119   0.051   7.408
20865WAT     H162837   5.073   0.125   7.358
20865WAT     H262838   5.067  -0.034   7.395
20866WAT      O62839   4.911   2.225   5.033
20866WAT     H162840   4.901   2.162   4.956
20866WAT     H262841   4.822   2.265   5.056
20867WAT      O62842   1.880   5.039   3.064
20867WAT     H162843   1.979   5.028   3.068
20867WAT     H262844   1.850   5.038   2.969
20868WAT      O62845   7.493   9.152   4.619
20868WAT     H162846   7.494   9.188   4.712
20868WAT     H262847   7.398   9.145   4.588
20869WAT      O62848   3.730   1.001   8.687
20869WAT     H162849   3.680   0.958   8.763
20869WAT     H262850   3.772   1.086   8.720
20870WAT      O62851   8.419   8.291   9.139
20870WAT     H162852   8.492   8.236   9.180
20870WAT     H262853   8.412   8.378   9.188
20871WAT      O62854   7.796   1.845   2.708
20871WAT     H162855   7.878   1.869   2.656
20871WAT     H262856   7.791   1.746   2.718
20872WAT      O62857   2.288   9.183   5.151
20872WAT     H162858   2.258   9.090   5.128
20872WAT     H262859   2.248   9.248   5.086
20873WAT      O62860   2.617   7.949   1.815
20873WAT     H162861   2.654   7.941   1.908
20873WAT     H262862   2.531   7.897   1.809
20874WAT      O62863   1.224   6.935   3.976
20874WAT     H162864   1.302   6.906   4.031
20874WAT     H262865   1.223   6.885   3.889
20875WAT      O62866   2.789   3.274   6.419
20875WAT     H162867   2.879   3.314   6.437
20875WAT     H262868   2.718   3.341   6.441
20876WAT      O62869   8.442   4.872   9.274
20876WAT     H162870   8.366   4.905   9.219
20876WAT     H262871   8.488   4.950   9.317
20877WAT      O62872   8.032   6.595   9.261
20877WAT     H162873   8.005   6.600   9.357
20877WAT     H262874   7.954   6.565   9.206
20878WAT      O62875   6.677   2.933   7.580
20878WAT     H162876   6.699   2.908   7.674
20878WAT     H262877   6.695   3.031   7.566
20879WAT      O62878   4.916   8.041   1.307
20879WAT     H162879   4.822   8.026   1.277
20879WAT     H262880   4.923   8.132   1.349
20880WAT      O62881   1.626   1.387   5.805
20880WAT     H162882   1.641   1.414   5.710
20880WAT     H262883   1.535   1.418   5.835
20881WAT      O62884   8.749   6.453   3.354
20881WAT     H162885   8.731   6.440   3.451
20881WAT     H262886   8.662   6.471   3.306
20882WAT      O62887   6.158   9.050   8.589
20882WAT     H162888   6.239   9.003   8.622
20882WAT     H262889   6.176   9.149   8.585
20883WAT      O62890   0.113   3.283   4.375
20883WAT     H162891   0.041   3.319   4.434
20883WAT     H262892   0.184   3.240   4.432
20884WAT      O62893   1.468   3.621   6.806
20884WAT     H162894   1.523   3.548   6.848
20884WAT     H262895   1.516   3.657   6.726
20885WAT      O62896   4.584   4.019   2.875
20885WAT     H162897   4.502   3.991   2.826
20885WAT     H262898   4.655   3.949   2.865
20886WAT      O62899   5.915   9.026   1.257
20886WAT     H162900   5.823   8.989   1.249
20886WAT     H262901   5.982   8.953   1.238
20887WAT      O62902   1.432   3.063   9.607
20887WAT     H162903   1.524   3.103   9.609
20887WAT     H262904   1.397   3.056   9.701
20888WAT      O62905   2.111   2.530   1.794
20888WAT     H162906   2.011   2.525   1.797
20888WAT     H262907   2.149   2.468   1.862
20889WAT      O62908   3.667   4.847   3.202
20889WAT     H162909   3.744   4.878   3.257
20889WAT     H262910   3.622   4.925   3.160
20890WAT      O62911   5.612   7.152   7.515
20890WAT     H162912   5.527   7.204   7.529
20890WAT     H262913   5.595   7.055   7.531
20891WAT      O62914   6.605   7.047   2.077
20891WAT     H162915   6.547   7.015   2.002
20891WAT     H262916   6.682   7.098   2.039
20892WAT      O62917   0.617   4.923   8.760
20892WAT     H162918   0.545   4.958   8.700
20892WAT     H262919   0.594   4.830   8.789
20893WAT      O62920   8.390   8.029   8.005
20893WAT     H162921   8.364   7.966   7.932
20893WAT     H262922   8.311   8.085   8.030
20894WAT      O62923   6.258   6.680   5.659
20894WAT     H162924   6.227   6.586   5.648
20894WAT     H262925   6.311   6.688   5.744
20895WAT      O62926   8.969   6.764   5.954
20895WAT     H162927   8.897   6.750   6.023
20895WAT     H262928   8.979   6.682   5.899
20896WAT      O62929   8.344   6.514   8.683
20896WAT     H162930   8.384   6.422   8.681
20896WAT     H262931   8.323   6.543   8.590
20897WAT      O62932   7.139   8.615   0.368
20897WAT     H162933   7.057   8.563   0.392
20897WAT     H262934   7.219   8.569   0.406
20898WAT      O62935   5.113   5.765   1.151
20898WAT     H162936   5.033   5.736   1.098
20898WAT     H262937   5.083   5.799   1.240
20899WAT      O62938   6.324   5.114   7.118
20899WAT     H162939   6.422   5.112   7.137
20899WAT     H262940   6.304   5.056   7.038
20900WAT      O62941   3.460   7.952   4.384
20900WAT     H162942   3.476   8.051   4.379
20900WAT     H262943   3.548   7.904   4.389
20901WAT      O62944   1.848   5.278   3.196
20901WAT     H162945   1.841   5.193   3.144
20901WAT     H262946   1.757   5.306   3.227
20902WAT      O62947   3.522   3.561   1.444
20902WAT     H162948   3.552   3.598   1.356
20902WAT     H262949   3.453   3.490   1.429
20903WAT      O62950   9.346   5.601   3.564
20903WAT     H162951   9.384   5.509   3.552
20903WAT     H262952   9.286   5.602   3.644
20904WAT      O62953   4.965   2.220   0.537
20904WAT     H162954   5.043   2.188   0.483
20904WAT     H262955   4.902   2.270   0.478
20905WAT      O62956   0.292   3.234   8.883
20905WAT     H162957   0.196   3.210   8.900
20905WAT     H262958   0.334   3.267   8.967
20906WAT      O62959   2.006   5.360   4.424
20906WAT     H162960   2.027   5.262   4.418
20906WAT     H262961   2.063   5.410   4.358
20907WAT      O62962   4.962   3.061   0.928
20907WAT     H162963   4.992   2.969   0.956
20907WAT     H262964   4.862   3.062   0.921
20908WAT      O62965   6.728   2.065   3.120
20908WAT     H162966   6.707   2.162   3.116
20908WAT     H262967   6.743   2.030   3.027
20909WAT      O62968   5.183   8.009   9.413
20909WAT     H162969   5.233   8.025   9.498
20909WAT     H262970   5.231   7.940   9.358
20910WAT      O62971   1.902   0.855   7.037
20910WAT     H162972   1.983   0.807   7.071
20910WAT     H262973   1.930   0.939   6.992
20911WAT      O62974   1.225   6.867   0.923
20911WAT     H162975   1.168   6.934   0.876
20911WAT     H262976   1.299   6.838   0.863
20912WAT      O62977   2.898   6.405   4.861
20912WAT     H162978   2.940   6.354   4.786
20912WAT     H262979   2.942   6.494   4.869
20913WAT      O62980   2.439   0.286   7.671
20913WAT     H162981   2.467   0.216   7.736
20913WAT     H262982   2.520   0.331   7.632
20914WAT      O62983   1.428   0.610   7.003
20914WAT     H162984   1.441   0.511   6.990
20914WAT     H262985   1.517   0.656   6.999
20915WAT      O62986   1.884   0.325   2.339
20915WAT     H162987   1.935   0.240   2.328
20915WAT     H262988   1.854   0.334   2.434
20916WAT      O62989   3.680   6.321   0.048
20916WAT     H162990   3.585   6.297   0.027
20916WAT     H262991   3.694   6.419   0.034
20917WAT      O62992   1.127   1.456   7.128
20917WAT     H162993   1.184   1.513   7.188
20917WAT     H262994   1.060   1.407   7.183
20918WAT      O62995   9.347   0.766   6.968
20918WAT     H162996   9.266   0.729   7.013
20918WAT     H262997   9.321   0.845   6.912
20919WAT      O62998   9.139   4.255   6.679
20919WAT     H162999   9.219   4.298   6.721
20919WAT     H263000   9.085   4.323   6.630
20920WAT      O63001   0.601   1.731   7.150
20920WAT     H163002   0.575   1.687   7.236
20920WAT     H263003   0.686   1.783   7.164
20921WAT      O63004   2.759   4.786   4.172
20921WAT     H163005   2.812   4.713   4.215
20921WAT     H263006   2.725   4.849   4.242
20922WAT      O63007   4.634   3.143   1.785
20922WAT     H163008   4.602   3.178   1.872
20922WAT     H263009   4.717   3.192   1.757
20923WAT      O63010   8.075   0.862   2.157
20923WAT     H163011   8.118   0.784   2.112
20923WAT     H263012   8.132   0.943   2.144
20924WAT      O63013   5.861   2.616   8.404
20924WAT     H163014   5.767   2.581   8.404
20924WAT     H263015   5.904   2.598   8.315
20925WAT      O63016   1.928   2.297   3.460
20925WAT     H163017   1.952   2.373   3.521
20925WAT     H263018   1.947   2.323   3.366
20926WAT      O63019   9.217   8.683   0.643
20926WAT     H163020   9.272   8.680   0.559
20926WAT     H263021   9.156   8.762   0.639
20927WAT      O63022   4.841   9.809   9.755
20927WAT     H163023   4.911   9.783   9.822
20927WAT     H263024   4.835   9.909   9.750
20928WAT      O63025   2.505   9.619   8.067
20928WAT     H163026   2.526   9.691   8.133
20928WAT     H263027   2.412   9.631   8.032
20929WAT      O63028   5.350   6.957   7.223
20929WAT     H163029   5.393   7.040   7.187
20929WAT     H263030   5.277   6.928   7.160
20930WAT      O63031   2.580   9.455   6.670
20930WAT     H163032   2.559   9.463   6.768
20930WAT     H263033   2.674   9.485   6.654
20931WAT      O63034   9.041   2.296   2.309
20931WAT     H163035   9.115   2.253   2.258
20931WAT     H263036   9.075   2.377   2.355
20932WAT      O63037   7.922   6.052   2.436
20932WAT     H163038   7.994   6.086   2.496
20932WAT     H263039   7.837   6.044   2.488
20933WAT      O63040   0.927   5.181   8.532
20933WAT     H163041   0.943   5.082   8.526
20933WAT     H263042   0.865   5.209   8.459
20934WAT      O63043   6.752   8.342   3.908
20934WAT     H163044   6.755   8.412   3.980
20934WAT     H263045   6.717   8.383   3.824
20935WAT      O63046   4.968   8.307   6.999
20935WAT     H163047   4.988   8.299   7.097
20935WAT     H263048   4.962   8.215   6.959
20936WAT      O63049   2.754   8.773   7.675
20936WAT     H163050   2.759   8.873   7.679
20936WAT     H263051   2.665   8.746   7.637
20937WAT      O63052   1.136   6.878   9.226
20937WAT     H163053   1.070   6.929   9.281
20937WAT     H263054   1.102   6.785   9.212
20938WAT      O63055   8.937   1.401   0.926
20938WAT     H163056   9.019   1.445   0.889
20938WAT     H263057   8.959   1.308   0.955
20939WAT      O63058   7.330   0.509   1.488
20939WAT     H163059   7.252   0.568   1.509
20939WAT     H263060   7.297   0.415   1.473
20940WAT      O63061   9.809   0.478   7.937
20940WAT     H163062   9.738   0.528   7.987
20940WAT     H263063   9.869   0.543   7.891
20941WAT      O63064   1.517   5.798   9.300
20941WAT     H163065   1.569   5.866   9.248
20941WAT     H263066   1.478   5.842   9.382
20942WAT      O63067   5.505   7.919   6.583
20942WAT     H163068   5.468   7.939   6.674
20942WAT     H263069   5.482   7.994   6.521
20943WAT      O63070   9.561   1.783   1.263
20943WAT     H163071   9.514   1.726   1.330
20943WAT     H263072   9.596   1.727   1.189
20944WAT      O63073   7.828   9.706   4.215
20944WAT     H163074   7.750   9.708   4.278
20944WAT     H263075   7.808   9.764   4.136
20945WAT      O63076   6.290   1.808   6.010
20945WAT     H163077   6.210   1.788   6.068
20945WAT     H263078   6.301   1.908   6.004
20946WAT      O63079   8.470   6.775   2.132
20946WAT     H163080   8.428   6.709   2.195
20946WAT     H263081   8.550   6.733   2.089
20947WAT      O63082   3.775   4.035   8.128
20947WAT     H163083   3.827   4.080   8.055
20947WAT     H263084   3.724   3.958   8.090
20948WAT      O63085   6.527   8.845   0.466
20948WAT     H163086   6.501   8.757   0.505
20948WAT     H263087   6.473   8.861   0.383
20949WAT      O63088   3.421   8.722   3.439
20949WAT     H163089   3.490   8.719   3.511
20949WAT     H263090   3.453   8.778   3.363
20950WAT      O63091   5.924   0.703   8.066
20950WAT     H163092   5.853   0.772   8.075
20950WAT     H263093   5.950   0.670   8.156
20951WAT      O63094   9.060   4.406   0.636
20951WAT     H163095   9.043   4.446   0.546
20951WAT     H263096   8.974   4.394   0.684
20952WAT      O63097   1.648   0.239   8.788
20952WAT     H163098   1.618   0.181   8.863
20952WAT     H263099   1.737   0.207   8.755
20953WAT      O63100   4.501   3.587   3.183
20953WAT     H163101   4.430   3.646   3.143
20953WAT     H263102   4.537   3.526   3.113
20954WAT      O63103   0.804   0.949   5.970
20954WAT     H163104   0.742   1.027   5.958
20954WAT     H263105   0.790   0.909   6.061
20955WAT      O63106   3.648   5.684   9.675
20955WAT     H163107   3.568   5.743   9.666
20955WAT     H263108   3.726   5.738   9.709
20956WAT      O63109   3.003   1.087   7.772
20956WAT     H163110   3.037   1.026   7.844
20956WAT     H263111   2.909   1.115   7.793
20957WAT      O63112   2.535   9.404   7.512
20957WAT     H163113   2.488   9.369   7.593
20957WAT     H263114   2.492   9.366   7.430
20958WAT      O63115   4.733   6.982   5.910
20958WAT     H163116   4.796   7.051   5.945
20958WAT     H263117   4.784   6.898   5.889
20959WAT      O63118   1.559   1.308   9.141
20959WAT     H163119   1.542   1.394   9.190
20959WAT     H263120   1.657   1.298   9.123
20960WAT      O63121   8.220   9.076   2.731
20960WAT     H163122   8.177   9.166   2.742
20960WAT     H263123   8.149   9.006   2.722
20961WAT      O63124   3.336   2.643   6.190
20961WAT     H163125   3.308   2.548   6.206
20961WAT     H263126   3.429   2.657   6.225
20962WAT      O63127   3.686   7.737   3.760
20962WAT     H163128   3.649   7.771   3.846
20962WAT     H263129   3.749   7.804   3.721
20963WAT      O63130   7.409   6.706   0.942
20963WAT     H163131   7.485   6.745   0.892
20963WAT     H263132   7.337   6.774   0.954
20964WAT      O63133   0.671   6.386   6.104
20964WAT     H163134   0.681   6.363   6.007
20964WAT     H263135   0.706   6.479   6.120
20965WAT      O63136   4.102   8.006   0.156
20965WAT     H163137   4.105   7.924   0.213
20965WAT     H263138   4.016   8.055   0.172
20966WAT      O63139   2.097   5.254   2.264
20966WAT     H163140   2.155   5.325   2.226
20966WAT     H263141   2.082   5.183   2.194
20967WAT      O63142   3.629   2.305   4.254
20967WAT     H163143   3.537   2.343   4.253
20967WAT     H263144   3.628   2.212   4.216
20968WAT      O63145   7.796   0.571   3.649
20968WAT     H163146   7.804   0.644   3.582
20968WAT     H263147   7.886   0.533   3.669
20969WAT      O63148   6.392   9.481   0.225
20969WAT     H163149   6.419   9.477   0.129
20969WAT     H263150   6.348   9.396   0.251
20970WAT      O63151   4.780   1.911   6.478
20970WAT     H163152   4.725   1.838   6.437
20970WAT     H263153   4.725   1.961   6.545
20971WAT      O63154   7.040   4.804   2.016
20971WAT     H163155   6.998   4.719   2.050
20971WAT     H263156   7.005   4.823   1.924
20972WAT      O63157   6.844   7.321   4.940
20972WAT     H163158   6.746   7.300   4.935
20972WAT     H263159   6.876   7.351   4.850
20973WAT      O63160   0.610   5.613   3.536
20973WAT     H163161   0.675   5.562   3.478
20973WAT     H263162   0.521   5.568   3.534
20974WAT      O63163   0.131   8.140   5.811
20974WAT     H163164   0.061   8.083   5.767
20974WAT     H263165   0.105   8.156   5.906
20975WAT      O63166   1.681   6.819   7.148
20975WAT     H163167   1.689   6.721   7.132
20975WAT     H263168   1.713   6.869   7.068
20976WAT      O63169   0.925   9.606   5.271
20976WAT     H163170   1.023   9.624   5.283
20976WAT     H263171   0.874   9.692   5.272
20977WAT      O63172   6.245   9.031   4.048
20977WAT     H163173   6.271   8.940   4.015
20977WAT     H263174   6.265   9.099   3.977
20978WAT      O63175   6.272   7.239   6.143
20978WAT     H163176   6.366   7.269   6.154
20978WAT     H263177   6.239   7.201   6.229
20979WAT      O63178   6.304   0.380   9.649
20979WAT     H163179   6.307   0.360   9.551
20979WAT     H263180   6.349   0.468   9.667
20980WAT      O63181   3.887   7.165   7.708
20980WAT     H163182   3.819   7.143   7.778
20980WAT     H263183   3.908   7.263   7.712
20981WAT      O63184   2.928   7.285   2.795
20981WAT     H163185   2.936   7.239   2.884
20981WAT     H263186   2.889   7.376   2.809
20982WAT      O63187   8.891   0.518   6.492
20982WAT     H163188   8.882   0.570   6.577
20982WAT     H263189   8.898   0.581   6.415
20983WAT      O63190   2.836   6.847   4.463
20983WAT     H163191   2.891   6.842   4.380
20983WAT     H263192   2.856   6.932   4.512
20984WAT      O63193   4.445   3.155   7.883
20984WAT     H163194   4.361   3.209   7.872
20984WAT     H263195   4.424   3.058   7.873
20985WAT      O63196   1.639   0.800   6.623
20985WAT     H163197   1.696   0.735   6.573
20985WAT     H263198   1.557   0.819   6.569
20986WAT      O63199   5.453   7.440   1.511
20986WAT     H163200   5.473   7.356   1.561
20986WAT     H263201   5.466   7.424   1.413
20987WAT      O63202   2.538   1.900   6.856
20987WAT     H163203   2.636   1.905   6.836
20987WAT     H263204   2.491   1.980   6.818
20988WAT      O63205   5.535   9.164   9.607
20988WAT     H163206   5.454   9.113   9.579
20988WAT     H263207   5.598   9.172   9.530
20989WAT      O63208   3.876   2.513   9.240
20989WAT     H163209   3.828   2.530   9.326
20989WAT     H263210   3.932   2.592   9.217
20990WAT      O63211   3.569   1.584   3.963
20990WAT     H163212   3.507   1.506   3.974
20990WAT     H263213   3.532   1.663   4.011
20991WAT      O63214   3.617   0.463   9.374
20991WAT     H163215   3.524   0.460   9.410
20991WAT     H263216   3.652   0.557   9.381
20992WAT      O63217   8.365   6.389   7.854
20992WAT     H163218   8.318   6.304   7.831
20992WAT     H263219   8.329   6.464   7.798
20993WAT      O63220   1.745   7.348   2.397
20993WAT     H163221   1.772   7.344   2.493
20993WAT     H263222   1.660   7.400   2.389
20994WAT      O63223   7.219   3.580   8.834
20994WAT     H163224   7.121   3.601   8.843
20994WAT     H263225   7.259   3.638   8.763
20995WAT      O63226   4.822   7.926   7.604
20995WAT     H163227   4.895   7.871   7.643
20995WAT     H263228   4.790   7.992   7.673
20996WAT      O63229   4.461   6.215   0.646
20996WAT     H163230   4.542   6.260   0.608
20996WAT     H263231   4.379   6.250   0.601
20997WAT      O63232   4.926   2.611   1.380
20997WAT     H163233   4.900   2.707   1.388
20997WAT     H263234   4.923   2.569   1.470
20998WAT      O63235   4.604   8.773   1.034
20998WAT     H163236   4.678   8.750   0.971
20998WAT     H263237   4.590   8.872   1.035
20999WAT      O63238   9.832   6.687   0.745
20999WAT     H163239   9.899   6.734   0.801
20999WAT     H263240   9.847   6.709   0.649
21000WAT      O63241   0.587   0.041   7.002
21000WAT     H163242   0.650   0.081   6.935
21000WAT     H263243   0.636   0.025   7.088
21001WAT      O63244   4.140   1.288   5.233
21001WAT     H163245   4.239   1.286   5.240
21001WAT     H263246   4.107   1.382   5.244
21002WAT      O63247   2.941   2.540   0.839
21002WAT     H163248   2.971   2.445   0.833
21002WAT     H263249   2.845   2.546   0.811
21003WAT      O63250   3.256   5.229   4.578
21003WAT     H163251   3.211   5.140   4.581
21003WAT     H263252   3.335   5.225   4.516
21004WAT      O63253   7.546   8.968   5.437
21004WAT     H163254   7.454   8.928   5.446
21004WAT     H263255   7.551   9.053   5.489
21005WAT      O63256   0.894   0.074   8.693
21005WAT     H163257   0.937   0.036   8.775
21005WAT     H263258   0.863  -0.001   8.635
21006WAT      O63259   7.293   0.918   4.016
21006WAT     H163260   7.378   0.971   4.020
21006WAT     H263261   7.227   0.966   3.960
21007WAT      O63262   0.485   1.161   2.215
21007WAT     H163263   0.579   1.170   2.247
21007WAT     H263264   0.485   1.128   2.120
21008WAT      O63265   6.141  -0.001   7.026
21008WAT     H163266   6.164   0.096   7.029
21008WAT     H263267   6.041  -0.012   7.033
21009WAT      O63268   7.538   7.539   1.179
21009WAT     H163269   7.513   7.455   1.226
21009WAT     H263270   7.473   7.558   1.106
21010WAT      O63271   0.346   6.855   5.630
21010WAT     H163272   0.329   6.868   5.532
21010WAT     H263273   0.328   6.760   5.655
21011WAT      O63274   3.551   7.247   0.994
21011WAT     H163275   3.496   7.310   1.049
21011WAT     H263276   3.555   7.279   0.899
21012WAT      O63277   1.083   7.727   3.526
21012WAT     H163278   1.073   7.715   3.427
21012WAT     H263279   1.148   7.660   3.561
21013WAT      O63280   1.141   3.291   4.707
21013WAT     H163281   1.095   3.291   4.618
21013WAT     H263282   1.078   3.261   4.778
21014WAT      O63283   8.614   2.503   8.662
21014WAT     H163284   8.701   2.459   8.640
21014WAT     H263285   8.550   2.488   8.587
21015WAT      O63286   5.935   4.118   2.647
21015WAT     H163287   5.859   4.073   2.694
21015WAT     H263288   5.899   4.190   2.588
21016WAT      O63289   6.664   3.452   8.901
21016WAT     H163290   6.686   3.458   8.998
21016WAT     H263291   6.744   3.476   8.846
21017WAT      O63292   0.127   4.272   5.076
21017WAT     H163293   0.133   4.226   5.165
21017WAT     H263294   0.218   4.281   5.037
21018WAT      O63295   3.322   7.105   4.034
21018WAT     H163296   3.410   7.058   4.027
21018WAT     H263297   3.319   7.159   4.118
21019WAT      O63298   0.255   1.035   2.638
21019WAT     H163299   0.190   0.981   2.692
21019WAT     H263300   0.245   1.132   2.661
21020WAT      O63301   3.817   9.615   1.690
21020WAT     H163302   3.719   9.610   1.708
21020WAT     H263303   3.832   9.630   1.592
21021WAT      O63304   2.772   8.964   7.998
21021WAT     H163305   2.819   8.958   8.086
21021WAT     H263306   2.811   9.038   7.943
21022WAT      O63307   2.663   9.826   5.756
21022WAT     H163308   2.661   9.751   5.822
21022WAT     H263309   2.693   9.791   5.667
21023WAT      O63310   3.635   6.123   9.177
21023WAT     H163311   3.705   6.190   9.201
21023WAT     H263312   3.561   6.169   9.128
21024WAT      O63313   0.596   4.880   3.020
21024WAT     H163314   0.507   4.846   2.990
21024WAT     H263315   0.611   4.854   3.115
21025WAT      O63316   0.897   0.663   9.290
21025WAT     H163317   0.908   0.690   9.195
21025WAT     H263318   0.983   0.628   9.326
21026WAT      O63319   8.474   5.269   5.366
21026WAT     H163320   8.386   5.249   5.321
21026WAT     H263321   8.457   5.302   5.459
21027WAT      O63322   9.570   0.391   7.279
21027WAT     H163323   9.525   0.352   7.360
21027WAT     H263324   9.503   0.439   7.223
21028WAT      O63325   1.632   7.001   2.616
21028WAT     H163326   1.689   7.023   2.695
21028WAT     H263327   1.540   7.036   2.630
21029WAT      O63328   3.622   3.640   6.340
21029WAT     H163329   3.569   3.688   6.410
21029WAT     H263330   3.638   3.701   6.263
21030WAT      O63331   5.379   8.152   2.176
21030WAT     H163332   5.428   8.064   2.178
21030WAT     H263333   5.317   8.158   2.254
21031WAT      O63334   9.511   3.892   1.627
21031WAT     H163335   9.605   3.915   1.649
21031WAT     H263336   9.504   3.868   1.530
21032WAT      O63337   8.353   5.874   8.288
21032WAT     H163338   8.418   5.870   8.364
21032WAT     H263339   8.402   5.866   8.201
21033WAT      O63340   7.541   3.031   6.634
21033WAT     H163341   7.507   3.112   6.588
21033WAT     H263342   7.465   2.983   6.678
21034WAT      O63343   7.487   9.231   3.981
21034WAT     H163344   7.432   9.312   3.961
21034WAT     H263345   7.529   9.242   4.071
21035WAT      O63346   4.336   7.762   3.799
21035WAT     H163347   4.360   7.807   3.885
21035WAT     H263348   4.279   7.683   3.819
21036WAT      O63349   4.424   8.998   6.982
21036WAT     H163350   4.491   8.976   7.053
21036WAT     H263351   4.427   8.928   6.910
21037WAT      O63352   8.847   0.309   4.234
21037WAT     H163353   8.930   0.357   4.261
21037WAT     H263354   8.823   0.333   4.140
21038WAT      O63355   9.050   9.466   1.295
21038WAT     H163356   9.100   9.414   1.364
21038WAT     H263357   8.964   9.418   1.273
21039WAT      O63358   6.542   0.822   1.204
21039WAT     H163359   6.491   0.822   1.290
21039WAT     H263360   6.552   0.916   1.171
21040WAT      O63361   8.423   9.543   2.050
21040WAT     H163362   8.506   9.590   2.080
21040WAT     H263363   8.347   9.608   2.048
21041WAT      O63364   2.989   7.032   9.280
21041WAT     H163365   2.948   7.016   9.370
21041WAT     H263366   3.000   6.945   9.233
21042WAT      O63367   5.029   6.206   7.768
21042WAT     H163368   5.054   6.245   7.680
21042WAT     H263369   5.111   6.196   7.825
21043WAT      O63370   0.855   1.426   4.008
21043WAT     H163371   0.928   1.371   4.047
21043WAT     H263372   0.772   1.415   4.062
21044WAT      O63373   5.292   6.595   8.815
21044WAT     H163374   5.353   6.595   8.894
21044WAT     H263375   5.346   6.592   8.731
21045WAT      O63376   5.397   0.376   2.327
21045WAT     H163377   5.330   0.449   2.338
21045WAT     H263378   5.484   0.413   2.295
21046WAT      O63379   5.714   4.736   8.681
21046WAT     H163380   5.628   4.697   8.715
21046WAT     H263381   5.697   4.828   8.645
21047WAT      O63382   9.310   1.897   3.736
21047WAT     H163383   9.315   1.865   3.831
21047WAT     H263384   9.215   1.918   3.713
21048WAT      O63385   2.549   1.056   6.251
21048WAT     H163386   2.624   0.990   6.261
21048WAT     H263387   2.462   1.007   6.243
21049WAT      O63388   1.017   9.271   8.722
21049WAT     H163389   0.924   9.259   8.687
21049WAT     H263390   1.068   9.330   8.660
21050WAT      O63391   1.934   7.962   6.380
21050WAT     H163392   1.963   7.884   6.436
21050WAT     H263393   1.870   7.930   6.310
21051WAT      O63394   1.563   9.632   4.720
21051WAT     H163395   1.617   9.647   4.637
21051WAT     H263396   1.524   9.540   4.718
21052WAT      O63397   4.628   5.474   6.461
21052WAT     H163398   4.641   5.485   6.560
21052WAT     H263399   4.531   5.467   6.440
21053WAT      O63400   7.038   6.480   2.370
21053WAT     H163401   7.062   6.456   2.464
21053WAT     H263402   7.038   6.398   2.313
21054WAT      O63403   1.830   2.427   6.232
21054WAT     H163404   1.837   2.360   6.158
21054WAT     H263405   1.893   2.502   6.214
21055WAT      O63406   2.362   7.320   8.297
21055WAT     H163407   2.434   7.253   8.280
21055WAT     H263408   2.389   7.380   8.373
21056WAT      O63409   5.595   2.985   2.438
21056WAT     H163410   5.532   3.045   2.487
21056WAT     H263411   5.636   3.035   2.362
21057WAT      O63412   4.005   4.158   9.063
21057WAT     H163413   3.978   4.192   8.973
21057WAT     H263414   4.076   4.218   9.102
21058WAT      O63415   8.256   9.466   0.510
21058WAT     H163416   8.216   9.476   0.600
21058WAT     H263417   8.353   9.488   0.514
21059WAT      O63418   2.379   8.233   5.787
21059WAT     H163419   2.395   8.327   5.816
21059WAT     H263420   2.287   8.205   5.815
21060WAT      O63421   5.562   4.939   2.402
21060WAT     H163422   5.576   4.841   2.383
21060WAT     H263423   5.635   4.972   2.461
21061WAT      O63424   2.495   3.071   6.483
21061WAT     H163425   2.494   3.091   6.385
21061WAT     H263426   2.518   3.154   6.533
21062WAT      O63427   2.128   5.257   3.290
21062WAT     H163428   2.134   5.166   3.249
21062WAT     H263429   2.034   5.290   3.286
21063WAT      O63430   3.303   7.559   3.773
21063WAT     H163431   3.321   7.639   3.831
21063WAT     H263432   3.324   7.581   3.678
21064WAT      O63433   6.606   4.982   7.431
21064WAT     H163434   6.642   4.889   7.430
21064WAT     H263435   6.614   5.023   7.341
21065WAT      O63436   4.380   8.627   2.073
21065WAT     H163437   4.477   8.634   2.095
21065WAT     H263438   4.345   8.718   2.052
21066WAT      O63439   8.913   7.363   4.362
21066WAT     H163440   8.940   7.314   4.445
21066WAT     H263441   8.818   7.341   4.340
21067WAT      O63442   8.165   4.791   7.326
21067WAT     H163443   8.174   4.746   7.237
21067WAT     H263444   8.224   4.745   7.393
21068WAT      O63445   0.532   8.572   0.682
21068WAT     H163446   0.580   8.581   0.769
21068WAT     H263447   0.580   8.506   0.625
21069WAT      O63448   4.364   3.859   2.795
21069WAT     H163449   4.339   3.790   2.863
21069WAT     H263450   4.406   3.814   2.716
21070WAT      O63451   6.991   7.303   7.420
21070WAT     H163452   7.022   7.363   7.493
21070WAT     H263453   7.052   7.312   7.341
21071WAT      O63454   4.651   7.040   3.592
21071WAT     H163455   4.558   7.054   3.559
21071WAT     H263456   4.715   7.053   3.516
21072WAT      O63457   6.491   3.309   7.501
21072WAT     H163458   6.475   3.324   7.404
21072WAT     H263459   6.408   3.273   7.543
21073WAT      O63460   2.590   7.288   5.156
21073WAT     H163461   2.564   7.383   5.141
21073WAT     H263462   2.542   7.252   5.236
21074WAT      O63463   4.585   6.381   7.360
21074WAT     H163464   4.568   6.362   7.457
21074WAT     H263465   4.679   6.356   7.338
21075WAT      O63466   3.918   6.877   6.256
21075WAT     H163467   3.978   6.957   6.258
21075WAT     H263468   3.910   6.844   6.162
21076WAT      O63469   1.712   5.158   6.664
21076WAT     H163470   1.706   5.150   6.764
21076WAT     H263471   1.749   5.248   6.641
21077WAT      O63472   7.995   9.555   2.527
21077WAT     H163473   7.930   9.479   2.532
21077WAT     H263474   7.962   9.631   2.583
21078WAT      O63475   4.774   1.075   3.712
21078WAT     H163476   4.693   1.122   3.745
21078WAT     H263477   4.840   1.065   3.786
21079WAT      O63478   4.019   6.248   4.164
21079WAT     H163479   4.054   6.303   4.239
21079WAT     H263480   3.954   6.181   4.199
21080WAT      O63481   7.665   7.569   2.076
21080WAT     H163482   7.569   7.572   2.051
21080WAT     H263483   7.702   7.477   2.059
21081WAT      O63484   5.106   9.188   9.692
21081WAT     H163485   5.068   9.243   9.618
21081WAT     H263486   5.088   9.232   9.780
21082WAT      O63487   1.583   1.144   5.496
21082WAT     H163488   1.673   1.164   5.534
21082WAT     H263489   1.545   1.227   5.455
21083WAT      O63490   8.612   4.066   6.848
21083WAT     H163491   8.615   4.109   6.938
21083WAT     H263492   8.517   4.065   6.815
21084WAT      O63493   1.030   2.243   5.549
21084WAT     H163494   0.985   2.323   5.510
21084WAT     H263495   1.107   2.273   5.606
21085WAT      O63496   2.369   0.895   8.189
21085WAT     H163497   2.403   0.970   8.133
21085WAT     H263498   2.427   0.884   8.269
21086WAT      O63499   3.190   2.457   6.882
21086WAT     H163500   3.106   2.453   6.828
21086WAT     H263501   3.256   2.392   6.845
21087WAT      O63502   9.131   5.741   5.563
21087WAT     H163503   9.227   5.720   5.582
21087WAT     H263504   9.081   5.656   5.543
21088WAT      O63505   6.700   7.562   4.137
21088WAT     H163506   6.637   7.636   4.114
21088WAT     H263507   6.768   7.595   4.202
21089WAT      O63508   0.006   3.640   4.176
21089WAT     H163509   0.084   3.642   4.237
21089WAT     H263510  -0.058   3.569   4.205
21090WAT      O63511   9.675   5.274   9.751
21090WAT     H163512   9.732   5.195   9.727
21090WAT     H263513   9.686   5.346   9.683
21091WAT      O63514   0.802   1.210   1.333
21091WAT     H163515   0.884   1.264   1.353
21091WAT     H263516   0.728   1.238   1.394
21092WAT      O63517   6.475   7.942   0.301
21092WAT     H163518   6.461   7.868   0.368
21092WAT     H263519   6.492   7.902   0.211
21093WAT      O63520   0.198   4.171   6.394
21093WAT     H163521   0.122   4.218   6.349
21093WAT     H263522   0.251   4.121   6.325
21094WAT      O63523   6.730   1.105   2.926
21094WAT     H163524   6.714   1.017   2.972
21094WAT     H263525   6.787   1.163   2.984
21095WAT      O63526   7.357   9.462   3.934
21095WAT     H163527   7.364   9.544   3.877
21095WAT     H263528   7.285   9.402   3.898
21096WAT      O63529   1.271   9.454   0.421
21096WAT     H163530   1.319   9.491   0.342
21096WAT     H263531   1.220   9.527   0.467
21097WAT      O63532   0.111   6.050   1.929
21097WAT     H163533   0.157   6.047   2.018
21097WAT     H263534   0.164   5.997   1.863
21098WAT      O63535   9.306   1.625   4.811
21098WAT     H163536   9.230   1.637   4.747
21098WAT     H263537   9.306   1.531   4.845
21099WAT      O63538   2.906   8.246   4.881
21099WAT     H163539   2.880   8.196   4.799
21099WAT     H263540   2.830   8.248   4.946
21100WAT      O63541   4.538   5.322   0.174
21100WAT     H163542   4.532   5.255   0.248
21100WAT     H263543   4.476   5.398   0.192
21101WAT      O63544   5.085   7.164   8.550
21101WAT     H163545   5.104   7.083   8.495
21101WAT     H263546   5.017   7.141   8.620
21102WAT      O63547   6.261   5.218   8.839
21102WAT     H163548   6.272   5.263   8.927
21102WAT     H263549   6.172   5.171   8.837
21103WAT      O63550   1.645   1.752   3.890
21103WAT     H163551   1.642   1.667   3.942
21103WAT     H263552   1.620   1.735   3.795
21104WAT      O63553   3.787   9.620   5.440
21104WAT     H163554   3.804   9.525   5.414
21104WAT     H263555   3.700   9.650   5.403
21105WAT      O63556   3.682   2.335   7.429
21105WAT     H163557   3.584   2.350   7.413
21105WAT     H263558   3.698   2.325   7.527
21106WAT      O63559   7.891   4.539   1.379
21106WAT     H163560   7.963   4.486   1.333
21106WAT     H263561   7.836   4.586   1.310
21107WAT      O63562   2.594   6.183   2.968
21107WAT     H163563   2.502   6.164   2.934
21107WAT     H263564   2.654   6.204   2.891
21108WAT      O63565   9.508   3.637   4.680
21108WAT     H163566   9.511   3.539   4.660
21108WAT     H263567   9.524   3.653   4.777
21109WAT      O63568   4.151   2.660   5.366
21109WAT     H163569   4.231   2.637   5.311
21109WAT     H263570   4.138   2.759   5.364
21110WAT      O63571   0.985   8.425   0.514
21110WAT     H163572   0.992   8.472   0.425
21110WAT     H263573   1.077   8.406   0.547
21111WAT      O63574   0.592   2.581   1.777
21111WAT     H163575   0.632   2.504   1.827
21111WAT     H263576   0.542   2.639   1.841
21112WAT      O63577   9.466   0.772   8.668
21112WAT     H163578   9.444   0.711   8.593
21112WAT     H263579   9.553   0.744   8.709
21113WAT      O63580   9.556   2.887   0.420
21113WAT     H163581   9.559   2.857   0.325
21113WAT     H263582   9.550   2.806   0.480
21114WAT      O63583   0.223   4.837   4.040
21114WAT     H163584   0.174   4.753   4.064
21114WAT     H263585   0.244   4.888   4.123
21115WAT      O63586   1.782   8.040   9.283
21115WAT     H163587   1.683   8.029   9.268
21115WAT     H263588   1.832   7.993   9.211
21116WAT      O63589   0.531   4.883   0.296
21116WAT     H163590   0.585   4.934   0.363
21116WAT     H263591   0.554   4.917   0.204
21117WAT      O63592   8.105   7.600   8.599
21117WAT     H163593   8.188   7.576   8.548
21117WAT     H263594   8.106   7.698   8.620
21118WAT      O63595   6.411   9.257   9.096
21118WAT     H163596   6.334   9.196   9.115
21118WAT     H263597   6.469   9.266   9.177
21119WAT      O63598   9.504   0.326   7.546
21119WAT     H163599   9.535   0.287   7.633
21119WAT     H263600   9.453   0.410   7.563
21120WAT      O63601   4.484   2.206   7.808
21120WAT     H163602   4.518   2.299   7.816
21120WAT     H263603   4.390   2.201   7.843
21121WAT      O63604   5.805   3.918   6.485
21121WAT     H163605   5.829   3.826   6.453
21121WAT     H263606   5.813   3.921   6.585
21122WAT      O63607   0.889   4.995   5.267
21122WAT     H163608   0.796   5.015   5.237
21122WAT     H263609   0.903   4.896   5.267
21123WAT      O63610   2.304   6.102   6.954
21123WAT     H163611   2.325   6.191   6.994
21123WAT     H263612   2.389   6.052   6.938
21124WAT      O63613   9.605   0.365   5.404
21124WAT     H163614   9.560   0.288   5.359
21124WAT     H263615   9.632   0.432   5.336
21125WAT      O63616   4.127   0.645   1.567
21125WAT     H163617   4.039   0.641   1.615
21125WAT     H263618   4.201   0.625   1.631
21126WAT      O63619   9.789   3.412   6.646
21126WAT     H163620   9.733   3.395   6.565
21126WAT     H263621   9.846   3.332   6.665
21127WAT      O63622   8.887   1.587   8.128
21127WAT     H163623   8.829   1.505   8.131
21127WAT     H263624   8.896   1.624   8.221
21128WAT      O63625   7.597   4.227   5.956
21128WAT     H163626   7.683   4.231   5.904
21128WAT     H263627   7.555   4.317   5.958
21129WAT      O63628   1.083   7.145   3.869
21129WAT     H163629   1.124   7.153   3.777
21129WAT     H263630   1.134   7.077   3.922
21130WAT      O63631   3.569   7.912   0.263
21130WAT     H163632   3.621   7.828   0.249
21130WAT     H263633   3.618   7.972   0.326
21131WAT      O63634   7.777   7.332   7.372
21131WAT     H163635   7.781   7.245   7.421
21131WAT     H263636   7.688   7.375   7.386
21132WAT      O63637   8.336   7.287   0.031
21132WAT     H163638   8.278   7.257  -0.045
21132WAT     H263639   8.290   7.267   0.117
21133WAT      O63640   5.595   3.964   9.306
21133WAT     H163641   5.591   3.879   9.254
21133WAT     H263642   5.529   4.030   9.269
21134WAT      O63643   9.155   4.183   7.016
21134WAT     H163644   9.171   4.221   6.925
21134WAT     H263645   9.240   4.143   7.050
21135WAT      O63646   7.175   0.196   9.526
21135WAT     H163647   7.096   0.232   9.576
21135WAT     H263648   7.254   0.255   9.539
21136WAT      O63649   0.108   0.940   3.440
21136WAT     H163650   0.188   0.883   3.455
21136WAT     H263651   0.049   0.898   3.370
21137WAT      O63652   9.384   7.072   7.334
21137WAT     H163653   9.462   7.013   7.355
21137WAT     H263654   9.403   7.124   7.251
21138WAT      O63655   5.651   2.427   8.761
21138WAT     H163656   5.585   2.379   8.703
21138WAT     H263657   5.736   2.374   8.766
21139WAT      O63658   2.559   6.987   5.051
21139WAT     H163659   2.532   7.084   5.052
21139WAT     H263660   2.537   6.946   5.140
21140WAT      O63661   8.593   5.601   4.274
21140WAT     H163662   8.674   5.600   4.332
21140WAT     H263663   8.550   5.511   4.274
21141WAT      O63664   9.363   1.419   6.972
21141WAT     H163665   9.434   1.394   7.037
21141WAT     H263666   9.289   1.351   6.975
21142WAT      O63667   0.391   7.787   7.744
21142WAT     H163668   0.344   7.703   7.771
21142WAT     H263669   0.343   7.866   7.784
21143WAT      O63670   0.023   5.507   2.631
21143WAT     H163671   0.091   5.468   2.693
21143WAT     H263672   0.066   5.578   2.575
21144WAT      O63673   0.015   5.182   5.311
21144WAT     H163674   0.051   5.150   5.399
21144WAT     H263675   0.089   5.219   5.256
21145WAT      O63676   3.839   6.139   2.064
21145WAT     H163677   3.783   6.215   2.096
21145WAT     H263678   3.863   6.153   1.968
21146WAT      O63679   5.036   1.439   5.437
21146WAT     H163680   5.036   1.497   5.519
21146WAT     H263681   5.126   1.441   5.394
21147WAT      O63682   3.490   5.625   7.455
21147WAT     H163683   3.418   5.590   7.395
21147WAT     H263684   3.486   5.725   7.456
21148WAT      O63685   0.145   0.012   6.443
21148WAT     H163686   0.077   0.052   6.505
21148WAT     H263687   0.196   0.086   6.398
21149WAT      O63688   9.835   5.408   1.072
21149WAT     H163689   9.795   5.390   1.162
21149WAT     H263690   9.792   5.349   1.004
21150WAT      O63691   1.675   6.844   8.455
21150WAT     H163692   1.747   6.774   8.458
21150WAT     H263693   1.599   6.811   8.399
21151WAT      O63694   9.887   9.775   5.162
21151WAT     H163695   9.923   9.735   5.246
21151WAT     H263696   9.850   9.866   5.181
21152WAT      O63697   5.627   7.640   7.846
21152WAT     H163698   5.579   7.706   7.788
21152WAT     H263699   5.593   7.548   7.827
21153WAT      O63700   2.177   7.243   8.494
21153WAT     H163701   2.098   7.182   8.483
21153WAT     H263702   2.234   7.238   8.412
21154WAT      O63703   2.432   5.998   5.223
21154WAT     H163704   2.438   5.903   5.194
21154WAT     H263705   2.496   6.015   5.298
21155WAT      O63706   2.073   4.858   5.357
21155WAT     H163707   2.066   4.766   5.317
21155WAT     H263708   2.143   4.910   5.308
21156WAT      O63709   3.838   0.536   6.570
21156WAT     H163710   3.872   0.464   6.510
21156WAT     H263711   3.785   0.495   6.644
21157WAT      O63712   5.273   1.237   7.158
21157WAT     H163713   5.178   1.268   7.165
21157WAT     H263714   5.280   1.170   7.083
21158WAT      O63715   9.407   1.068   9.594
21158WAT     H163716   9.316   1.088   9.557
21158WAT     H263717   9.397   1.030   9.686
21159WAT      O63718   5.746   0.048   1.624
21159WAT     H163719   5.698   0.135   1.637
21159WAT     H263720   5.769   0.037   1.527
21160WAT      O63721   1.812   6.332   3.666
21160WAT     H163722   1.847   6.327   3.760
21160WAT     H263723   1.886   6.312   3.602
21161WAT      O63724   3.835   5.199   6.191
21161WAT     H163725   3.902   5.173   6.260
21161WAT     H263726   3.753   5.235   6.235
21162WAT      O63727   7.700   7.558   7.972
21162WAT     H163728   7.676   7.655   7.977
21162WAT     H263729   7.643   7.512   7.904
21163WAT      O63730   1.049   0.901   0.149
21163WAT     H163731   1.139   0.930   0.115
21163WAT     H263732   1.046   0.801   0.153
21164WAT      O63733   8.586   7.529   2.303
21164WAT     H163734   8.616   7.621   2.328
21164WAT     H263735   8.522   7.495   2.373
21165WAT      O63736   7.261   4.672   1.845
21165WAT     H163737   7.328   4.618   1.793
21165WAT     H263738   7.204   4.611   1.900
21166WAT      O63739   4.415   9.576   9.390
21166WAT     H163740   4.424   9.477   9.379
21166WAT     H263741   4.319   9.601   9.394
21167WAT      O63742   9.674   9.639   0.883
21167WAT     H163743   9.729   9.674   0.808
21167WAT     H263744   9.602   9.705   0.905
21168WAT      O63745   9.661   1.852   1.970
21168WAT     H163746   9.616   1.859   2.059
21168WAT     H263747   9.715   1.934   1.953
21169WAT      O63748   0.336   4.042   6.177
21169WAT     H163749   0.406   3.971   6.170
21169WAT     H263750   0.304   4.067   6.086
21170WAT      O63751   7.864   3.380   6.210
21170WAT     H163752   7.952   3.419   6.181
21170WAT     H263753   7.801   3.453   6.234
21171WAT      O63754   9.742   7.688   8.910
21171WAT     H163755   9.733   7.599   8.955
21171WAT     H263756   9.750   7.675   8.812
21172WAT      O63757   3.998   8.996   6.827
21172WAT     H163758   3.906   9.031   6.807
21172WAT     H263759   3.990   8.920   6.891
21173WAT      O63760   9.807   8.623   0.023
21173WAT     H163761   9.836   8.616  -0.072
21173WAT     H263762   9.717   8.668   0.028
21174WAT      O63763   5.290   4.161   8.939
21174WAT     H163764   5.274   4.239   8.999
21174WAT     H263765   5.348   4.094   8.986
21175WAT      O63766   8.641   7.215   9.164
21175WAT     H163767   8.639   7.310   9.132
21175WAT     H263768   8.719   7.203   9.225
21176WAT      O63769   8.444   3.585   9.374
21176WAT     H163770   8.542   3.602   9.377
21176WAT     H263771   8.395   3.657   9.422
21177WAT      O63772   7.077   3.859   1.604
21177WAT     H163773   6.979   3.878   1.609
21177WAT     H263774   7.094   3.763   1.626
21178WAT      O63775   7.985   4.962   1.362
21178WAT     H163776   7.967   5.053   1.398
21178WAT     H263777   8.032   4.970   1.274
21179WAT      O63778   1.378   9.385   1.628
21179WAT     H163779   1.473   9.409   1.651
21179WAT     H263780   1.316   9.437   1.687
21180WAT      O63781   8.720   1.913   0.387
21180WAT     H163782   8.779   1.933   0.465
21180WAT     H263783   8.767   1.935   0.302
21181WAT      O63784   4.243   6.803   7.477
21181WAT     H163785   4.276   6.714   7.446
21181WAT     H263786   4.159   6.826   7.429
21182WAT      O63787   1.207   4.907   0.742
21182WAT     H163788   1.160   4.819   0.753
21182WAT     H263789   1.144   4.981   0.765
21183WAT      O63790   8.877   5.361   0.389
21183WAT     H163791   8.880   5.454   0.352
21183WAT     H263792   8.952   5.348   0.454
21184WAT      O63793   9.452   5.036   6.912
21184WAT     H163794   9.388   5.111   6.895
21184WAT     H263795   9.448   5.011   7.009
21185WAT      O63796   4.983   1.007   2.426
21185WAT     H163797   5.028   1.048   2.345
21185WAT     H263798   5.034   1.034   2.508
21186WAT      O63799   4.935   4.066   7.091
21186WAT     H163800   4.951   4.084   7.188
21186WAT     H263801   4.883   3.982   7.081
21187WAT      O63802   1.505   3.320   3.578
21187WAT     H163803   1.573   3.368   3.522
21187WAT     H263804   1.551   3.270   3.650
21188WAT      O63805   6.490   1.035   1.661
21188WAT     H163806   6.588   1.053   1.659
21188WAT     H263807   6.474   0.937   1.675
21189WAT      O63808   0.423   3.012   2.833
21189WAT     H163809   0.447   2.936   2.893
21189WAT     H263810   0.431   3.098   2.883
21190WAT      O63811   2.004   4.660   3.291
21190WAT     H163812   1.921   4.708   3.262
21190WAT     H263813   2.002   4.567   3.256
21191WAT      O63814   1.347   2.184   9.541
21191WAT     H163815   1.426   2.245   9.531
21191WAT     H263816   1.348   2.116   9.468
21192WAT      O63817   4.348   8.783   5.190
21192WAT     H163818   4.288   8.860   5.168
21192WAT     H263819   4.333   8.754   5.285
21193WAT      O63820   6.296   1.522   6.274
21193WAT     H163821   6.199   1.519   6.296
21193WAT     H263822   6.309   1.501   6.177
21194WAT      O63823   3.387   1.991   8.117
21194WAT     H163824   3.357   2.080   8.082
21194WAT     H263825   3.392   1.926   8.042
21195WAT      O63826   9.206   7.851   2.451
21195WAT     H163827   9.229   7.946   2.467
21195WAT     H263828   9.283   7.804   2.408
21196WAT      O63829   4.828   3.952   9.424
21196WAT     H163830   4.823   3.901   9.338
21196WAT     H263831   4.887   4.032   9.413
21197WAT      O63832   6.806   0.997   8.539
21197WAT     H163833   6.761   0.927   8.594
21197WAT     H263834   6.873   1.046   8.594
21198WAT      O63835   8.977   5.897   3.209
21198WAT     H163836   8.930   5.953   3.141
21198WAT     H263837   9.030   5.826   3.163
21199WAT      O63838   1.453   7.023   3.379
21199WAT     H163839   1.500   6.953   3.433
21199WAT     H263840   1.371   6.984   3.338
21200WAT      O63841   7.220   7.456   4.766
21200WAT     H163842   7.125   7.487   4.774
21200WAT     H263843   7.265   7.462   4.855
21201WAT      O63844   0.897   1.113   0.141
21201WAT     H163845   0.975   1.056   0.118
21201WAT     H263846   0.814   1.057   0.144
21202WAT      O63847   3.802   6.740   6.474
21202WAT     H163848   3.818   6.769   6.380
21202WAT     H263849   3.868   6.670   6.500
21203WAT      O63850   7.164   9.292   7.051
21203WAT     H163851   7.236   9.297   7.120
21203WAT     H263852   7.092   9.358   7.072
21204WAT      O63853   7.416   7.002   6.106
21204WAT     H163854   7.475   7.048   6.040
21204WAT     H263855   7.443   7.027   6.199
21205WAT      O63856   0.145   0.830   5.662
21205WAT     H163857   0.189   0.861   5.746
21205WAT     H263858   0.063   0.778   5.684
21206WAT      O63859   2.710   6.600   2.774
21206WAT     H163860   2.641   6.527   2.769
21206WAT     H263861   2.745   6.618   2.683
21207WAT      O63862   0.948   5.192   1.050
21207WAT     H163863   0.875   5.180   0.984
21207WAT     H263864   0.992   5.280   1.036
21208WAT      O63865   4.532   2.588   3.649
21208WAT     H163866   4.495   2.604   3.741
21208WAT     H263867   4.575   2.672   3.616
21209WAT      O63868   5.005   7.289   3.780
21209WAT     H163869   4.907   7.272   3.791
21209WAT     H263870   5.025   7.383   3.807
21210WAT      O63871   4.805   4.579   6.312
21210WAT     H163872   4.751   4.554   6.232
21210WAT     H263873   4.852   4.499   6.348
21211WAT      O63874   1.237   6.806   2.117
21211WAT     H163875   1.170   6.845   2.181
21211WAT     H263876   1.320   6.781   2.168
21212WAT      O63877   1.928   5.633   5.601
21212WAT     H163878   1.995   5.574   5.557
21212WAT     H263879   1.868   5.673   5.532
21213WAT      O63880   7.900   5.830   1.292
21213WAT     H163881   7.923   5.887   1.371
21213WAT     H263882   7.815   5.862   1.251
21214WAT      O63883   2.773   2.196   1.696
21214WAT     H163884   2.852   2.138   1.717
21214WAT     H263885   2.805   2.289   1.676
21215WAT      O63886   7.608   1.682   3.845
21215WAT     H163887   7.591   1.584   3.849
21215WAT     H263888   7.613   1.711   3.749
21216WAT      O63889   2.817   2.182   3.633
21216WAT     H163890   2.863   2.118   3.694
21216WAT     H263891   2.796   2.266   3.683
21217WAT      O63892   9.036   8.521   9.623
21217WAT     H163893   9.026   8.442   9.563
21217WAT     H263894   9.129   8.556   9.617
21218WAT      O63895   5.341   0.105   1.887
21218WAT     H163896   5.410   0.050   1.934
21218WAT     H263897   5.249   0.070   1.910
21219WAT      O63898   3.470   2.381   5.122
21219WAT     H163899   3.529   2.348   5.048
21219WAT     H263900   3.519   2.375   5.209
21220WAT      O63901   1.443   2.860   0.125
21220WAT     H163902   1.415   2.950   0.091
21220WAT     H263903   1.538   2.843   0.098
21221WAT      O63904   5.932   7.991   1.321
21221WAT     H163905   5.880   7.961   1.401
21221WAT     H263906   6.023   8.020   1.349
21222WAT      O63907   8.118   9.803   5.086
21222WAT     H163908   8.193   9.763   5.138
21222WAT     H263909   8.095   9.743   5.009
21223WAT      O63910   5.855   7.447   1.320
21223WAT     H163911   5.801   7.396   1.386
21223WAT     H263912   5.817   7.539   1.311
21224WAT      O63913   6.888   2.880   4.542
21224WAT     H163914   6.843   2.791   4.554
21224WAT     H263915   6.951   2.897   4.618
21225WAT      O63916   7.105   6.538   1.840
21225WAT     H163917   7.027   6.597   1.859
21225WAT     H263918   7.107   6.516   1.742
21226WAT      O63919   0.585   3.316   8.224
21226WAT     H163920   0.525   3.320   8.304
21226WAT     H263921   0.623   3.407   8.207
21227WAT      O63922   1.324   7.416   8.785
21227WAT     H163923   1.380   7.489   8.823
21227WAT     H263924   1.349   7.329   8.826
21228WAT      O63925   0.032   6.493   5.777
21228WAT     H163926  -0.052   6.520   5.731
21228WAT     H263927   0.027   6.517   5.874
21229WAT      O63928   6.216   4.295   1.571
21229WAT     H163929   6.246   4.289   1.476
21229WAT     H263930   6.279   4.243   1.629
21230WAT      O63931   9.817   0.080   0.252
21230WAT     H163932   9.750   0.131   0.198
21230WAT     H263933   9.902   0.132   0.259
21231WAT      O63934   6.474   4.147   9.040
21231WAT     H163935   6.488   4.049   9.052
21231WAT     H263936   6.561   4.195   9.047
21232WAT      O63937   6.092   1.777   1.525
21232WAT     H163938   6.077   1.679   1.536
21232WAT     H263939   6.007   1.825   1.549
21233WAT      O63940   4.391   4.807   4.196
21233WAT     H163941   4.332   4.806   4.277
21233WAT     H263942   4.335   4.825   4.114
21234WAT      O63943   3.523   6.465   1.789
21234WAT     H163944   3.436   6.456   1.741
21234WAT     H263945   3.544   6.562   1.802
21235WAT      O63946   5.464   1.332   1.152
21235WAT     H163947   5.543   1.367   1.202
21235WAT     H263948   5.466   1.366   1.058
21236WAT      O63949   5.450   9.801   4.807
21236WAT     H163950   5.520   9.860   4.766
21236WAT     H263951   5.368   9.855   4.826
21237WAT      O63952   4.367   7.245   4.977
21237WAT     H163953   4.434   7.318   4.965
21237WAT     H263954   4.289   7.279   5.029
21238WAT      O63955   0.555   2.992   0.923
21238WAT     H163956   0.528   3.087   0.942
21238WAT     H263957   0.541   2.937   1.005
21239WAT      O63958   8.038   6.500   6.356
21239WAT     H163959   7.953   6.447   6.350
21239WAT     H263960   8.109   6.446   6.400
21240WAT      O63961   1.945   7.394   9.326
21240WAT     H163962   2.014   7.325   9.348
21240WAT     H263963   1.980   7.454   9.254
21241WAT      O63964   0.201   9.323   8.710
21241WAT     H163965   0.264   9.395   8.683
21241WAT     H263966   0.159   9.283   8.628
21242WAT      O63967   9.804   9.801   1.077
21242WAT     H163968   9.889   9.846   1.049
21242WAT     H263969   9.776   9.736   1.005
21243WAT      O63970   3.317   6.044   8.891
21243WAT     H163971   3.385   5.975   8.915
21243WAT     H263972   3.364   6.125   8.856
21244WAT      O63973   3.833   1.174   3.760
21244WAT     H163974   3.801   1.216   3.845
21244WAT     H263975   3.813   1.076   3.761
21245WAT      O63976   7.945   9.812   2.640
21245WAT     H163977   8.019   9.872   2.609
21245WAT     H263978   7.884   9.863   2.701
21246WAT      O63979   5.205   5.164   7.262
21246WAT     H163980   5.165   5.162   7.353
21246WAT     H263981   5.177   5.247   7.214
21247WAT      O63982   0.043   0.546   3.413
21247WAT     H163983   0.137   0.515   3.418
21247WAT     H263984  -0.005   0.498   3.339
21248WAT      O63985   6.425   4.503   5.919
21248WAT     H163986   6.501   4.535   5.863
21248WAT     H263987   6.339   4.522   5.872
21249WAT      O63988   1.013   1.192   4.075
21249WAT     H163989   1.043   1.187   4.171
21249WAT     H263990   1.067   1.261   4.027
21250WAT      O63991   0.814   0.122   1.052
21250WAT     H163992   0.759   0.202   1.076
21250WAT     H263993   0.854   0.082   1.134
21251WAT      O63994   0.993   0.980   6.854
21251WAT     H163995   1.090   0.960   6.870
21251WAT     H263996   0.984   1.076   6.825
21252WAT      O63997   5.002   6.849   6.859
21252WAT     H163998   4.932   6.784   6.890
21252WAT     H263999   4.959   6.918   6.800
21253WAT      O64000   3.489   8.838   9.745
21253WAT     H164001   3.428   8.817   9.820
21253WAT     H264002   3.558   8.766   9.737
21254WAT      O64003   6.681   3.977   0.875
21254WAT     H164004   6.644   3.885   0.860
21254WAT     H264005   6.776   3.980   0.841
21255WAT      O64006   1.563   8.522   6.169
21255WAT     H164007   1.630   8.585   6.129
21255WAT     H264008   1.479   8.523   6.114
21256WAT      O64009   9.281   5.517   2.718
21256WAT     H164010   9.262   5.608   2.756
21256WAT     H264011   9.326   5.527   2.630
21257WAT      O64012   7.857   9.613   1.444
21257WAT     H164013   7.880   9.710   1.435
21257WAT     H264014   7.799   9.584   1.368
21258WAT      O64015   2.870   2.769   6.824
21258WAT     H164016   2.969   2.784   6.834
21258WAT     H264017   2.826   2.784   6.913
21259WAT      O64018   2.005   7.895   5.704
21259WAT     H164019   1.976   7.870   5.612
21259WAT     H264020   2.093   7.851   5.724
21260WAT      O64021   3.911   5.057   8.801
21260WAT     H164022   3.854   5.075   8.881
21260WAT     H264023   3.941   5.143   8.761
21261WAT      O64024   7.100   8.545   3.820
21261WAT     H164025   7.015   8.592   3.795
21261WAT     H264026   7.079   8.449   3.842
21262WAT      O64027   2.208   0.184   8.097
21262WAT     H164028   2.249   0.103   8.054
21262WAT     H264029   2.232   0.187   8.194
21263WAT      O64030   0.265   4.929   8.038
21263WAT     H164031   0.320   4.847   8.025
21263WAT     H264032   0.311   4.990   8.104
21264WAT      O64033   9.014   9.375   7.803
21264WAT     H164034   9.041   9.398   7.897
21264WAT     H264035   8.939   9.310   7.805
21265WAT      O64036   8.415   6.252   8.730
21265WAT     H164037   8.500   6.228   8.684
21265WAT     H264038   8.356   6.171   8.734
21266WAT      O64039   1.557   3.342   9.080
21266WAT     H164040   1.622   3.299   9.017
21266WAT     H264041   1.592   3.431   9.109
21267WAT      O64042   5.428   0.095   2.404
21267WAT     H164043   5.350   0.091   2.467
21267WAT     H264044   5.441   0.190   2.375
21268WAT      O64045   8.238   8.363   1.383
21268WAT     H164046   8.254   8.334   1.289
21268WAT     H264047   8.194   8.289   1.434
21269WAT      O64048   2.456   4.605   0.308
21269WAT     H164049   2.522   4.678   0.293
21269WAT     H264050   2.373   4.623   0.255
21270WAT      O64051   0.339   5.783   0.579
21270WAT     H164052   0.341   5.877   0.615
21270WAT     H264053   0.407   5.727   0.626
21271WAT      O64054   0.566   5.705   2.448
21271WAT     H164055   0.646   5.645   2.449
21271WAT     H264056   0.526   5.708   2.540
21272WAT      O64057   1.100   2.359   8.301
21272WAT     H164058   1.165   2.290   8.332
21272WAT     H264059   1.083   2.425   8.374
21273WAT      O64060   3.525   8.320   1.675
21273WAT     H164061   3.560   8.391   1.614
21273WAT     H264062   3.506   8.237   1.623
21274WAT      O64063   9.409   6.135   8.681
21274WAT     H164064   9.459   6.172   8.603
21274WAT     H264065   9.386   6.208   8.744
21275WAT      O64066   6.567   6.132   4.939
21275WAT     H164067   6.603   6.083   5.018
21275WAT     H264068   6.477   6.095   4.915
21276WAT      O64069   1.816   2.137   2.732
21276WAT     H164070   1.845   2.232   2.718
21276WAT     H264071   1.744   2.134   2.802
21277WAT      O64072   2.046   1.018   1.903
21277WAT     H164073   1.977   0.963   1.950
21277WAT     H264074   2.057   1.105   1.950
21278WAT      O64075   5.083   6.063   1.492
21278WAT     H164076   5.033   6.131   1.438
21278WAT     H264077   5.055   5.971   1.464
21279WAT      O64078   3.008   9.777   3.077
21279WAT     H164079   3.106   9.782   3.055
21279WAT     H264080   2.956   9.758   2.994
21280WAT      O64081   0.892   5.492   8.068
21280WAT     H164082   0.882   5.525   8.162
21280WAT     H264083   0.854   5.560   8.005
21281WAT      O64084   6.078   3.231   1.712
21281WAT     H164085   6.117   3.243   1.620
21281WAT     H264086   6.152   3.232   1.779
21282WAT      O64087   5.164   6.906   8.440
21282WAT     H164088   5.082   6.853   8.460
21282WAT     H264089   5.244   6.857   8.473
21283WAT      O64090   4.491   6.556   7.180
21283WAT     H164091   4.556   6.564   7.104
21283WAT     H264092   4.520   6.482   7.241
21284WAT      O64093   6.385   7.993   5.078
21284WAT     H164094   6.304   7.968   5.024
21284WAT     H264095   6.467   7.958   5.033
21285WAT      O64096   4.505   6.755   8.768
21285WAT     H164097   4.417   6.707   8.771
21285WAT     H264098   4.555   6.725   8.686
21286WAT      O64099   9.421   5.766   4.572
21286WAT     H164100   9.348   5.775   4.639
21286WAT     H264101   9.484   5.694   4.601
21287WAT      O64102   3.446   2.502   7.121
21287WAT     H164103   3.423   2.599   7.111
21287WAT     H264104   3.446   2.478   7.218
21288WAT      O64105   2.154   6.523   4.388
21288WAT     H164106   2.128   6.505   4.483
21288WAT     H264107   2.099   6.599   4.353
21289WAT      O64108   0.832   0.540   7.422
21289WAT     H164109   0.797   0.545   7.328
21289WAT     H264110   0.892   0.619   7.439
21290WAT      O64111   0.063   0.345   5.754
21290WAT     H164112  -0.027   0.302   5.767
21290WAT     H264113   0.052   0.429   5.700
21291WAT      O64114   0.480   4.790   5.006
21291WAT     H164115   0.474   4.792   4.906
21291WAT     H264116   0.411   4.727   5.042
21292WAT      O64117   1.638   9.344   7.826
21292WAT     H164118   1.582   9.336   7.744
21292WAT     H264119   1.677   9.254   7.849
21293WAT      O64120   3.438   8.674   4.923
21293WAT     H164121   3.453   8.768   4.893
21293WAT     H264122   3.508   8.649   4.989
21294WAT      O64123   7.853   0.379   8.352
21294WAT     H164124   7.784   0.307   8.350
21294WAT     H264125   7.865   0.412   8.445
21295WAT      O64126   6.803   4.285   0.332
21295WAT     H164127   6.779   4.204   0.385
21295WAT     H264128   6.765   4.366   0.377
21296WAT      O64129   9.454   6.532   3.809
21296WAT     H164130   9.541   6.538   3.858
21296WAT     H264131   9.400   6.615   3.828
21297WAT      O64132   4.417   9.545   6.528
21297WAT     H164133   4.400   9.640   6.557
21297WAT     H264134   4.485   9.504   6.589
21298WAT      O64135   5.466   6.008   7.524
21298WAT     H164136   5.376   5.987   7.485
21298WAT     H264137   5.460   6.006   7.624
21299WAT      O64138   0.961   3.858   9.077
21299WAT     H164139   1.050   3.904   9.074
21299WAT     H264140   0.904   3.900   9.148
21300WAT      O64141   5.222   6.227   3.175
21300WAT     H164142   5.246   6.324   3.163
21300WAT     H264143   5.178   6.194   3.092
21301WAT      O64144   6.495   4.785   5.588
21301WAT     H164145   6.445   4.701   5.569
21301WAT     H264146   6.571   4.766   5.650
21302WAT      O64147   4.838   4.707   6.699
21302WAT     H164148   4.774   4.742   6.631
21302WAT     H264149   4.879   4.783   6.749
21303WAT      O64150   4.417   1.383   4.567
21303WAT     H164151   4.349   1.398   4.496
21303WAT     H264152   4.373   1.382   4.657
21304WAT      O64153   8.095   8.741   6.404
21304WAT     H164154   8.102   8.782   6.495
21304WAT     H264155   8.176   8.764   6.350
21305WAT      O64156   0.326   3.222   9.295
21305WAT     H164157   0.350   3.244   9.200
21305WAT     H264158   0.242   3.168   9.296
21306WAT      O64159   6.199   9.243   2.859
21306WAT     H164160   6.145   9.237   2.775
21306WAT     H264161   6.139   9.267   2.935
21307WAT      O64162   8.950   2.163   4.852
21307WAT     H164163   8.909   2.241   4.805
21307WAT     H264164   9.040   2.144   4.812
21308WAT      O64165   7.408   1.388   9.796
21308WAT     H164166   7.450   1.298   9.804
21308WAT     H264167   7.431   1.429   9.708
21309WAT      O64168   8.761   6.107   5.293
21309WAT     H164169   8.771   6.046   5.214
21309WAT     H264170   8.681   6.166   5.280
21310WAT      O64171   0.661   3.448   9.279
21310WAT     H164172   0.686   3.432   9.375
21310WAT     H264173   0.738   3.488   9.231
21311WAT      O64174   0.373   2.826   1.693
21311WAT     H164175   0.301   2.771   1.650
21311WAT     H264176   0.333   2.891   1.757
21312WAT      O64177   5.202   1.235   5.058
21312WAT     H164178   5.224   1.143   5.025
21312WAT     H264179   5.277   1.297   5.036
21313WAT      O64180   1.209   9.099   7.384
21313WAT     H164181   1.178   9.010   7.417
21313WAT     H264182   1.156   9.124   7.303
21314WAT      O64183   7.788   8.287   0.296
21314WAT     H164184   7.855   8.298   0.369
21314WAT     H264185   7.764   8.190   0.287
21315WAT      O64186   9.553   9.398   0.887
21315WAT     H164187   9.602   9.483   0.865
21315WAT     H264188   9.457   9.419   0.905
21316WAT      O64189   0.808   5.023   5.893
21316WAT     H164190   0.894   4.973   5.886
21316WAT     H264191   0.735   4.958   5.916
21317WAT      O64192   7.019   8.407   3.416
21317WAT     H164193   7.078   8.456   3.481
21317WAT     H264194   6.984   8.323   3.458
21318WAT      O64195   6.530   7.098   6.790
21318WAT     H164196   6.605   7.087   6.856
21318WAT     H264197   6.502   7.008   6.757
21319WAT      O64198   7.288   4.349   1.286
21319WAT     H164199   7.367   4.294   1.258
21319WAT     H264200   7.309   4.446   1.271
21320WAT      O64201   3.678   5.820   1.732
21320WAT     H164202   3.691   5.727   1.766
21320WAT     H264203   3.765   5.856   1.700
21321WAT      O64204   9.668   9.276   0.687
21321WAT     H164205   9.751   9.228   0.715
21321WAT     H264206   9.624   9.317   0.767
21322WAT      O64207   5.235   3.935   2.488
21322WAT     H164208   5.158   3.983   2.447
21322WAT     H264209   5.267   3.863   2.427
21323WAT      O64210   4.577   2.875   5.011
21323WAT     H164211   4.674   2.896   5.024
21323WAT     H264212   4.537   2.943   4.950
21324WAT      O64213   7.867   3.273   2.790
21324WAT     H164214   7.788   3.216   2.814
21324WAT     H264215   7.904   3.244   2.702
21325WAT      O64216   7.631   6.903   3.137
21325WAT     H164217   7.585   6.990   3.156
21325WAT     H264218   7.677   6.908   3.049
21326WAT      O64219   9.204   7.105   8.425
21326WAT     H164220   9.215   7.099   8.325
21326WAT     H264221   9.277   7.163   8.462
21327WAT      O64222   9.595   6.240   2.316
21327WAT     H164223   9.693   6.259   2.313
21327WAT     H264224   9.548   6.315   2.364
21328WAT      O64225   6.398   6.384   3.569
21328WAT     H164226   6.426   6.472   3.529
21328WAT     H264227   6.323   6.346   3.516
21329WAT      O64228   3.202   3.842   3.907
21329WAT     H164229   3.285   3.814   3.859
21329WAT     H264230   3.129   3.857   3.842
21330WAT      O64231   2.634   0.180   4.230
21330WAT     H164232   2.713   0.134   4.272
21330WAT     H264233   2.635   0.276   4.255
21331WAT      O64234   0.780   9.040   2.153
21331WAT     H164235   0.768   9.060   2.250
21331WAT     H264236   0.833   9.113   2.110
21332WAT      O64237   0.528   8.761   6.080
21332WAT     H164238   0.579   8.677   6.061
21332WAT     H264239   0.562   8.801   6.165
21333WAT      O64240   5.478   2.075   4.029
21333WAT     H164241   5.396   2.018   4.039
21333WAT     H264242   5.484   2.139   4.105
21334WAT      O64243   1.503   4.629   9.336
21334WAT     H164244   1.593   4.671   9.320
21334WAT     H264245   1.455   4.680   9.407
21335WAT      O64246   2.039   7.756   1.081
21335WAT     H164247   2.127   7.797   1.057
21335WAT     H264248   2.034   7.663   1.044
21336WAT      O64249   0.408   5.632   2.668
21336WAT     H164250   0.342   5.701   2.639
21336WAT     H264251   0.431   5.646   2.764
21337WAT      O64252   7.282   7.462   9.334
21337WAT     H164253   7.223   7.524   9.282
21337WAT     H264254   7.240   7.372   9.338
21338WAT      O64255   7.198   8.567   1.420
21338WAT     H164256   7.291   8.546   1.450
21338WAT     H264257   7.149   8.616   1.492
21339WAT      O64258   0.525   7.533   7.193
21339WAT     H164259   0.561   7.598   7.260
21339WAT     H264260   0.561   7.554   7.102
21340WAT      O64261   5.544   3.952   3.248
21340WAT     H164262   5.637   3.945   3.211
21340WAT     H264263   5.496   4.027   3.202
21341WAT      O64264   7.958   4.449   1.941
21341WAT     H164265   7.996   4.442   1.849
21341WAT     H264266   7.971   4.362   1.989
21342WAT      O64267   5.973   8.726   6.526
21342WAT     H164268   5.883   8.726   6.482
21342WAT     H264269   6.044   8.739   6.457
21343WAT      O64270   2.199   8.784   8.726
21343WAT     H164271   2.104   8.763   8.746
21343WAT     H264272   2.247   8.701   8.698
21344WAT      O64273   6.751   7.092   8.177
21344WAT     H164274   6.776   7.003   8.216
21344WAT     H264275   6.737   7.083   8.079
21345WAT      O64276   0.997   3.628   4.285
21345WAT     H164277   1.005   3.690   4.208
21345WAT     H264278   1.049   3.544   4.267
21346WAT      O64279   6.566   8.649   4.603
21346WAT     H164280   6.539   8.687   4.691
21346WAT     H264281   6.544   8.551   4.602
21347WAT      O64282   6.766   9.136   8.761
21347WAT     H164283   6.855   9.171   8.733
21347WAT     H264284   6.719   9.204   8.817
21348WAT      O64285   9.026   2.962   9.369
21348WAT     H164286   9.048   2.980   9.273
21348WAT     H264287   9.013   3.048   9.418
21349WAT      O64288   9.557   8.475   0.639
21349WAT     H164289   9.612   8.404   0.595
21349WAT     H264290   9.465   8.440   0.656
21350WAT      O64291   8.839   5.189   5.143
21350WAT     H164292   8.777   5.249   5.092
21350WAT     H264293   8.830   5.096   5.109
21351WAT      O64294   6.183   2.664   0.971
21351WAT     H164295   6.142   2.754   0.955
21351WAT     H264296   6.283   2.672   0.970
21352WAT      O64297   3.404   2.842   5.432
21352WAT     H164298   3.420   2.762   5.375
21352WAT     H264299   3.456   2.835   5.516
21353WAT      O64300   5.281   8.392   8.750
21353WAT     H164301   5.322   8.405   8.840
21353WAT     H264302   5.352   8.401   8.679
21354WAT      O64303   7.548   8.473   1.009
21354WAT     H164304   7.511   8.540   1.073
21354WAT     H264305   7.566   8.517   0.921
21355WAT      O64306   8.796   3.780   8.364
21355WAT     H164307   8.846   3.818   8.442
21355WAT     H264308   8.772   3.685   8.383
21356WAT      O64309   7.795   6.829   7.938
21356WAT     H164310   7.717   6.800   7.994
21356WAT     H264311   7.799   6.929   7.936
21357WAT      O64312   0.557   8.556   2.288
21357WAT     H164313   0.632   8.575   2.351
21357WAT     H264314   0.592   8.513   2.205
21358WAT      O64315   6.809   5.697   9.704
21358WAT     H164316   6.844   5.603   9.702
21358WAT     H264317   6.739   5.705   9.776
21359WAT      O64318   8.627   2.692   8.474
21359WAT     H164319   8.546   2.740   8.507
21359WAT     H264320   8.676   2.652   8.551
21360WAT      O64321   3.778   0.568   5.174
21360WAT     H164322   3.759   0.555   5.077
21360WAT     H264323   3.691   0.570   5.225
21361WAT      O64324   2.170   2.850   3.832
21361WAT     H164325   2.228   2.865   3.911
21361WAT     H264326   2.226   2.851   3.749
21362WAT      O64327   9.573   1.518   6.806
21362WAT     H164328   9.646   1.451   6.797
21362WAT     H264329   9.504   1.484   6.870
21363WAT      O64330   8.334   8.590   4.186
21363WAT     H164331   8.352   8.600   4.088
21363WAT     H264332   8.421   8.574   4.233
21364WAT      O64333   9.348   5.693   4.210
21364WAT     H164334   9.418   5.757   4.179
21364WAT     H264335   9.259   5.740   4.212
21365WAT      O64336   8.097   2.985   7.421
21365WAT     H164337   8.088   3.085   7.422
21365WAT     H264338   8.103   2.951   7.515
21366WAT      O64339   2.889   1.821   3.102
21366WAT     H164340   2.862   1.909   3.061
21366WAT     H264341   2.807   1.774   3.136
21367WAT      O64342   4.261   0.321   9.580
21367WAT     H164343   4.275   0.368   9.493
21367WAT     H264344   4.166   0.331   9.608
21368WAT      O64345   6.130   7.238   7.796
21368WAT     H164346   6.036   7.269   7.783
21368WAT     H264347   6.132   7.139   7.806
21369WAT      O64348   0.233   3.231   6.075
21369WAT     H164349   0.223   3.205   5.979
21369WAT     H264350   0.246   3.148   6.130
21370WAT      O64351   8.431   0.436   3.729
21370WAT     H164352   8.417   0.529   3.763
21370WAT     H264353   8.411   0.370   3.802
21371WAT      O64354   3.245   6.686   6.091
21371WAT     H164355   3.266   6.775   6.130
21371WAT     H264356   3.315   6.660   6.025
21372WAT      O64357   4.557   6.687   3.172
21372WAT     H164358   4.643   6.648   3.203
21372WAT     H264359   4.486   6.616   3.171
21373WAT      O64360   0.391   5.149   9.086
21373WAT     H164361   0.396   5.238   9.042
21373WAT     H264362   0.368   5.160   9.182
21374WAT      O64363   9.429   9.146   9.274
21374WAT     H164364   9.369   9.139   9.195
21374WAT     H264365   9.515   9.189   9.247
21375WAT      O64366   8.751   8.572   6.310
21375WAT     H164367   8.697   8.506   6.362
21375WAT     H264368   8.845   8.574   6.343
21376WAT      O64369   4.132   8.096   5.160
21376WAT     H164370   4.192   8.016   5.160
21376WAT     H264371   4.187   8.179   5.153
21377WAT      O64372   1.270   8.876   3.534
21377WAT     H164373   1.220   8.863   3.620
21377WAT     H264374   1.205   8.895   3.460
21378WAT      O64375   6.851   1.182   7.440
21378WAT     H164376   6.905   1.221   7.515
21378WAT     H264377   6.858   1.241   7.360
21379WAT      O64378   8.883   0.145   3.443
21379WAT     H164379   8.923   0.206   3.374
21379WAT     H264380   8.797   0.184   3.476
21380WAT      O64381   5.507   3.466   9.771
21380WAT     H164382   5.568   3.483   9.693
21380WAT     H264383   5.436   3.536   9.774
21381WAT      O64384   0.049   1.192   2.112
21381WAT     H164385   0.009   1.253   2.181
21381WAT     H264386   0.052   1.099   2.147
21382WAT      O64387   8.329   6.587   6.087
21382WAT     H164388   8.300   6.491   6.090
21382WAT     H264389   8.263   6.640   6.033
21383WAT      O64390   7.119   4.873   8.249
21383WAT     H164391   7.213   4.858   8.217
21383WAT     H264392   7.060   4.800   8.214
21384WAT      O64393   1.131   5.971   4.053
21384WAT     H164394   1.066   6.027   4.002
21384WAT     H264395   1.085   5.888   4.086
21385WAT      O64396   4.891   2.806   6.983
21385WAT     H164397   4.878   2.829   7.079
21385WAT     H264398   4.989   2.806   6.962
21386WAT      O64399   1.269   8.022   4.869
21386WAT     H164400   1.284   8.111   4.912
21386WAT     H264401   1.173   8.011   4.846
21387WAT      O64402   1.094   3.653   1.199
21387WAT     H164403   1.138   3.613   1.279
21387WAT     H264404   1.161   3.706   1.147
21388WAT      O64405   4.365   6.752   8.486
21388WAT     H164406   4.282   6.795   8.521
21388WAT     H264407   4.431   6.823   8.459
21389WAT      O64408   9.707   1.485   0.418
21389WAT     H164409   9.636   1.475   0.348
21389WAT     H264410   9.676   1.550   0.487
21390WAT      O64411   4.581   1.286   7.363
21390WAT     H164412   4.557   1.201   7.317
21390WAT     H264413   4.583   1.361   7.297
21391WAT      O64414   3.811   6.992   0.784
21391WAT     H164415   3.837   7.085   0.759
21391WAT     H264416   3.848   6.969   0.874
21392WAT      O64417   9.444   2.191   1.123
21392WAT     H164418   9.381   2.228   1.055
21392WAT     H264419   9.416   2.220   1.214
21393WAT      O64420   2.641   1.616   1.530
21393WAT     H164421   2.659   1.530   1.578
21393WAT     H264422   2.709   1.684   1.558
21394WAT      O64423   1.315   7.723   8.432
21394WAT     H164424   1.373   7.645   8.457
21394WAT     H264425   1.253   7.743   8.508
21395WAT      O64426   5.786   4.716   6.011
21395WAT     H164427   5.856   4.786   5.994
21395WAT     H264428   5.716   4.752   6.071
21396WAT      O64429   4.631   1.782   3.924
21396WAT     H164430   4.573   1.702   3.942
21396WAT     H264431   4.653   1.786   3.827
21397WAT      O64432   7.419   6.231   5.586
21397WAT     H164433   7.472   6.198   5.664
21397WAT     H264434   7.430   6.167   5.509
21398WAT      O64435   6.780   5.356   7.616
21398WAT     H164436   6.752   5.429   7.678
21398WAT     H264437   6.808   5.276   7.669
21399WAT      O64438   7.351   5.331   7.937
21399WAT     H164439   7.272   5.280   7.971
21399WAT     H264440   7.319   5.410   7.885
21400WAT      O64441   9.507   6.526   2.644
21400WAT     H164442   9.473   6.495   2.555
21400WAT     H264443   9.451   6.486   2.717
21401WAT      O64444   9.081   4.026   8.320
21401WAT     H164445   9.143   4.099   8.347
21401WAT     H264446   9.108   3.941   8.365
21402WAT      O64447   2.687   3.141   9.836
21402WAT     H164448   2.765   3.112   9.892
21402WAT     H264449   2.708   3.229   9.794
21403WAT      O64450   6.912   2.125   8.357
21403WAT     H164451   6.962   2.136   8.443
21403WAT     H264452   6.851   2.202   8.342
21404WAT      O64453   8.487   2.811   4.688
21404WAT     H164454   8.570   2.777   4.642
21404WAT     H264455   8.493   2.910   4.699
21405WAT      O64456   8.072   1.051   3.396
21405WAT     H164457   7.993   1.044   3.336
21405WAT     H264458   8.155   1.056   3.341
21406WAT      O64459   0.986   7.240   6.404
21406WAT     H164460   0.974   7.339   6.409
21406WAT     H264461   1.072   7.219   6.358
21407WAT      O64462   6.953   8.667   4.703
21407WAT     H164463   6.943   8.575   4.664
21407WAT     H264464   6.888   8.729   4.661
21408WAT      O64465   5.825   1.385   2.680
21408WAT     H164466   5.852   1.458   2.619
21408WAT     H264467   5.775   1.423   2.758
21409WAT      O64468   1.100   6.799   6.421
21409WAT     H164469   1.198   6.797   6.441
21409WAT     H264470   1.049   6.778   6.504
21410WAT      O64471   3.408   1.306   7.909
21410WAT     H164472   3.451   1.315   7.819
21410WAT     H264473   3.479   1.314   7.980
21411WAT      O64474   2.231   8.923   8.038
21411WAT     H164475   2.206   8.898   7.945
21411WAT     H264476   2.243   9.022   8.045
21412WAT      O64477   5.724   6.201   0.181
21412WAT     H164478   5.819   6.195   0.151
21412WAT     H264479   5.663   6.173   0.107
21413WAT      O64480   1.362   5.025   2.486
21413WAT     H164481   1.374   5.119   2.518
21413WAT     H264482   1.353   4.965   2.566
21414WAT      O64483   1.754   1.169   7.560
21414WAT     H164484   1.809   1.091   7.531
21414WAT     H264485   1.700   1.143   7.641
21415WAT      O64486   2.687   6.078   7.075
21415WAT     H164487   2.645   5.989   7.097
21415WAT     H264488   2.773   6.062   7.026
21416WAT      O64489   7.243   2.764   4.278
21416WAT     H164490   7.233   2.862   4.292
21416WAT     H264491   7.263   2.719   4.365
21417WAT      O64492   8.091   6.811   4.816
21417WAT     H164493   8.148   6.857   4.884
21417WAT     H264494   8.132   6.823   4.726
21418WAT      O64495   7.055   1.963   1.869
21418WAT     H164496   6.959   1.935   1.861
21418WAT     H264497   7.101   1.905   1.936
21419WAT      O64498   6.160   6.690   0.420
21419WAT     H164499   6.130   6.785   0.423
21419WAT     H264500   6.243   6.679   0.475
21420WAT      O64501   7.602   2.087   4.343
21420WAT     H164502   7.522   2.145   4.325
21420WAT     H264503   7.678   2.116   4.284
21421WAT      O64504   9.789   4.110   3.507
21421WAT     H164505   9.852   4.177   3.468
21421WAT     H264506   9.810   4.019   3.470
21422WAT      O64507   7.195   0.826   4.928
21422WAT     H164508   7.151   0.870   5.007
21422WAT     H264509   7.234   0.897   4.869
21423WAT      O64510   4.524   1.242   2.949
21423WAT     H164511   4.618   1.254   2.916
21423WAT     H264512   4.488   1.156   2.913
21424WAT      O64513   9.801   8.408   4.016
21424WAT     H164514   9.705   8.384   4.029
21424WAT     H264515   9.854   8.381   4.097
21425WAT      O64516   7.115   7.284   2.320
21425WAT     H164517   7.054   7.350   2.364
21425WAT     H264518   7.104   7.194   2.363
21426WAT      O64519   7.747   2.422   8.080
21426WAT     H164520   7.756   2.339   8.025
21426WAT     H264521   7.651   2.450   8.083
21427WAT      O64522   3.752   9.218   5.837
21427WAT     H164523   3.845   9.194   5.865
21427WAT     H264524   3.690   9.209   5.915
21428WAT      O64525   3.304   0.730   8.437
21428WAT     H164526   3.373   0.800   8.453
21428WAT     H264527   3.288   0.721   8.338
21429WAT      O64528   5.564   0.372   9.737
21429WAT     H164529   5.530   0.321   9.816
21429WAT     H264530   5.658   0.400   9.753
21430WAT      O64531   8.686   1.207   3.920
21430WAT     H164532   8.748   1.161   3.982
21430WAT     H264533   8.591   1.190   3.948
21431WAT      O64534   2.946   5.474   2.613
21431WAT     H164535   2.982   5.402   2.553
21431WAT     H264536   2.919   5.433   2.701
21432WAT      O64537   4.367   8.931   6.502
21432WAT     H164538   4.437   9.001   6.513
21432WAT     H264539   4.279   8.966   6.532
21433WAT      O64540   4.680   4.601   8.925
21433WAT     H164541   4.744   4.631   8.854
21433WAT     H264542   4.730   4.584   9.010
21434WAT      O64543   2.692   3.948   2.177
21434WAT     H164544   2.652   3.984   2.093
21434WAT     H264545   2.665   3.852   2.189
21435WAT      O64546   0.883   7.856   4.108
21435WAT     H164547   0.786   7.834   4.098
21435WAT     H264548   0.937   7.797   4.048
21436WAT      O64549   6.757   4.937   4.563
21436WAT     H164550   6.747   4.995   4.483
21436WAT     H264551   6.847   4.894   4.562
21437WAT      O64552   8.036   5.196   1.050
21437WAT     H164553   8.116   5.222   1.104
21437WAT     H264554   8.065   5.163   0.961
21438WAT      O64555   7.342   7.757   9.045
21438WAT     H164556   7.383   7.799   9.126
21438WAT     H264557   7.414   7.719   8.987
21439WAT      O64558   4.551   4.614   8.202
21439WAT     H164559   4.570   4.711   8.188
21439WAT     H264560   4.475   4.603   8.266
21440WAT      O64561   7.030   9.090   9.302
21440WAT     H164562   6.997   9.073   9.209
21440WAT     H264563   7.122   9.130   9.297
21441WAT      O64564   6.042   1.814   6.102
21441WAT     H164565   6.066   1.849   6.011
21441WAT     H264566   5.947   1.783   6.102
21442WAT      O64567   1.075   5.574   5.239
21442WAT     H164568   1.016   5.633   5.183
21442WAT     H264569   1.152   5.542   5.185
21443WAT      O64570   3.488   0.356   2.507
21443WAT     H164571   3.532   0.273   2.472
21443WAT     H264572   3.546   0.435   2.488
21444WAT      O64573   2.995   8.737   0.076
21444WAT     H164574   3.070   8.673   0.095
21444WAT     H264575   3.004   8.773  -0.016
21445WAT      O64576   4.274   9.848   5.437
21445WAT     H164577   4.180   9.816   5.429
21445WAT     H264578   4.336   9.769   5.437
21446WAT      O64579   8.277   6.749   3.207
21446WAT     H164580   8.209   6.678   3.228
21446WAT     H264581   8.290   6.753   3.108
21447WAT      O64582   6.037   2.639   9.316
21447WAT     H164583   5.954   2.658   9.369
21447WAT     H264584   6.043   2.542   9.296
21448WAT      O64585   5.900   4.944   8.472
21448WAT     H164586   5.812   4.942   8.519
21448WAT     H264587   5.887   4.918   8.376
21449WAT      O64588   3.441   4.581   0.129
21449WAT     H164589   3.423   4.644   0.053
21449WAT     H264590   3.385   4.499   0.118
21450WAT      O64591   5.203   9.816   6.067
21450WAT     H164592   5.265   9.861   6.004
21450WAT     H264593   5.200   9.867   6.153
21451WAT      O64594   9.166   8.103   5.044
21451WAT     H164595   9.179   8.014   5.087
21451WAT     H264596   9.073   8.136   5.063
21452WAT      O64597   5.547   0.661   1.044
21452WAT     H164598   5.613   0.731   1.071
21452WAT     H264599   5.461   0.705   1.019
21453WAT      O64600   3.842   0.765   6.315
21453WAT     H164601   3.883   0.732   6.230
21453WAT     H264602   3.851   0.695   6.386
21454WAT      O64603   6.133   2.694   1.628
21454WAT     H164604   6.103   2.781   1.588
21454WAT     H264605   6.227   2.704   1.661
21455WAT      O64606   6.259   8.911   9.873
21455WAT     H164607   6.288   8.921   9.778
21455WAT     H264608   6.163   8.938   9.881
21456WAT      O64609   0.716   0.932   4.237
21456WAT     H164610   0.796   0.874   4.222
21456WAT     H264611   0.641   0.878   4.275
21457WAT      O64612   5.861   7.325   1.049
21457WAT     H164613   5.868   7.376   1.135
21457WAT     H264614   5.821   7.384   0.978
21458WAT      O64615   5.683   6.961   8.455
21458WAT     H164616   5.709   6.983   8.549
21458WAT     H264617   5.649   7.043   8.409
21459WAT      O64618   1.784   7.763   0.026
21459WAT     H164619   1.854   7.782   0.094
21459WAT     H264620   1.701   7.730   0.072
21460WAT      O64621   4.220   7.521   6.615
21460WAT     H164622   4.189   7.607   6.575
21460WAT     H264623   4.286   7.477   6.553
21461WAT      O64624   6.049   6.604   5.215
21461WAT     H164625   6.087   6.603   5.122
21461WAT     H264626   6.123   6.613   5.281
21462WAT      O64627   8.086   1.186   0.841
21462WAT     H164628   8.012   1.245   0.874
21462WAT     H264629   8.159   1.182   0.910
21463WAT      O64630   8.978   7.421   2.353
21463WAT     H164631   9.064   7.372   2.362
21463WAT     H264632   8.985   7.511   2.397
21464WAT      O64633   6.407   9.189   7.238
21464WAT     H164634   6.432   9.267   7.181
21464WAT     H264635   6.472   9.115   7.224
21465WAT      O64636   2.014   0.957   0.818
21465WAT     H164637   1.963   0.895   0.758
21465WAT     H264638   2.014   0.921   0.911
21466WAT      O64639   3.113   4.447   5.679
21466WAT     H164640   3.062   4.419   5.597
21466WAT     H264641   3.080   4.536   5.710
21467WAT      O64642   0.764   8.126   5.968
21467WAT     H164643   0.824   8.201   5.993
21467WAT     H264644   0.792   8.088   5.880
21468WAT      O64645   3.909   8.115   1.951
21468WAT     H164646   3.877   8.190   1.894
21468WAT     H264647   4.006   8.098   1.932
21469WAT      O64648   7.041   5.362   3.541
21469WAT     H164649   7.044   5.265   3.520
21469WAT     H264650   7.032   5.414   3.456
21470WAT      O64651   8.482   7.041   4.780
21470WAT     H164652   8.389   7.054   4.747
21470WAT     H264653   8.540   7.116   4.747
21471WAT      O64654   9.338   3.066   0.520
21471WAT     H164655   9.383   2.989   0.474
21471WAT     H264656   9.297   3.034   0.606
21472WAT      O64657   8.461   0.533   9.773
21472WAT     H164658   8.447   0.524   9.871
21472WAT     H264659   8.558   0.520   9.751
21473WAT      O64660   9.379   1.602   8.085
21473WAT     H164661   9.300   1.560   8.041
21473WAT     H264662   9.421   1.536   8.147
21474WAT      O64663   6.899   5.775   3.447
21474WAT     H164664   6.900   5.854   3.386
21474WAT     H264665   6.808   5.733   3.446
21475WAT      O64666   7.102   4.020   0.265
21475WAT     H164667   7.095   4.118   0.286
21475WAT     H264668   7.097   3.967   0.350
21476WAT      O64669   4.896   0.518   7.272
21476WAT     H164670   4.815   0.463   7.288
21476WAT     H264671   4.885   0.570   7.187
21477WAT      O64672   2.957   3.433   5.007
21477WAT     H164673   3.043   3.398   5.044
21477WAT     H264674   2.888   3.434   5.079
21478WAT      O64675   5.113   6.898   7.082
21478WAT     H164676   5.046   6.874   7.152
21478WAT     H264677   5.072   6.888   6.992
21479WAT      O64678   4.187   1.292   1.306
21479WAT     H164679   4.127   1.354   1.356
21479WAT     H264680   4.152   1.279   1.213
21480WAT      O64681   2.295   7.864   6.516
21480WAT     H164682   2.316   7.954   6.478
21480WAT     H264683   2.200   7.863   6.547
21481WAT      O64684   2.615   3.053   5.494
21481WAT     H164685   2.577   3.142   5.517
21481WAT     H264686   2.684   3.027   5.562
21482WAT      O64687   6.561   2.688   7.552
21482WAT     H164688   6.589   2.782   7.535
21482WAT     H264689   6.479   2.668   7.498
21483WAT      O64690   6.559   7.462   0.075
21483WAT     H164691   6.474   7.428   0.034
21483WAT     H264692   6.565   7.561   0.062
21484WAT      O64693   1.097   7.606   5.292
21484WAT     H164694   1.192   7.576   5.288
21484WAT     H264695   1.088   7.678   5.360
21485WAT      O64696   5.357   4.565   1.905
21485WAT     H164697   5.361   4.490   1.839
21485WAT     H264698   5.395   4.647   1.864
21486WAT      O64699   4.896   8.099   3.178
21486WAT     H164700   4.948   8.044   3.244
21486WAT     H264701   4.799   8.083   3.190
21487WAT      O64702   7.258   2.297   9.213
21487WAT     H164703   7.340   2.276   9.266
21487WAT     H264704   7.254   2.395   9.194
21488WAT      O64705   8.047   2.810   4.013
21488WAT     H164706   7.974   2.876   3.994
21488WAT     H264707   8.124   2.858   4.054
21489WAT      O64708   0.700   1.586   2.587
21489WAT     H164709   0.797   1.594   2.562
21489WAT     H264710   0.679   1.491   2.609
21490WAT      O64711   9.464   5.052   0.204
21490WAT     H164712   9.513   4.995   0.269
21490WAT     H264713   9.366   5.031   0.208
21491WAT      O64714   4.941   0.733   2.375
21491WAT     H164715   4.959   0.744   2.277
21491WAT     H264716   4.925   0.822   2.417
21492WAT      O64717   3.181   8.045   2.481
21492WAT     H164718   3.210   7.960   2.526
21492WAT     H264719   3.259   8.107   2.474
21493WAT      O64720   8.179   7.236   7.994
21493WAT     H164721   8.154   7.206   8.086
21493WAT     H264722   8.222   7.161   7.945
21494WAT      O64723   3.331   1.098   1.444
21494WAT     H164724   3.395   1.129   1.515
21494WAT     H264725   3.268   1.171   1.421
21495WAT      O64726   4.329   7.143   7.897
21495WAT     H164727   4.281   7.224   7.930
21495WAT     H264728   4.305   7.064   7.954
21496WAT      O64729   1.501   9.707   8.611
21496WAT     H164730   1.595   9.717   8.641
21496WAT     H264731   1.465   9.619   8.643
21497WAT      O64732   0.363   0.202   8.828
21497WAT     H164733   0.383   0.295   8.796
21497WAT     H264734   0.280   0.169   8.784
21498WAT      O64735   7.589   8.089   6.415
21498WAT     H164736   7.490   8.083   6.424
21498WAT     H264737   7.625   8.150   6.485
21499WAT      O64738   9.617   1.278   4.814
21499WAT     H164739   9.658   1.228   4.890
21499WAT     H264740   9.641   1.233   4.728
21500WAT      O64741   1.153   1.978   6.787
21500WAT     H164742   1.152   1.934   6.877
21500WAT     H264743   1.078   2.044   6.782
21501WAT      O64744   5.158   2.132   0.312
21501WAT     H164745   5.099   2.195   0.261
21501WAT     H264746   5.242   2.179   0.338
21502WAT      O64747   3.220   3.107   9.368
21502WAT     H164748   3.185   3.200   9.362
21502WAT     H264749   3.313   3.104   9.331
21503WAT      O64750   9.722   4.332   5.888
21503WAT     H164751   9.640   4.375   5.850
21503WAT     H264752   9.804   4.373   5.847
21504WAT      O64753   3.410   2.363   5.887
21504WAT     H164754   3.351   2.293   5.846
21504WAT     H264755   3.419   2.346   5.985
21505WAT      O64756   0.916   8.476   8.549
21505WAT     H164757   0.885   8.539   8.478
21505WAT     H264758   0.847   8.405   8.563
21506WAT      O64759   1.315   0.851   3.428
21506WAT     H164760   1.240   0.843   3.362
21506WAT     H264761   1.277   0.873   3.518
21507WAT      O64762   8.281   7.237   2.252
21507WAT     H164763   8.227   7.298   2.194
21507WAT     H264764   8.293   7.149   2.205
21508WAT      O64765   1.780   0.847   1.978
21508WAT     H164766   1.857   0.786   1.958
21508WAT     H264767   1.723   0.805   2.048
21509WAT      O64768   9.100   6.068   1.483
21509WAT     H164769   9.112   6.029   1.392
21509WAT     H264770   9.180   6.047   1.540
21510WAT      O64771   4.842   7.285   0.134
21510WAT     H164772   4.889   7.367   0.102
21510WAT     H264773   4.762   7.310   0.188
21511WAT      O64774   0.593   4.802   3.472
21511WAT     H164775   0.573   4.729   3.406
21511WAT     H264776   0.647   4.764   3.548
21512WAT      O64777   5.780   3.218   7.467
21512WAT     H164778   5.799   3.308   7.427
21512WAT     H264779   5.684   3.196   7.452
21513WAT      O64780   1.903   1.884   8.463
21513WAT     H164781   1.896   1.984   8.472
21513WAT     H264782   1.815   1.848   8.432
21514WAT      O64783   2.923   6.547   9.664
21514WAT     H164784   2.915   6.449   9.680
21514WAT     H264785   2.936   6.564   9.567
21515WAT      O64786   7.774   7.325   2.002
21515WAT     H164787   7.832   7.328   1.921
21515WAT     H264788   7.679   7.309   1.975
21516WAT      O64789   6.840   9.267   3.823
21516WAT     H164790   6.897   9.186   3.836
21516WAT     H264791   6.744   9.243   3.838
21517WAT      O64792   8.114   2.056   8.694
21517WAT     H164793   8.052   2.087   8.622
21517WAT     H264794   8.070   2.068   8.783
21518WAT      O64795   5.847   8.911   0.973
21518WAT     H164796   5.886   8.824   0.943
21518WAT     H264797   5.789   8.895   1.053
21519WAT      O64798   8.419   0.253   8.252
21519WAT     H164799   8.498   0.315   8.250
21519WAT     H264800   8.363   0.269   8.171
21520WAT      O64801   6.218   7.963   2.611
21520WAT     H164802   6.229   7.950   2.709
21520WAT     H264803   6.121   7.978   2.590
21521WAT      O64804   6.519   9.271   5.328
21521WAT     H164805   6.617   9.268   5.312
21521WAT     H264806   6.501   9.289   5.425
21522WAT      O64807   0.267   8.110   7.128
21522WAT     H164808   0.203   8.155   7.190
21522WAT     H264809   0.337   8.175   7.099
21523WAT      O64810   5.362   2.513   3.945
21523WAT     H164811   5.276   2.511   3.996
21523WAT     H264812   5.425   2.579   3.987
21524WAT      O64813   3.649   2.795   0.946
21524WAT     H164814   3.686   2.862   1.011
21524WAT     H264815   3.622   2.713   0.995
21525WAT      O64816   6.956   1.099   7.955
21525WAT     H164817   6.948   1.003   7.930
21525WAT     H264818   7.050   1.118   7.984
21526WAT      O64819   9.529   3.932   1.339
21526WAT     H164820   9.577   4.018   1.351
21526WAT     H264821   9.595   3.858   1.327
21527WAT      O64822   9.276   9.772   0.615
21527WAT     H164823   9.206   9.702   0.598
21527WAT     H264824   9.261   9.814   0.704
21528WAT      O64825   1.645   8.749   2.728
21528WAT     H164826   1.743   8.771   2.724
21528WAT     H264827   1.598   8.790   2.650
21529WAT      O64828   1.538   1.979   3.775
21529WAT     H164829   1.463   2.013   3.832
21529WAT     H264830   1.592   1.913   3.828
21530WAT      O64831   7.150   5.301   1.540
21530WAT     H164832   7.140   5.370   1.611
21530WAT     H264833   7.102   5.218   1.568
21531WAT      O64834   4.455   0.418   9.022
21531WAT     H164835   4.438   0.323   8.996
21531WAT     H264836   4.532   0.454   8.968
21532WAT      O64837   7.203   8.901   3.978
21532WAT     H164838   7.251   8.814   3.984
21532WAT     H264839   7.248   8.968   4.038
21533WAT      O64840   6.286   3.786   3.028
21533WAT     H164841   6.282   3.842   2.945
21533WAT     H264842   6.280   3.845   3.108
21534WAT      O64843   8.273   5.566   6.230
21534WAT     H164844   8.357   5.516   6.250
21534WAT     H264845   8.270   5.650   6.284
21535WAT      O64846   0.504   6.404   1.629
21535WAT     H164847   0.594   6.427   1.666
21535WAT     H264848   0.507   6.312   1.589
21536WAT      O64849   3.576   5.665   0.297
21536WAT     H164850   3.553   5.579   0.252
21536WAT     H264851   3.567   5.654   0.396
21537WAT      O64852   4.391   6.879   9.370
21537WAT     H164853   4.368   6.805   9.432
21537WAT     H264854   4.333   6.873   9.288
21538WAT      O64855   4.943   7.050   1.444
21538WAT     H164856   4.847   7.035   1.419
21538WAT     H264857   5.002   6.995   1.385
21539WAT      O64858   5.286   1.684   8.359
21539WAT     H164859   5.316   1.778   8.377
21539WAT     H264860   5.323   1.624   8.429
21540WAT      O64861   5.300   9.832   5.433
21540WAT     H164862   5.243   9.879   5.500
21540WAT     H264863   5.281   9.867   5.342
21541WAT      O64864   0.164   3.020   5.410
21541WAT     H164865   0.120   2.972   5.487
21541WAT     H264866   0.263   3.024   5.426
21542WAT      O64867   2.159   0.744   5.447
21542WAT     H164868   2.116   0.832   5.468
21542WAT     H264869   2.123   0.710   5.360
21543WAT      O64870   0.748   4.323   9.001
21543WAT     H164871   0.660   4.370   9.003
21543WAT     H264872   0.800   4.345   9.083
21544WAT      O64873   8.984   3.648   1.223
21544WAT     H164874   9.011   3.652   1.127
21544WAT     H264875   9.039   3.713   1.275
21545WAT      O64876   4.953   2.221   9.849
21545WAT     H164877   4.873   2.163   9.835
21545WAT     H264878   4.988   2.250   9.760
21546WAT      O64879   0.439   2.642   8.352
21546WAT     H164880   0.516   2.695   8.316
21546WAT     H264881   0.405   2.580   8.282
21547WAT      O64882   7.382   7.734   0.633
21547WAT     H164883   7.324   7.653   0.628
21547WAT     H264884   7.474   7.707   0.661
21548WAT      O64885   9.207   4.882   9.726
21548WAT     H164886   9.307   4.880   9.731
21548WAT     H264887   9.175   4.799   9.681
21549WAT      O64888   4.912   3.659   8.938
21549WAT     H164889   4.865   3.665   8.851
21549WAT     H264890   4.971   3.578   8.939
21550WAT      O64891   6.258   3.936   3.271
21550WAT     H164892   6.322   3.983   3.333
21550WAT     H264893   6.245   3.842   3.302
21551WAT      O64894   8.708   5.167   8.090
21551WAT     H164895   8.613   5.192   8.111
21551WAT     H264896   8.711   5.118   8.002
21552WAT      O64897   9.855   5.756   6.468
21552WAT     H164898   9.914   5.678   6.491
21552WAT     H264899   9.902   5.841   6.493
21553WAT      O64900   2.512   3.640   1.666
21553WAT     H164901   2.514   3.655   1.567
21553WAT     H264902   2.520   3.728   1.713
21554WAT      O64903   3.254   5.494   5.500
21554WAT     H164904   3.336   5.528   5.454
21554WAT     H264905   3.240   5.546   5.585
21555WAT      O64906   6.582   5.015   6.652
21555WAT     H164907   6.541   5.102   6.681
21555WAT     H264908   6.646   5.032   6.578
21556WAT      O64909   9.125   9.561   8.807
21556WAT     H164910   9.058   9.636   8.801
21556WAT     H264911   9.216   9.597   8.785
21557WAT      O64912   2.574   5.151   0.875
21557WAT     H164913   2.593   5.103   0.789
21557WAT     H264914   2.614   5.242   0.872
21558WAT      O64915   7.185   9.468   2.241
21558WAT     H164916   7.104   9.515   2.276
21558WAT     H264917   7.239   9.433   2.317
21559WAT      O64918   6.657   0.203   3.556
21559WAT     H164919   6.564   0.240   3.556
21559WAT     H264920   6.653   0.103   3.547
21560WAT      O64921   5.644   0.019   1.909
21560WAT     H164922   5.662   0.047   1.815
21560WAT     H264923   5.724  -0.027   1.946
21561WAT      O64924   9.386   2.313   5.667
21561WAT     H164925   9.356   2.235   5.722
21561WAT     H264926   9.479   2.338   5.692
21562WAT      O64927   8.307   8.702   8.153
21562WAT     H164928   8.391   8.654   8.126
21562WAT     H264929   8.305   8.711   8.253
21563WAT      O64930   6.559   7.584   6.560
21563WAT     H164931   6.482   7.571   6.497
21563WAT     H264932   6.598   7.495   6.582
21564WAT      O64933   9.515   4.384   1.869
21564WAT     H164934   9.416   4.376   1.876
21564WAT     H264935   9.556   4.294   1.856
21565WAT      O64936   4.602   3.182   4.743
21565WAT     H164937   4.583   3.147   4.651
21565WAT     H264938   4.694   3.157   4.770
21566WAT      O64939   5.336   1.487   1.536
21566WAT     H164940   5.323   1.586   1.530
21566WAT     H264941   5.299   1.454   1.623
21567WAT      O64942   3.968   0.839   4.229
21567WAT     H164943   4.055   0.869   4.189
21567WAT     H264944   3.928   0.913   4.282
21568WAT      O64945   2.174   5.571   0.622
21568WAT     H164946   2.172   5.563   0.522
21568WAT     H264947   2.252   5.520   0.658
21569WAT      O64948   5.918   4.033   7.546
21569WAT     H164949   5.910   4.119   7.596
21569WAT     H264950   5.873   4.042   7.457
21570WAT      O64951   7.001   1.800   7.982
21570WAT     H164952   7.031   1.895   7.980
21570WAT     H264953   6.981   1.769   7.889
21571WAT      O64954   1.761   0.033   5.261
21571WAT     H164955   1.789   0.125   5.287
21571WAT     H264956   1.829  -0.007   5.200
21572WAT      O64957   1.228   0.301   9.195
21572WAT     H164958   1.135   0.280   9.167
21572WAT     H264959   1.286   0.312   9.114
21573WAT      O64960   6.884   3.238   3.720
21573WAT     H164961   6.885   3.316   3.783
21573WAT     H264962   6.835   3.264   3.637
21574WAT      O64963   5.873   0.721   0.509
21574WAT     H164964   5.911   0.637   0.471
21574WAT     H264965   5.836   0.778   0.436
21575WAT      O64966   2.560   0.520   0.446
21575WAT     H164967   2.534   0.569   0.362
21575WAT     H264968   2.581   0.425   0.424
21576WAT      O64969   6.701   3.231   6.176
21576WAT     H164970   6.603   3.213   6.165
21576WAT     H264971   6.752   3.146   6.158
21577WAT      O64972   8.893   0.037   4.984
21577WAT     H164973   8.902  -0.049   4.934
21577WAT     H264974   8.799   0.047   5.018
21578WAT      O64975   6.273   8.194   0.907
21578WAT     H164976   6.359   8.148   0.886
21578WAT     H264977   6.209   8.127   0.944
21579WAT      O64978   6.242   1.114   8.553
21579WAT     H164979   6.237   1.212   8.570
21579WAT     H264980   6.201   1.093   8.464
21580WAT      O64981   3.164   2.958   0.402
21580WAT     H164982   3.219   2.910   0.471
21580WAT     H264983   3.074   2.915   0.396
21581WAT      O64984   7.245   1.435   9.545
21581WAT     H164985   7.202   1.485   9.470
21581WAT     H264986   7.339   1.412   9.521
21582WAT      O64987   3.520   7.085   4.296
21582WAT     H164988   3.480   7.159   4.349
21582WAT     H264989   3.595   7.120   4.239
21583WAT      O64990   3.431   4.568   6.716
21583WAT     H164991   3.382   4.650   6.687
21583WAT     H264992   3.376   4.518   6.783
21584WAT      O64993   5.227   8.444   3.909
21584WAT     H164994   5.285   8.422   3.830
21584WAT     H264995   5.279   8.432   3.993
21585WAT      O64996   6.311   6.074   7.101
21585WAT     H164997   6.255   6.005   7.146
21585WAT     H264998   6.269   6.164   7.113
21586WAT      O64999   0.824   7.947   0.173
21586WAT     H165000   0.789   8.032   0.211
21586WAT     H265001   0.807   7.945   0.074
21587WAT      O65002   8.517   8.913   0.825
21587WAT     H165003   8.527   8.878   0.732
21587WAT     H265004   8.511   8.837   0.890
21588WAT      O65005   3.602   4.365   8.967
21588WAT     H165006   3.686   4.326   8.929
21588WAT     H265007   3.623   4.454   9.009
21589WAT      O65008   8.869   1.710   9.610
21589WAT     H165009   8.898   1.716   9.705
21589WAT     H265010   8.925   1.770   9.553
21590WAT      O65011   0.796   0.520   3.207
21590WAT     H165012   0.785   0.466   3.124
21590WAT     H265013   0.873   0.486   3.260
21591WAT      O65014   2.532   4.699   0.735
21591WAT     H165015   2.433   4.714   0.734
21591WAT     H265016   2.556   4.634   0.807
21592WAT      O65017   4.727   7.787   2.940
21592WAT     H165018   4.629   7.806   2.939
21592WAT     H265019   4.765   7.802   2.848
21593WAT      O65020   8.301   1.940   2.718
21593WAT     H165021   8.287   1.883   2.800
21593WAT     H265022   8.212   1.971   2.685
21594WAT      O65023   3.978   1.436   8.978
21594WAT     H165024   3.912   1.493   9.027
21594WAT     H265025   3.962   1.340   8.999
21595WAT      O65026   1.554   6.549   9.515
21595WAT     H165027   1.599   6.521   9.600
21595WAT     H265028   1.456   6.561   9.530
21596WAT      O65029   5.777   6.315   4.377
21596WAT     H165030   5.776   6.415   4.380
21596WAT     H265031   5.849   6.284   4.314
21597WAT      O65032   0.243   1.216   4.807
21597WAT     H165033   0.198   1.305   4.817
21597WAT     H265034   0.269   1.182   4.897
21598WAT      O65035   9.666   0.705   4.004
21598WAT     H165036   9.672   0.744   3.912
21598WAT     H265037   9.715   0.618   4.006
21599WAT      O65038   3.910   6.751   7.632
21599WAT     H165039   3.911   6.691   7.552
21599WAT     H265040   3.876   6.701   7.711
21600WAT      O65041   3.141   5.915   7.981
21600WAT     H165042   3.152   6.000   8.033
21600WAT     H265043   3.046   5.906   7.953
21601WAT      O65044   2.865   1.983   7.995
21601WAT     H165045   2.866   2.065   8.052
21601WAT     H265046   2.861   2.010   7.899
21602WAT      O65047   8.237   3.697   5.097
21602WAT     H165048   8.274   3.607   5.121
21602WAT     H265049   8.205   3.695   5.002
21603WAT      O65050   7.728   5.474   4.463
21603WAT     H165051   7.676   5.389   4.464
21603WAT     H265052   7.787   5.477   4.382
21604WAT      O65053   3.395   5.134   9.404
21604WAT     H165054   3.350   5.055   9.445
21604WAT     H265055   3.326   5.196   9.367
21605WAT      O65056   1.066   5.673   0.615
21605WAT     H165057   1.122   5.594   0.639
21605WAT     H265058   1.124   5.753   0.601
21606WAT      O65059   2.939   8.460   9.137
21606WAT     H165060   2.936   8.360   9.134
21606WAT     H265061   3.032   8.491   9.122
21607WAT      O65062   2.506   2.680   2.684
21607WAT     H165063   2.586   2.688   2.743
21607WAT     H265064   2.485   2.769   2.643
21608WAT      O65065   0.058   7.104   7.140
21608WAT     H165066   0.076   7.094   7.237
21608WAT     H265067   0.143   7.089   7.089
21609WAT      O65068   9.153   8.262   2.276
21609WAT     H165069   9.216   8.324   2.229
21609WAT     H265070   9.206   8.191   2.323
21610WAT      O65071   3.989   0.519   0.094
21610WAT     H165072   3.915   0.497   0.157
21610WAT     H265073   4.060   0.449   0.100
21611WAT      O65074   8.848   3.253   2.944
21611WAT     H165075   8.909   3.177   2.924
21611WAT     H265076   8.763   3.218   2.983
21612WAT      O65077   3.743   2.188   0.653
21612WAT     H165078   3.696   2.101   0.670
21612WAT     H265079   3.814   2.201   0.721
21613WAT      O65080   2.862   2.146   7.762
21613WAT     H165081   2.791   2.092   7.716
21613WAT     H265082   2.951   2.126   7.722
21614WAT      O65083   5.348   4.382   7.326
21614WAT     H165084   5.400   4.366   7.242
21614WAT     H265085   5.269   4.440   7.306
21615WAT      O65086   2.362   6.347   7.048
21615WAT     H165087   2.338   6.342   7.145
21615WAT     H265088   2.415   6.430   7.032
21616WAT      O65089   7.895   4.205   9.826
21616WAT     H165090   7.991   4.188   9.803
21616WAT     H265091   7.887   4.217   9.925
21617WAT      O65092   6.151   5.168   1.750
21617WAT     H165093   6.177   5.205   1.661
21617WAT     H265094   6.192   5.078   1.762
21618WAT      O65095   4.125   6.913   8.472
21618WAT     H165096   4.193   6.971   8.516
21618WAT     H265097   4.036   6.926   8.514
21619WAT      O65098   2.573   3.631   6.900
21619WAT     H165099   2.642   3.564   6.931
21619WAT     H265100   2.482   3.589   6.903
21620WAT      O65101   8.247   9.279   5.383
21620WAT     H165102   8.178   9.275   5.455
21620WAT     H265103   8.338   9.263   5.422
21621WAT      O65104   4.180   0.303   7.008
21621WAT     H165105   4.185   0.236   7.083
21621WAT     H265106   4.200   0.257   6.921
21622WAT      O65107   8.892   4.925   2.472
21622WAT     H165108   8.962   4.902   2.540
21622WAT     H265109   8.809   4.873   2.491
21623WAT      O65110   6.432   5.369   7.255
21623WAT     H165111   6.490   5.346   7.333
21623WAT     H265112   6.395   5.285   7.216
21624WAT      O65113   9.021   7.745   5.510
21624WAT     H165114   9.082   7.667   5.524
21624WAT     H265115   8.935   7.728   5.558
21625WAT      O65116   0.318   2.680   7.613
21625WAT     H165117   0.392   2.624   7.649
21625WAT     H265118   0.306   2.760   7.670
21626WAT      O65119   3.011   6.149   5.563
21626WAT     H165120   3.100   6.136   5.520
21626WAT     H265121   2.938   6.118   5.502
21627WAT      O65122   7.336   0.920   5.999
21627WAT     H165123   7.424   0.933   6.043
21627WAT     H265124   7.320   0.993   5.932
21628WAT      O65125   0.320   5.264   7.545
21628WAT     H165126   0.374   5.259   7.461
21628WAT     H265127   0.275   5.353   7.551
21629WAT      O65128   7.566   0.401   7.443
21629WAT     H165129   7.552   0.393   7.542
21629WAT     H265130   7.510   0.334   7.396
21630WAT      O65131   2.919   1.338   0.099
21630WAT     H165132   2.982   1.266   0.128
21630WAT     H265133   2.905   1.333   0.000
21631WAT      O65134   2.816   6.053   7.504
21631WAT     H165135   2.731   6.000   7.502
21631WAT     H265136   2.839   6.083   7.412
21632WAT      O65137   2.382   9.307   7.221
21632WAT     H165138   2.294   9.344   7.193
21632WAT     H265139   2.450   9.322   7.150
21633WAT      O65140   9.038   5.979   7.960
21633WAT     H165141   9.011   5.916   7.887
21633WAT     H265142   9.006   6.071   7.938
21634WAT      O65143   5.134   7.181   3.346
21634WAT     H165144   5.067   7.225   3.286
21634WAT     H265145   5.220   7.230   3.341
21635WAT      O65146   0.539   0.174   2.931
21635WAT     H165147   0.567   0.092   2.981
21635WAT     H265148   0.576   0.171   2.839
21636WAT      O65149   0.506   4.516   2.135
21636WAT     H165150   0.493   4.602   2.086
21636WAT     H265151   0.446   4.446   2.098
21637WAT      O65152   2.618   8.121   5.234
21637WAT     H165153   2.669   8.110   5.319
21637WAT     H265154   2.676   8.095   5.156
21638WAT      O65155   4.006   6.220   3.003
21638WAT     H165156   4.027   6.304   2.952
21638WAT     H265157   4.071   6.211   3.078
21639WAT      O65158   4.982   4.259   8.273
21639WAT     H165159   4.971   4.174   8.326
21639WAT     H265160   5.003   4.334   8.335
21640WAT      O65161   0.246   6.642   5.392
21640WAT     H165162   0.243   6.738   5.364
21640WAT     H265163   0.255   6.637   5.491
21641WAT      O65164   4.833   8.821   5.136
21641WAT     H165165   4.857   8.850   5.044
21641WAT     H265166   4.917   8.810   5.190
21642WAT      O65167   4.181   3.969   0.705
21642WAT     H165168   4.105   3.996   0.764
21642WAT     H265169   4.265   4.014   0.736
21643WAT      O65170   5.194   1.443   6.829
21643WAT     H165171   5.121   1.377   6.844
21643WAT     H265172   5.244   1.458   6.915
21644WAT      O65173   7.967   8.400   0.737
21644WAT     H165174   7.893   8.458   0.705
21644WAT     H265175   7.929   8.313   0.770
21645WAT      O65176   9.266   6.313   5.181
21645WAT     H165177   9.221   6.400   5.202
21645WAT     H265178   9.357   6.311   5.224
21646WAT      O65179   5.046   3.886   8.673
21646WAT     H165180   5.100   3.853   8.595
21646WAT     H265181   4.949   3.884   8.650
21647WAT      O65182   1.193   7.227   5.214
21647WAT     H165183   1.111   7.179   5.244
21647WAT     H265184   1.168   7.315   5.173
21648WAT      O65185   4.397   6.433   6.776
21648WAT     H165186   4.331   6.358   6.782
21648WAT     H265187   4.428   6.442   6.681
21649WAT      O65188   7.614   2.834   3.591
21649WAT     H165189   7.608   2.896   3.669
21649WAT     H265190   7.706   2.795   3.587
21650WAT      O65191   1.369   2.027   7.177
21650WAT     H165192   1.328   2.080   7.250
21650WAT     H265193   1.439   1.965   7.214
21651WAT      O65194   9.706   0.710   8.801
21651WAT     H165195   9.738   0.781   8.864
21651WAT     H265196   9.731   0.620   8.837
21652WAT      O65197   9.573   9.754   7.356
21652WAT     H165198   9.513   9.832   7.341
21652WAT     H265199   9.654   9.762   7.297
21653WAT      O65200   4.543   5.065   2.326
21653WAT     H165201   4.615   5.103   2.384
21653WAT     H265202   4.569   4.973   2.297
21654WAT      O65203   6.534   0.507   6.349
21654WAT     H165204   6.464   0.573   6.322
21654WAT     H265205   6.618   0.525   6.298
21655WAT      O65206   6.429   9.387   3.329
21655WAT     H165207   6.390   9.316   3.270
21655WAT     H265208   6.495   9.441   3.276
21656WAT      O65209   8.532   1.081   9.652
21656WAT     H165210   8.583   0.997   9.669
21656WAT     H265211   8.462   1.093   9.723
21657WAT      O65212   0.836   0.325   8.523
21657WAT     H165213   0.746   0.340   8.562
21657WAT     H265214   0.873   0.238   8.555
21658WAT      O65215   4.356   1.920   1.932
21658WAT     H165216   4.433   1.926   1.869
21658WAT     H265217   4.314   1.829   1.924
21659WAT      O65218   2.862   5.410   8.573
21659WAT     H165219   2.891   5.445   8.662
21659WAT     H265220   2.931   5.346   8.539
21660WAT      O65221   3.163   6.880   2.305
21660WAT     H165222   3.065   6.888   2.325
21660WAT     H265223   3.175   6.851   2.210
21661WAT      O65224   2.574   6.786   7.252
21661WAT     H165225   2.669   6.757   7.261
21661WAT     H265226   2.570   6.880   7.219
21662WAT      O65227   6.119   7.382   3.733
21662WAT     H165228   6.150   7.287   3.742
21662WAT     H265229   6.049   7.387   3.662
21663WAT      O65230   6.308   0.318   8.711
21663WAT     H165231   6.330   0.408   8.673
21663WAT     H265232   6.221   0.286   8.672
21664WAT      O65233   1.344   7.912   0.618
21664WAT     H165234   1.405   7.847   0.664
21664WAT     H265235   1.396   7.992   0.589
21665WAT      O65236   7.885   6.413   1.715
21665WAT     H165237   7.821   6.402   1.639
21665WAT     H265238   7.970   6.363   1.695
21666WAT      O65239   2.514   2.380   5.591
21666WAT     H165240   2.612   2.360   5.598
21666WAT     H265241   2.473   2.321   5.521
21667WAT      O65242   8.024   7.349   7.274
21667WAT     H165243   8.022   7.430   7.215
21667WAT     H265244   7.931   7.327   7.304
21668WAT      O65245   8.913   8.519   2.569
21668WAT     H165246   9.003   8.561   2.582
21668WAT     H265247   8.921   8.440   2.509
21669WAT      O65248   9.678   7.265   8.197
21669WAT     H165249   9.622   7.332   8.148
21669WAT     H265250   9.773   7.274   8.167
21670WAT      O65251   3.217   7.346   6.292
21670WAT     H165252   3.302   7.313   6.250
21670WAT     H265253   3.215   7.320   6.388
21671WAT      O65254   8.244   5.793   8.843
21671WAT     H165255   8.149   5.806   8.873
21671WAT     H265256   8.247   5.722   8.773
21672WAT      O65257   6.793   9.280   5.300
21672WAT     H165258   6.814   9.191   5.342
21672WAT     H265259   6.806   9.352   5.367
21673WAT      O65260   3.038   7.876   9.119
21673WAT     H165261   3.133   7.854   9.143
21673WAT     H265262   2.996   7.927   9.194
21674WAT      O65263   0.400   5.890   1.551
21674WAT     H165264   0.464   5.885   1.628
21674WAT     H265265   0.386   5.986   1.526
21675WAT      O65266   0.906   7.446   1.503
21675WAT     H165267   0.959   7.368   1.468
21675WAT     H265268   0.833   7.469   1.437
21676WAT      O65269   9.258   7.559   4.225
21676WAT     H165270   9.329   7.626   4.246
21676WAT     H265271   9.168   7.600   4.240
21677WAT      O65272   4.927   0.699   6.316
21677WAT     H165273   4.913   0.718   6.219
21677WAT     H265274   4.874   0.765   6.370
21678WAT      O65275   1.066   9.031   0.104
21678WAT     H165276   1.131   8.966   0.064
21678WAT     H265277   1.024   8.990   0.185
21679WAT      O65278   5.100   3.254   3.684
21679WAT     H165279   5.100   3.284   3.589
21679WAT     H265280   5.015   3.285   3.728
21680WAT      O65281   7.401   0.108   5.002
21680WAT     H165282   7.309   0.078   4.977
21680WAT     H265283   7.415   0.095   5.100
21681WAT      O65284   7.551   6.638   7.746
21681WAT     H165285   7.488   6.655   7.822
21681WAT     H265286   7.523   6.693   7.668
21682WAT      O65287   3.198   3.107   6.930
21682WAT     H165288   3.235   3.117   6.837
21682WAT     H265289   3.127   3.175   6.946
21683WAT      O65290   6.519   8.275   5.991
21683WAT     H165291   6.455   8.212   6.036
21683WAT     H265292   6.474   8.316   5.911
21684WAT      O65293   4.296   8.479   0.931
21684WAT     H165294   4.294   8.559   0.872
21684WAT     H265295   4.307   8.396   0.875
21685WAT      O65296   0.342   9.724   4.970
21685WAT     H165297   0.243   9.711   4.958
21685WAT     H265298   0.383   9.640   5.005
21686WAT      O65299   9.059   6.400   3.129
21686WAT     H165300   9.088   6.335   3.200
21686WAT     H265301   9.069   6.493   3.163
21687WAT      O65302   4.424   0.851   1.625
21687WAT     H165303   4.367   0.855   1.543
21687WAT     H265304   4.462   0.942   1.644
21688WAT      O65305   8.275   9.721   3.421
21688WAT     H165306   8.362   9.748   3.462
21688WAT     H265307   8.237   9.797   3.369
21689WAT      O65308   0.455   9.707   7.939
21689WAT     H165309   0.517   9.718   8.018
21689WAT     H265310   0.509   9.703   7.855
21690WAT      O65311   3.415   8.676   2.278
21690WAT     H165312   3.432   8.773   2.260
21690WAT     H265313   3.333   8.647   2.228
21691WAT      O65314   3.357   4.302   1.500
21691WAT     H165315   3.282   4.268   1.443
21691WAT     H265316   3.439   4.247   1.484
21692WAT      O65317   7.976   9.652   8.788
21692WAT     H165318   7.986   9.751   8.798
21692WAT     H265319   7.923   9.631   8.706
21693WAT      O65320   5.988   4.551   3.052
21693WAT     H165321   6.039   4.561   3.137
21693WAT     H265322   6.009   4.463   3.010
21694WAT      O65323   4.836   5.170   7.477
21694WAT     H165324   4.848   5.157   7.379
21694WAT     H265325   4.757   5.117   7.509
21695WAT      O65326   1.561   3.713   9.671
21695WAT     H165327   1.517   3.660   9.743
21695WAT     H265328   1.653   3.677   9.655
21696WAT      O65329   0.975   2.284   2.401
21696WAT     H165330   0.995   2.331   2.315
21696WAT     H265331   0.926   2.200   2.382
21697WAT      O65332   9.055   7.587   6.645
21697WAT     H165333   9.149   7.560   6.625
21697WAT     H265334   9.052   7.636   6.732
21698WAT      O65335   8.564   9.429   0.679
21698WAT     H165336   8.552   9.363   0.753
21698WAT     H265337   8.571   9.521   0.719
21699WAT      O65338   8.820   8.383   4.566
21699WAT     H165339   8.756   8.307   4.551
21699WAT     H265340   8.835   8.394   4.664
21700WAT      O65341   3.429   7.465   1.192
21700WAT     H165342   3.344   7.441   1.239
21700WAT     H265343   3.417   7.553   1.145
21701WAT      O65344   5.504   1.014   4.239
21701WAT     H165345   5.561   0.932   4.251
21701WAT     H265346   5.458   1.009   4.150
21702WAT      O65347   2.532   6.313   0.282
21702WAT     H165348   2.468   6.387   0.261
21702WAT     H265349   2.502   6.265   0.364
21703WAT      O65350   4.587   3.828   7.312
21703WAT     H165351   4.520   3.857   7.380
21703WAT     H265352   4.570   3.733   7.286
21704WAT      O65353   9.828   6.123   1.617
21704WAT     H165354   9.804   6.218   1.633
21704WAT     H265355   9.831   6.074   1.705
21705WAT      O65356   6.467   9.295   3.618
21705WAT     H165357   6.504   9.323   3.530
21705WAT     H265358   6.393   9.358   3.644
21706WAT      O65359   5.711   1.915   9.855
21706WAT     H165360   5.741   2.010   9.858
21706WAT     H265361   5.791   1.855   9.865
21707WAT      O65362   6.505   3.631   3.075
21707WAT     H165363   6.582   3.695   3.085
21707WAT     H265364   6.421   3.683   3.059
21708WAT      O65365   8.371   7.551   9.885
21708WAT     H165366   8.361   7.465   9.934
21708WAT     H265367   8.389   7.531   9.788
21709WAT      O65368   8.591   4.419   0.610
21709WAT     H165369   8.678   4.430   0.658
21709WAT     H265370   8.589   4.330   0.564
21710WAT      O65371   8.863   1.721   5.465
21710WAT     H165372   8.785   1.748   5.407
21710WAT     H265373   8.946   1.765   5.431
21711WAT      O65374   8.573   3.314   1.988
21711WAT     H165375   8.643   3.385   1.989
21711WAT     H265376   8.558   3.281   2.081
21712WAT      O65377   6.439   4.636   0.293
21712WAT     H165378   6.363   4.616   0.355
21712WAT     H265379   6.428   4.728   0.256
21713WAT      O65380   0.097   5.664   0.664
21713WAT     H165381   0.171   5.712   0.617
21713WAT     H265382   0.033   5.730   0.702
21714WAT      O65383   3.100   1.326   5.806
21714WAT     H165384   3.151   1.368   5.882
21714WAT     H265385   3.111   1.381   5.724
21715WAT      O65386   2.947   6.228   9.638
21715WAT     H165387   2.976   6.141   9.678
21715WAT     H265388   2.996   6.243   9.552
21716WAT      O65389   8.809   8.159   5.778
21716WAT     H165390   8.893   8.123   5.820
21716WAT     H265391   8.777   8.238   5.830
21717WAT      O65392   7.855   8.190   3.778
21717WAT     H165393   7.939   8.191   3.833
21717WAT     H265394   7.879   8.189   3.681
21718WAT      O65395   5.915   9.037   3.982
21718WAT     H165396   5.890   9.130   3.952
21718WAT     H265397   5.987   9.001   3.922
21719WAT      O65398   5.913   5.493   9.723
21719WAT     H165399   5.924   5.589   9.697
21719WAT     H265400   5.935   5.481   9.819
21720WAT      O65401   6.442   0.846   8.842
21720WAT     H165402   6.380   0.922   8.820
21720WAT     H265403   6.411   0.764   8.795
21721WAT      O65404   6.537   2.569   0.416
21721WAT     H165405   6.526   2.474   0.389
21721WAT     H265406   6.457   2.598   0.469
21722WAT      O65407   8.173   3.617   4.831
21722WAT     H165408   8.208   3.525   4.849
21722WAT     H265409   8.227   3.659   4.757
21723WAT      O65410   4.870   2.500   4.877
21723WAT     H165411   4.846   2.449   4.960
21723WAT     H265412   4.956   2.464   4.840
21724WAT      O65413   6.101   0.174   6.751
21724WAT     H165414   6.110   0.129   6.840
21724WAT     H265415   6.131   0.111   6.679
21725WAT      O65416   4.233   4.941   1.325
21725WAT     H165417   4.285   4.860   1.298
21725WAT     H265418   4.259   5.018   1.267
21726WAT      O65419   8.366   7.322   4.483
21726WAT     H165420   8.379   7.420   4.500
21726WAT     H265421   8.443   7.272   4.523
21727WAT      O65422   9.537   8.651   3.895
21727WAT     H165423   9.565   8.619   3.985
21727WAT     H265424   9.481   8.733   3.904
21728WAT      O65425   0.012   8.890   2.294
21728WAT     H165426   0.063   8.968   2.331
21728WAT     H265427   0.066   8.807   2.304
21729WAT      O65428   3.266   6.264   7.053
21729WAT     H165429   3.318   6.349   7.048
21729WAT     H265430   3.329   6.187   7.065
21730WAT      O65431   3.160   6.662   6.981
21730WAT     H165432   3.244   6.701   6.942
21730WAT     H265433   3.121   6.726   7.046
21731WAT      O65434   3.062   4.835   6.271
21731WAT     H165435   3.101   4.803   6.185
21731WAT     H265436   3.057   4.758   6.336
21732WAT      O65437   4.495   1.102   3.369
21732WAT     H165438   4.431   1.089   3.445
21732WAT     H265439   4.588   1.084   3.401
21733WAT      O65440   7.397   4.417   6.899
21733WAT     H165441   7.459   4.444   6.824
21733WAT     H265442   7.304   4.409   6.863
21734WAT      O65443   5.061   8.048   4.992
21734WAT     H165444   5.013   8.022   5.076
21734WAT     H265445   5.020   8.130   4.954
21735WAT      O65446   5.792   6.549   6.402
21735WAT     H165447   5.816   6.577   6.309
21735WAT     H265448   5.849   6.600   6.468
21736WAT      O65449   4.994   8.293   0.925
21736WAT     H165450   4.956   8.330   0.840
21736WAT     H265451   5.089   8.322   0.934
21737WAT      O65452   9.270   0.814   3.347
21737WAT     H165453   9.174   0.836   3.330
21737WAT     H265454   9.300   0.858   3.432
21738WAT      O65455   1.665   3.493   7.698
21738WAT     H165456   1.588   3.440   7.662
21738WAT     H265457   1.648   3.591   7.685
21739WAT      O65458   4.997   0.999   5.209
21739WAT     H165459   4.994   1.028   5.304
21739WAT     H265460   4.962   1.072   5.150
21740WAT      O65461   2.243   3.276   2.727
21740WAT     H165462   2.227   3.267   2.826
21740WAT     H265463   2.323   3.333   2.711
21741WAT      O65464   2.154   2.420   9.008
21741WAT     H165465   2.099   2.488   8.960
21741WAT     H265466   2.101   2.382   9.084
21742WAT      O65467   2.663   2.496   3.199
21742WAT     H165468   2.640   2.484   3.295
21742WAT     H265469   2.688   2.408   3.159
21743WAT      O65470   5.645   1.369   4.715
21743WAT     H165471   5.664   1.398   4.809
21743WAT     H265472   5.722   1.315   4.682
21744WAT      O65473   2.885   4.637   8.159
21744WAT     H165474   2.825   4.678   8.228
21744WAT     H265475   2.891   4.539   8.175
21745WAT      O65476   0.914   4.852   9.805
21745WAT     H165477   0.937   4.818   9.896
21745WAT     H265478   0.957   4.940   9.790
21746WAT      O65479   3.312   9.386   7.152
21746WAT     H165480   3.388   9.369   7.090
21746WAT     H265481   3.328   9.471   7.203
21747WAT      O65482   6.704   3.186   5.626
21747WAT     H165483   6.648   3.228   5.555
21747WAT     H265484   6.703   3.243   5.708
21748WAT      O65485   3.070   4.398   0.316
21748WAT     H165486   3.030   4.402   0.224
21748WAT     H265487   3.162   4.435   0.314
21749WAT      O65488   1.477   7.164   2.013
21749WAT     H165489   1.529   7.091   2.058
21749WAT     H265490   1.432   7.221   2.082
21750WAT      O65491   7.235   2.620   6.297
21750WAT     H165492   7.234   2.639   6.199
21750WAT     H265493   7.236   2.521   6.312
21751WAT      O65494   6.175   1.272   6.671
21751WAT     H165495   6.250   1.230   6.621
21751WAT     H265496   6.213   1.326   6.747
21752WAT      O65497   7.180   7.202   6.964
21752WAT     H165498   7.149   7.286   6.920
21752WAT     H265499   7.223   7.224   7.051
21753WAT      O65500   7.670   1.890   2.934
21753WAT     H165501   7.721   1.875   2.850
21753WAT     H265502   7.601   1.818   2.945
21754WAT      O65503   4.428   8.541   6.262
21754WAT     H165504   4.454   8.605   6.190
21754WAT     H265505   4.439   8.586   6.351
21755WAT      O65506   7.755   8.002   7.256
21755WAT     H165507   7.656   8.006   7.245
21755WAT     H265508   7.787   7.910   7.232
21756WAT      O65509   6.844   0.190   7.826
21756WAT     H165510   6.864   0.161   7.733
21756WAT     H265511   6.844   0.111   7.887
21757WAT      O65512   7.133   5.424   5.194
21757WAT     H165513   7.168   5.478   5.117
21757WAT     H265514   7.202   5.422   5.267
21758WAT      O65515   4.661   4.336   5.029
21758WAT     H165516   4.586   4.278   5.062
21758WAT     H265517   4.636   4.375   4.940
21759WAT      O65518   0.460   4.616   5.617
21759WAT     H165519   0.458   4.530   5.567
21759WAT     H265520   0.509   4.685   5.563
21760WAT      O65521   0.953   7.693   8.915
21760WAT     H165522   0.939   7.668   8.819
21760WAT     H265523   0.997   7.617   8.962
21761WAT      O65524   4.168   6.258   3.519
21761WAT     H165525   4.255   6.298   3.547
21761WAT     H265526   4.160   6.165   3.554
21762WAT      O65527   3.371   7.764   4.952
21762WAT     H165528   3.314   7.832   4.998
21762WAT     H265529   3.434   7.723   5.018
21763WAT      O65530   8.729   9.605   9.047
21763WAT     H165531   8.669   9.537   9.089
21763WAT     H265532   8.816   9.609   9.096
21764WAT      O65533   5.603   6.230   4.039
21764WAT     H165534   5.570   6.267   4.126
21764WAT     H265535   5.590   6.131   4.038
21765WAT      O65536   3.418   7.758   3.554
21765WAT     H165537   3.506   7.711   3.568
21765WAT     H265538   3.404   7.772   3.456
21766WAT      O65539   2.143   4.016   6.456
21766WAT     H165540   2.167   3.928   6.416
21766WAT     H265541   2.044   4.018   6.475
21767WAT      O65542   1.614   9.572   0.121
21767WAT     H165543   1.598   9.671   0.118
21767WAT     H265544   1.703   9.551   0.083
21768WAT      O65545   8.230   5.358   2.815
21768WAT     H165546   8.264   5.419   2.887
21768WAT     H265547   8.133   5.375   2.801
21769WAT      O65548   7.691   4.784   4.671
21769WAT     H165549   7.766   4.821   4.726
21769WAT     H265550   7.604   4.818   4.705
21770WAT      O65551   9.128   5.990   9.350
21770WAT     H165552   9.118   6.021   9.445
21770WAT     H265553   9.224   6.000   9.323
21771WAT      O65554   1.684   2.293   2.473
21771WAT     H165555   1.666   2.359   2.546
21771WAT     H265556   1.763   2.323   2.420
21772WAT      O65557   8.846   7.322   2.950
21772WAT     H165558   8.785   7.386   2.903
21772WAT     H265559   8.794   7.240   2.976
21773WAT      O65560   2.252   6.637   5.182
21773WAT     H165561   2.188   6.713   5.197
21773WAT     H265562   2.278   6.598   5.271
21774WAT      O65563   9.544   9.562   2.549
21774WAT     H165564   9.447   9.553   2.529
21774WAT     H265565   9.558   9.554   2.648
21775WAT      O65566   9.081   5.024   3.892
21775WAT     H165567   9.024   4.942   3.880
21775WAT     H265568   9.054   5.072   3.975
21776WAT      O65569   3.677   5.420   7.829
21776WAT     H165570   3.735   5.342   7.850
21776WAT     H265571   3.677   5.436   7.730
21777WAT      O65572   8.103   6.297   2.196
21777WAT     H165573   8.102   6.198   2.209
21777WAT     H265574   8.018   6.336   2.231
21778WAT      O65575   6.986   7.521   8.080
21778WAT     H165576   6.951   7.446   8.136
21778WAT     H265577   6.970   7.501   7.984
21779WAT      O65578   0.246   1.524   6.130
21779WAT     H165579   0.257   1.559   6.037
21779WAT     H265580   0.203   1.593   6.187
21780WAT      O65581   2.476   7.615   1.229
21780WAT     H165582   2.509   7.685   1.164
21780WAT     H265583   2.410   7.657   1.291
21781WAT      O65584   3.055   6.246   3.663
21781WAT     H165585   3.129   6.220   3.601
21781WAT     H265586   3.007   6.164   3.694
21782WAT      O65587   1.977   3.479   1.103
21782WAT     H165588   2.055   3.541   1.106
21782WAT     H265589   1.971   3.437   1.013
21783WAT      O65590   9.823   6.507   4.965
21783WAT     H165591   9.894   6.443   4.935
21783WAT     H265592   9.733   6.465   4.953
21784WAT      O65593   8.423   2.234   0.176
21784WAT     H165594   8.331   2.203   0.197
21784WAT     H265595   8.450   2.202   0.085
21785WAT      O65596   3.667   7.177   2.411
21785WAT     H165597   3.603   7.101   2.402
21785WAT     H265598   3.749   7.146   2.460
21786WAT      O65599   0.535   0.240   1.414
21786WAT     H165600   0.584   0.163   1.454
21786WAT     H265601   0.437   0.230   1.432
21787WAT      O65602   3.682   7.677   0.415
21787WAT     H165603   3.643   7.591   0.381
21787WAT     H265604   3.658   7.688   0.512
21788WAT      O65605   2.582   6.462   9.688
21788WAT     H165606   2.602   6.364   9.685
21788WAT     H265607   2.538   6.490   9.602
21789WAT      O65608   6.802   1.385   2.998
21789WAT     H165609   6.787   1.435   3.084
21789WAT     H265610   6.715   1.375   2.950
21790WAT      O65611   1.576   6.420   7.854
21790WAT     H165612   1.664   6.468   7.857
21790WAT     H265613   1.559   6.386   7.762
21791WAT      O65614   5.712   2.341   2.977
21791WAT     H165615   5.689   2.287   2.895
21791WAT     H265616   5.699   2.438   2.957
21792WAT      O65617   8.108   9.361   8.649
21792WAT     H165618   8.098   9.440   8.588
21792WAT     H265619   8.200   9.361   8.688
21793WAT      O65620   6.841   1.681   9.498
21793WAT     H165621   6.773   1.713   9.432
21793WAT     H265622   6.817   1.715   9.589
21794WAT      O65623   4.538   7.171   7.167
21794WAT     H165624   4.556   7.119   7.084
21794WAT     H265625   4.529   7.268   7.145
21795WAT      O65626   3.547   2.147   6.469
21795WAT     H165627   3.545   2.105   6.560
21795WAT     H265628   3.594   2.235   6.474
21796WAT      O65629   8.165   7.514   5.339
21796WAT     H165630   8.100   7.460   5.393
21796WAT     H265631   8.132   7.522   5.245
21797WAT      O65632   3.606   1.341   8.104
21797WAT     H165633   3.588   1.435   8.077
21797WAT     H265634   3.702   1.320   8.086
21798WAT      O65635   5.060   8.365   4.509
21798WAT     H165636   5.047   8.266   4.511
21798WAT     H265637   4.985   8.410   4.557
21799WAT      O65638   3.554   8.792   7.237
21799WAT     H165639   3.467   8.802   7.187
21799WAT     H265640   3.534   8.772   7.333
21800WAT      O65641   4.643   9.841   6.075
21800WAT     H165642   4.653   9.749   6.112
21800WAT     H265643   4.711   9.901   6.117
21801WAT      O65644   0.736   5.976   8.510
21801WAT     H165645   0.650   5.930   8.489
21801WAT     H265646   0.767   5.949   8.600
21802WAT      O65647   8.545   9.436   2.374
21802WAT     H165648   8.449   9.418   2.351
21802WAT     H265649   8.592   9.349   2.389
21803WAT      O65650   2.531   5.854   7.106
21803WAT     H165651   2.512   5.876   7.010
21803WAT     H265652   2.564   5.759   7.113
21804WAT      O65653   1.611   3.779   2.399
21804WAT     H165654   1.523   3.825   2.410
21804WAT     H265655   1.685   3.846   2.402
21805WAT      O65656   3.342   4.616   4.224
21805WAT     H165657   3.278   4.562   4.279
21805WAT     H265658   3.378   4.559   4.150
21806WAT      O65659   5.862   0.885   2.336
21806WAT     H165660   5.776   0.842   2.308
21806WAT     H265661   5.870   0.881   2.436
21807WAT      O65662   5.344   8.286   9.862
21807WAT     H165663   5.418   8.268   9.927
21807WAT     H265664   5.383   8.309   9.773
21808WAT      O65665   5.761   8.965   0.411
21808WAT     H165666   5.808   8.990   0.326
21808WAT     H265667   5.817   8.992   0.489
21809WAT      O65668   4.076   0.572   5.188
21809WAT     H165669   3.984   0.545   5.216
21809WAT     H265670   4.142   0.507   5.224
21810WAT      O65671   7.013   1.953   6.471
21810WAT     H165672   6.932   1.904   6.439
21810WAT     H265673   7.090   1.935   6.409
21811WAT      O65674   2.667   7.702   1.586
21811WAT     H165675   2.601   7.626   1.590
21811WAT     H265676   2.749   7.676   1.636
21812WAT      O65677   3.524   9.772   1.561
21812WAT     H165678   3.509   9.676   1.583
21812WAT     H265679   3.579   9.815   1.633
21813WAT      O65680   6.652   5.375   4.153
21813WAT     H165681   6.610   5.318   4.082
21813WAT     H265682   6.751   5.369   4.145
21814WAT      O65683   0.577   7.066   1.505
21814WAT     H165684   0.597   7.028   1.415
21814WAT     H265685   0.494   7.121   1.501
21815WAT      O65686   8.621   1.376   7.496
21815WAT     H165687   8.660   1.459   7.455
21815WAT     H265688   8.537   1.400   7.544
21816WAT      O65689   1.992   1.285   9.496
21816WAT     H165690   1.989   1.244   9.405
21816WAT     H265691   1.982   1.384   9.488
21817WAT      O65692   2.971   1.036   5.334
21817WAT     H165693   3.018   1.045   5.247
21817WAT     H265694   3.037   1.021   5.407
21818WAT      O65695   3.977   8.563   3.187
21818WAT     H165696   4.021   8.490   3.240
21818WAT     H265697   3.889   8.531   3.154
21819WAT      O65698   1.718   7.074   2.379
21819WAT     H165699   1.691   7.171   2.377
21819WAT     H265700   1.686   7.033   2.465
21820WAT      O65701   9.358   0.411   4.632
21820WAT     H165702   9.388   0.472   4.705
21820WAT     H265703   9.266   0.439   4.601
21821WAT      O65704   8.507   8.710   0.121
21821WAT     H165705   8.580   8.779   0.119
21821WAT     H265706   8.514   8.651   0.041
21822WAT      O65707   0.500   0.077   4.897
21822WAT     H165708   0.539   0.079   4.805
21822WAT     H265709   0.442  -0.005   4.907
21823WAT      O65710   5.535   5.417   3.625
21823WAT     H165711   5.486   5.332   3.648
21823WAT     H265712   5.471   5.484   3.589
21824WAT      O65713   1.378   1.903   5.286
21824WAT     H165714   1.302   1.940   5.339
21824WAT     H265715   1.461   1.903   5.342
21825WAT      O65716   8.684   4.891   1.801
21825WAT     H165717   8.607   4.905   1.739
21825WAT     H265718   8.703   4.976   1.850
21826WAT      O65719   2.905   1.281   1.623
21826WAT     H165720   2.806   1.285   1.631
21826WAT     H265721   2.932   1.189   1.593
21827WAT      O65722   7.382   8.341   2.888
21827WAT     H165723   7.448   8.346   2.813
21827WAT     H265724   7.431   8.344   2.976
21828WAT      O65725   0.671   2.317   8.490
21828WAT     H165726   0.751   2.278   8.535
21828WAT     H265727   0.642   2.399   8.540
21829WAT      O65728   3.830   2.855   4.432
21829WAT     H165729   3.850   2.902   4.346
21829WAT     H265730   3.888   2.773   4.440
21830WAT      O65731   0.715   8.311   5.485
21830WAT     H165732   0.751   8.308   5.578
21830WAT     H265733   0.640   8.245   5.476
21831WAT      O65734   0.620   1.193   6.292
21831WAT     H165735   0.704   1.158   6.251
21831WAT     H265736   0.634   1.288   6.321
21832WAT      O65737   7.278   8.160   2.201
21832WAT     H165738   7.350   8.145   2.134
21832WAT     H265739   7.198   8.104   2.177
21833WAT      O65740   5.374   2.581   5.733
21833WAT     H165741   5.326   2.656   5.779
21833WAT     H265742   5.346   2.577   5.638
21834WAT      O65743   0.320   1.920   0.393
21834WAT     H165744   0.403   1.966   0.424
21834WAT     H265745   0.326   1.822   0.414
21835WAT      O65746   6.231   5.871   6.087
21835WAT     H165747   6.273   5.944   6.140
21835WAT     H265748   6.291   5.791   6.088
21836WAT      O65749   8.566   3.894   2.499
21836WAT     H165750   8.595   3.935   2.413
21836WAT     H265751   8.481   3.936   2.530
21837WAT      O65752   8.865   6.189   2.732
21837WAT     H165753   8.853   6.288   2.735
21837WAT     H265754   8.798   6.149   2.670
21838WAT      O65755   1.506   6.909   1.494
21838WAT     H165756   1.530   6.840   1.562
21838WAT     H265757   1.458   6.866   1.417
21839WAT      O65758   8.284   4.346   2.739
21839WAT     H165759   8.355   4.302   2.794
21839WAT     H265760   8.289   4.445   2.750
21840WAT      O65761   4.432   9.605   5.410
21840WAT     H165762   4.511   9.571   5.461
21840WAT     H265763   4.453   9.606   5.312
21841WAT      O65764   0.612   5.310   3.753
21841WAT     H165765   0.707   5.327   3.779
21841WAT     H265766   0.609   5.269   3.662
21842WAT      O65767   7.664   7.272   7.955
21842WAT     H165768   7.731   7.199   7.946
21842WAT     H265769   7.709   7.361   7.945
21843WAT      O65770   1.568   7.148   4.195
21843WAT     H165771   1.483   7.201   4.188
21843WAT     H265772   1.558   7.079   4.267
21844WAT      O65773   3.501   2.803   8.262
21844WAT     H165774   3.417   2.855   8.276
21844WAT     H265775   3.555   2.845   8.189
21845WAT      O65776   8.712   3.576   1.205
21845WAT     H165777   8.675   3.638   1.136
21845WAT     H265778   8.811   3.585   1.209
21846WAT      O65779   6.517   6.480   4.634
21846WAT     H165780   6.429   6.522   4.656
21846WAT     H265781   6.588   6.523   4.690
21847WAT      O65782   3.347   1.095   5.189
21847WAT     H165783   3.354   1.029   5.264
21847WAT     H265784   3.428   1.153   5.189
21848WAT      O65785   8.276   8.005   8.448
21848WAT     H165786   8.240   8.097   8.465
21848WAT     H265787   8.219   7.959   8.380
21849WAT      O65788   5.699   7.165   7.102
21849WAT     H165789   5.776   7.203   7.051
21849WAT     H265790   5.722   7.160   7.199
21850WAT      O65791   6.818   4.676   6.192
21850WAT     H165792   6.915   4.661   6.174
21850WAT     H265793   6.772   4.589   6.205
21851WAT      O65794   3.666   1.248   4.785
21851WAT     H165795   3.610   1.312   4.837
21851WAT     H265796   3.693   1.289   4.699
21852WAT      O65797   9.037   4.622   5.631
21852WAT     H165798   9.116   4.626   5.692
21852WAT     H265799   8.972   4.694   5.656
21853WAT      O65800   4.869   1.814   3.492
21853WAT     H165801   4.838   1.876   3.420
21853WAT     H265802   4.937   1.751   3.455
21854WAT      O65803   0.655   8.706   0.189
21854WAT     H165804   0.617   8.629   0.240
21854WAT     H265805   0.580   8.761   0.152
21855WAT      O65806   9.888   0.826   7.192
21855WAT     H165807   9.822   0.824   7.267
21855WAT     H265808   9.958   0.757   7.207
21856WAT      O65809   6.134   6.461   2.197
21856WAT     H165810   6.197   6.384   2.198
21856WAT     H265811   6.040   6.428   2.207
21857WAT      O65812   9.708   1.387   0.713
21857WAT     H165813   9.757   1.463   0.756
21857WAT     H265814   9.770   1.309   0.702
21858WAT      O65815   3.201   6.205   3.939
21858WAT     H165816   3.237   6.281   3.992
21858WAT     H265817   3.206   6.226   3.841
21859WAT      O65818   3.703   0.643   8.324
21859WAT     H165819   3.646   0.616   8.246
21859WAT     H265820   3.752   0.727   8.302
21860WAT      O65821   8.766   1.351   2.718
21860WAT     H165822   8.712   1.320   2.797
21860WAT     H265823   8.773   1.277   2.652
21861WAT      O65824   2.463   9.149   5.924
21861WAT     H165825   2.382   9.104   5.963
21861WAT     H265826   2.473   9.122   5.828
21862WAT      O65827   3.069   6.340   5.944
21862WAT     H165828   3.137   6.278   5.981
21862WAT     H265829   3.114   6.417   5.899
21863WAT      O65830   0.491   3.463   9.665
21863WAT     H165831   0.577   3.460   9.613
21863WAT     H265832   0.496   3.537   9.732
21864WAT      O65833   7.404   1.704   9.594
21864WAT     H165834   7.413   1.607   9.570
21864WAT     H265835   7.494   1.747   9.588
21865WAT      O65836   3.732   2.735   4.784
21865WAT     H165837   3.710   2.805   4.852
21865WAT     H265838   3.827   2.707   4.796
21866WAT      O65839   0.937   4.929   7.019
21866WAT     H165840   0.838   4.913   7.021
21866WAT     H265841   0.979   4.886   7.098
21867WAT      O65842   3.369   2.621   8.573
21867WAT     H165843   3.294   2.566   8.609
21867WAT     H265844   3.348   2.718   8.585
21868WAT      O65845   2.799   1.036   4.277
21868WAT     H165846   2.850   1.038   4.191
21868WAT     H265847   2.817   1.119   4.329
21869WAT      O65848   7.081   8.345   4.352
21869WAT     H165849   7.149   8.401   4.304
21869WAT     H265850   7.123   8.258   4.379
21870WAT      O65851   2.096   0.636   7.332
21870WAT     H165852   2.178   0.586   7.357
21870WAT     H265853   2.115   0.692   7.252
21871WAT      O65854   0.369   0.051   5.866
21871WAT     H165855   0.316  -0.025   5.905
21871WAT     H265856   0.422   0.018   5.788
21872WAT      O65857   3.747   9.542   4.596
21872WAT     H165858   3.781   9.473   4.532
21872WAT     H265859   3.711   9.497   4.677
21873WAT      O65860   2.955   4.897   3.586
21873WAT     H165861   3.019   4.826   3.559
21873WAT     H265862   2.865   4.879   3.545
21874WAT      O65863   0.642   5.821   8.101
21874WAT     H165864   0.595   5.897   8.056
21874WAT     H265865   0.581   5.780   8.170
21875WAT      O65866   1.471   1.769   9.403
21875WAT     H165867   1.447   1.853   9.354
21875WAT     H265868   1.470   1.785   9.501
21876WAT      O65869   7.142   9.420   5.725
21876WAT     H165870   7.057   9.368   5.717
21876WAT     H265871   7.125   9.516   5.703
21877WAT      O65872   1.289   9.532   5.589
21877WAT     H165873   1.239   9.486   5.515
21877WAT     H265874   1.278   9.631   5.580
21878WAT      O65875   9.848   4.658   7.673
21878WAT     H165876   9.889   4.589   7.733
21878WAT     H265877   9.815   4.735   7.728
21879WAT      O65878   1.182   5.431   9.531
21879WAT     H165879   1.221   5.487   9.458
21879WAT     H265880   1.214   5.465   9.619
21880WAT      O65881   6.211   2.390   4.835
21880WAT     H165882   6.280   2.449   4.877
21880WAT     H265883   6.205   2.304   4.887
21881WAT      O65884   6.888   5.038   0.850
21881WAT     H165885   6.948   5.009   0.776
21881WAT     H265886   6.799   4.994   0.840
21882WAT      O65887   1.882   1.456   2.486
21882WAT     H165888   1.803   1.453   2.547
21882WAT     H265889   1.877   1.380   2.421
21883WAT      O65890   2.897   5.389   9.009
21883WAT     H165891   2.865   5.457   9.076
21883WAT     H265892   2.930   5.308   9.057
21884WAT      O65893   4.294   0.617   0.102
21884WAT     H165894   4.339   0.566   0.029
21884WAT     H265895   4.267   0.555   0.176
21885WAT      O65896   5.709   3.822   2.603
21885WAT     H165897   5.663   3.889   2.662
21885WAT     H265898   5.743   3.746   2.659
21886WAT      O65899   4.856   2.933   4.187
21886WAT     H165900   4.918   2.879   4.243
21886WAT     H265901   4.762   2.909   4.208
21887WAT      O65902   2.353   7.340   6.687
21887WAT     H165903   2.374   7.366   6.592
21887WAT     H265904   2.327   7.244   6.691
21888WAT      O65905   5.937   8.389   3.085
21888WAT     H165906   6.030   8.360   3.061
21888WAT     H265907   5.908   8.461   3.023
21889WAT      O65908   5.294   2.941   9.068
21889WAT     H165909   5.280   2.979   8.977
21889WAT     H265910   5.262   2.846   9.070
21890WAT      O65911   6.466   1.238   5.470
21890WAT     H165912   6.469   1.310   5.538
21890WAT     H265913   6.423   1.273   5.386
21891WAT      O65914   7.736   2.889   5.121
21891WAT     H165915   7.829   2.856   5.101
21891WAT     H265916   7.677   2.811   5.142
21892WAT      O65917   7.213   4.338   1.547
21892WAT     H165918   7.245   4.263   1.604
21892WAT     H265919   7.259   4.335   1.458
21893WAT      O65920   6.138   5.940   8.275
21893WAT     H165921   6.112   6.009   8.343
21893WAT     H265922   6.187   5.866   8.321
21894WAT      O65923   8.225   8.664   0.598
21894WAT     H165924   8.223   8.564   0.597
21894WAT     H265925   8.166   8.699   0.525
21895WAT      O65926   2.806   3.701   1.867
21895WAT     H165927   2.904   3.720   1.877
21895WAT     H265928   2.760   3.782   1.830
21896WAT      O65929   6.837   6.961   8.787
21896WAT     H165930   6.909   6.891   8.785
21896WAT     H265931   6.782   6.953   8.704
21897WAT      O65932   3.104   1.230   9.144
21897WAT     H165933   3.060   1.318   9.162
21897WAT     H265934   3.066   1.161   9.206
21898WAT      O65935   8.557   9.412   7.693
21898WAT     H165936   8.558   9.401   7.792
21898WAT     H265937   8.548   9.322   7.649
21899WAT      O65938   1.354   8.053   1.185
21899WAT     H165939   1.444   8.096   1.182
21899WAT     H265940   1.346   7.998   1.269
21900WAT      O65941   2.554   6.618   5.051
21900WAT     H165942   2.493   6.684   5.007
21900WAT     H265943   2.615   6.666   5.114
21901WAT      O65944   3.529   6.808   9.529
21901WAT     H165945   3.527   6.712   9.555
21901WAT     H265946   3.624   6.841   9.530
21902WAT      O65947   6.512   6.300   0.708
21902WAT     H165948   6.415   6.312   0.729
21902WAT     H265949   6.550   6.386   0.674
21903WAT      O65950   6.156   2.520   0.391
21903WAT     H165951   6.226   2.556   0.329
21903WAT     H265952   6.179   2.426   0.416
21904WAT      O65953   4.364   6.884   5.199
21904WAT     H165954   4.401   6.972   5.169
21904WAT     H265955   4.317   6.896   5.287
21905WAT      O65956   6.690   4.176   7.067
21905WAT     H165957   6.734   4.087   7.064
21905WAT     H265958   6.693   4.219   6.977
21906WAT      O65959   4.052   8.809   4.358
21906WAT     H165960   4.091   8.743   4.422
21906WAT     H265961   4.093   8.796   4.268
21907WAT      O65962   2.246   6.780   6.227
21907WAT     H165963   2.219   6.789   6.131
21907WAT     H265964   2.344   6.794   6.236
21908WAT      O65965   7.276   5.478   5.417
21908WAT     H165966   7.346   5.467   5.488
21908WAT     H265967   7.227   5.564   5.432
21909WAT      O65968   9.342   7.466   5.305
21909WAT     H165969   9.268   7.450   5.370
21909WAT     H265970   9.309   7.447   5.212
21910WAT      O65971   4.972   8.771   7.251
21910WAT     H165972   4.884   8.780   7.205
21910WAT     H265973   5.044   8.761   7.183
21911WAT      O65974   5.363   1.320   4.574
21911WAT     H165975   5.385   1.232   4.531
21911WAT     H265976   5.439   1.349   4.631
21912WAT      O65977   6.862   6.393   3.058
21912WAT     H165978   6.847   6.487   3.027
21912WAT     H265979   6.922   6.394   3.138
21913WAT      O65980   7.437   0.177   9.094
21913WAT     H165981   7.479   0.106   9.038
21913WAT     H265982   7.494   0.258   9.093
21914WAT      O65983   5.854   1.399   3.723
21914WAT     H165984   5.944   1.434   3.749
21914WAT     H265985   5.810   1.463   3.661
21915WAT      O65986   2.838   8.496   6.733
21915WAT     H165987   2.758   8.521   6.679
21915WAT     H265988   2.846   8.558   6.811
21916WAT      O65989   0.681   1.529   6.583
21916WAT     H165990   0.724   1.618   6.567
21916WAT     H265991   0.687   1.505   6.680
21917WAT      O65992   1.114   8.167   1.213
21917WAT     H165993   1.194   8.108   1.227
21917WAT     H265994   1.086   8.206   1.301
21918WAT      O65995   4.584   8.715   2.804
21918WAT     H165996   4.665   8.760   2.842
21918WAT     H265997   4.547   8.771   2.730
21919WAT      O65998   5.496   2.101   2.378
21919WAT     H165999   5.510   2.046   2.295
21919WAT     H266000   5.497   2.040   2.458
21920WAT      O66001   5.251   1.359   2.755
21920WAT     H166002   5.247   1.447   2.707
21920WAT     H266003   5.341   1.347   2.795
21921WAT      O66004   5.124   7.189   1.113
21921WAT     H166005   5.172   7.227   1.192
21921WAT     H266006   5.028   7.173   1.137
21922WAT      O66007   8.858   5.508   9.150
21922WAT     H166008   8.896   5.459   9.228
21922WAT     H266009   8.758   5.506   9.155
21923WAT      O66010   7.725   0.141   6.479
21923WAT     H166011   7.719   0.241   6.478
21923WAT     H266012   7.707   0.108   6.572
21924WAT      O66013   8.517   3.958   5.670
21924WAT     H166014   8.432   3.905   5.673
21924WAT     H266015   8.560   3.958   5.760
21925WAT      O66016   4.251   4.104   9.543
21925WAT     H166017   4.258   4.087   9.444
21925WAT     H266018   4.300   4.033   9.593
21926WAT      O66019   1.965   0.578   4.169
21926WAT     H166020   1.891   0.601   4.233
21926WAT     H266021   2.049   0.559   4.220
21927WAT      O66022   2.332   6.698   3.303
21927WAT     H166023   2.397   6.727   3.233
21927WAT     H266024   2.369   6.718   3.394
21928WAT      O66025   5.193   4.643   7.265
21928WAT     H166026   5.129   4.586   7.316
21928WAT     H266027   5.226   4.717   7.324
21929WAT      O66028   1.383   2.112   6.719
21929WAT     H166029   1.407   2.153   6.806
21929WAT     H266030   1.305   2.050   6.731
21930WAT      O66031   5.327   0.741   4.430
21930WAT     H166032   5.255   0.744   4.361
21930WAT     H266033   5.400   0.681   4.398
21931WAT      O66034   2.653   3.892   1.764
21931WAT     H166035   2.601   3.902   1.679
21931WAT     H266036   2.615   3.952   1.834
21932WAT      O66037   8.855   8.804   6.835
21932WAT     H166038   8.872   8.842   6.926
21932WAT     H266039   8.814   8.713   6.844
21933WAT      O66040   0.377   9.015   1.674
21933WAT     H166041   0.428   8.993   1.590
21933WAT     H266042   0.408   9.103   1.709
21934WAT      O66043   9.842   8.162   6.573
21934WAT     H166044   9.908   8.126   6.639
21934WAT     H266045   9.843   8.262   6.576
21935WAT      O66046   5.746   2.566   5.124
21935WAT     H166047   5.743   2.633   5.198
21935WAT     H266048   5.749   2.474   5.162
21936WAT      O66049   2.209   8.336   1.356
21936WAT     H166050   2.299   8.343   1.398
21936WAT     H266051   2.217   8.344   1.257
21937WAT      O66052   4.415   3.226   3.008
21937WAT     H166053   4.340   3.291   3.024
21937WAT     H266054   4.387   3.135   3.037
21938WAT      O66055   9.632   1.957   6.671
21938WAT     H166056   9.710   1.908   6.633
21938WAT     H266057   9.653   1.988   6.763
21939WAT      O66058   3.765   8.355   2.855
21939WAT     H166059   3.816   8.291   2.798
21939WAT     H266060   3.714   8.419   2.797
21940WAT      O66061   3.109   4.236   1.400
21940WAT     H166062   3.046   4.279   1.464
21940WAT     H266063   3.075   4.145   1.374
21941WAT      O66064   7.437   6.182   4.128
21941WAT     H166065   7.501   6.247   4.086
21941WAT     H266066   7.346   6.198   4.091
21942WAT      O66067   3.727   0.147   3.852
21942WAT     H166068   3.770   0.214   3.912
21942WAT     H266069   3.638   0.121   3.888
21943WAT      O66070   0.861   4.432   4.681
21943WAT     H166071   0.812   4.414   4.596
21943WAT     H266072   0.877   4.346   4.729
21944WAT      O66073   2.232   7.130   2.278
21944WAT     H166074   2.203   7.221   2.251
21944WAT     H266075   2.158   7.084   2.327
21945WAT      O66076   9.665   4.889   3.558
21945WAT     H166077   9.730   4.857   3.488
21945WAT     H266078   9.691   4.851   3.647
21946WAT      O66079   8.336   3.680   6.550
21946WAT     H166080   8.255   3.688   6.608
21946WAT     H266081   8.335   3.754   6.482
21947WAT      O66082   6.081   8.419   8.671
21947WAT     H166083   6.031   8.366   8.602
21947WAT     H266084   6.112   8.506   8.630
21948WAT      O66085   1.137   1.040   7.366
21948WAT     H166086   1.095   0.973   7.305
21948WAT     H266087   1.210   1.088   7.317
21949WAT      O66088   5.737   3.268   6.141
21949WAT     H166089   5.683   3.348   6.167
21949WAT     H266090   5.829   3.276   6.179
21950WAT      O66091   2.404   3.207   0.020
21950WAT     H166092   2.499   3.202  -0.008
21950WAT     H266093   2.353   3.266  -0.043
21951WAT      O66094   8.454   0.821   8.907
21951WAT     H166095   8.437   0.855   8.999
21951WAT     H266096   8.518   0.882   8.860
21952WAT      O66097   6.789   9.687   2.710
21952WAT     H166098   6.739   9.651   2.632
21952WAT     H266099   6.876   9.726   2.680
21953WAT      O66100   4.707   4.769   0.531
21953WAT     H166101   4.684   4.811   0.619
21953WAT     H266102   4.622   4.749   0.482
21954WAT      O66103   5.906   8.979   9.565
21954WAT     H166104   5.917   8.896   9.620
21954WAT     H266105   5.842   8.961   9.490
21955WAT      O66106   2.102   3.941   6.843
21955WAT     H166107   2.012   3.921   6.805
21955WAT     H266108   2.136   3.861   6.892
21956WAT      O66109   4.023   7.489   7.504
21956WAT     H166110   3.989   7.570   7.457
21956WAT     H266111   3.951   7.419   7.505
21957WAT      O66112   8.604   9.581   3.657
21957WAT     H166113   8.620   9.503   3.597
21957WAT     H266114   8.584   9.662   3.601
21958WAT      O66115   2.322   6.801   0.769
21958WAT     H166116   2.399   6.776   0.709
21958WAT     H266117   2.334   6.757   0.858
21959WAT      O66118   8.412   7.256   6.109
21959WAT     H166119   8.485   7.285   6.047
21959WAT     H266120   8.342   7.206   6.057
21960WAT      O66121   9.582   5.798   9.795
21960WAT     H166122   9.653   5.790   9.725
21960WAT     H266123   9.600   5.732   9.868
21961WAT      O66124   9.654   6.180   2.665
21961WAT     H166125   9.604   6.265   2.648
21961WAT     H266126   9.593   6.112   2.703
21962WAT      O66127   2.462   2.058   6.493
21962WAT     H166128   2.467   1.959   6.499
21962WAT     H266129   2.393   2.093   6.556
21963WAT      O66130   1.117   8.286   4.038
21963WAT     H166131   1.079   8.200   4.072
21963WAT     H266132   1.142   8.344   4.115
21964WAT      O66133   5.735   8.034   5.191
21964WAT     H166134   5.684   7.967   5.137
21964WAT     H266135   5.672   8.103   5.227
21965WAT      O66136   4.449   7.688   4.974
21965WAT     H166137   4.508   7.717   4.899
21965WAT     H266138   4.363   7.652   4.936
21966WAT      O66139   6.232   3.210   6.535
21966WAT     H166140   6.143   3.181   6.499
21966WAT     H266141   6.226   3.225   6.633
21967WAT      O66142   8.292   3.320   0.534
21967WAT     H166143   8.335   3.235   0.505
21967WAT     H266144   8.217   3.343   0.472
21968WAT      O66145   8.417   5.558   3.410
21968WAT     H166146   8.403   5.469   3.455
21968WAT     H266147   8.465   5.619   3.473
21969WAT      O66148   3.822   0.639   9.267
21969WAT     H166149   3.905   0.610   9.219
21969WAT     H266150   3.847   0.674   9.358
21970WAT      O66151   8.983   3.811   0.008
21970WAT     H166152   9.004   3.777  -0.084
21970WAT     H266153   8.898   3.864   0.005
21971WAT      O66154   7.175   8.183   4.037
21971WAT     H166155   7.122   8.253   3.988
21971WAT     H266156   7.262   8.222   4.067
21972WAT      O66157   9.160   6.101   6.795
21972WAT     H166158   9.199   6.009   6.798
21972WAT     H266159   9.117   6.117   6.706
21973WAT      O66160   6.395   1.019   9.714
21973WAT     H166161   6.492   0.997   9.724
21973WAT     H266162   6.370   1.089   9.781
21974WAT      O66163   7.503   9.556   7.403
21974WAT     H166164   7.446   9.496   7.459
21974WAT     H266165   7.593   9.513   7.390
21975WAT      O66166   1.613   4.165   8.579
21975WAT     H166167   1.648   4.170   8.485
21975WAT     H266168   1.538   4.230   8.590
21976WAT      O66169   2.534   7.309   0.337
21976WAT     H166170   2.451   7.301   0.281
21976WAT     H266171   2.554   7.220   0.379
21977WAT      O66172   7.830   5.172   7.207
21977WAT     H166173   7.859   5.202   7.116
21977WAT     H266174   7.730   5.174   7.213
21978WAT      O66175   9.832   6.435   8.949
21978WAT     H166176   9.901   6.425   8.877
21978WAT     H266177   9.813   6.532   8.963
21979WAT      O66178   5.934   8.742   1.510
21979WAT     H166179   5.924   8.798   1.592
21979WAT     H266180   5.977   8.797   1.438
21980WAT      O66181   5.398   0.589   9.800
21980WAT     H166182   5.448   0.514   9.756
21980WAT     H266183   5.458   0.635   9.866
21981WAT      O66184   5.122   0.676   0.822
21981WAT     H166185   5.051   0.738   0.788
21981WAT     H266186   5.147   0.612   0.749
21982WAT      O66187   2.205   0.274   0.950
21982WAT     H166188   2.145   0.285   0.871
21982WAT     H266189   2.170   0.329   1.026
21983WAT      O66190   1.125   9.102   4.922
21983WAT     H166191   1.075   9.023   4.887
21983WAT     H266192   1.104   9.182   4.866
21984WAT      O66193   2.037   6.644   2.908
21984WAT     H166194   2.134   6.667   2.903
21984WAT     H266195   1.998   6.679   2.993
21985WAT      O66196   8.602   8.995   1.584
21985WAT     H166197   8.614   8.910   1.636
21985WAT     H266198   8.592   9.072   1.646
21986WAT      O66199   6.824   8.242   7.932
21986WAT     H166200   6.903   8.248   7.871
21986WAT     H266201   6.854   8.255   8.027
21987WAT      O66202   9.413   3.425   1.367
21987WAT     H166203   9.363   3.479   1.299
21987WAT     H266204   9.435   3.335   1.329
21988WAT      O66205   2.586   5.468   1.427
21988WAT     H166206   2.565   5.404   1.353
21988WAT     H266207   2.682   5.459   1.452
21989WAT      O66208   8.493   8.988   3.863
21989WAT     H166209   8.476   8.974   3.960
21989WAT     H266210   8.407   8.984   3.813
21990WAT      O66211   2.148   8.432   5.982
21990WAT     H166212   2.174   8.355   6.040
21990WAT     H266213   2.056   8.463   6.007
21991WAT      O66214   4.137   7.062   2.114
21991WAT     H166215   4.233   7.036   2.104
21991WAT     H266216   4.083   6.981   2.135
21992WAT      O66217   9.261   2.651   5.786
21992WAT     H166218   9.197   2.606   5.849
21992WAT     H266219   9.249   2.750   5.793
21993WAT      O66220   4.223   6.528   5.752
21993WAT     H166221   4.199   6.466   5.827
21993WAT     H266222   4.140   6.556   5.704
21994WAT      O66223   8.034   3.045   2.101
21994WAT     H166224   8.086   3.107   2.041
21994WAT     H266225   7.944   3.085   2.119
21995WAT      O66226   9.573   3.871   7.760
21995WAT     H166227   9.542   3.789   7.711
21995WAT     H266228   9.673   3.870   7.766
21996WAT      O66229   7.174   0.990   8.763
21996WAT     H166230   7.240   1.062   8.744
21996WAT     H266231   7.081   1.028   8.760
21997WAT      O66232   4.884   4.472   2.238
21997WAT     H166233   4.822   4.489   2.314
21997WAT     H266234   4.914   4.560   2.200
21998WAT      O66235   0.521   6.486   3.457
21998WAT     H166236   0.529   6.461   3.554
21998WAT     H266237   0.535   6.404   3.401
21999WAT      O66238   7.476   1.279   0.832
21999WAT     H166239   7.478   1.306   0.929
21999WAT     H266240   7.547   1.212   0.815
22000WAT      O66241   6.146   2.965   8.696
22000WAT     H166242   6.234   2.935   8.731
22000WAT     H266243   6.079   2.967   8.770
22001WAT      O66244   1.962   5.120   6.916
22001WAT     H166245   2.047   5.120   6.864
22001WAT     H266246   1.939   5.213   6.943
22002WAT      O66247   2.120   9.486   4.013
22002WAT     H166248   2.172   9.428   3.949
22002WAT     H266249   2.070   9.556   3.962
22003WAT      O66250   6.818   4.467   0.953
22003WAT     H166251   6.857   4.548   0.997
22003WAT     H266252   6.868   4.386   0.983
22004WAT      O66253   0.525   3.857   6.139
22004WAT     H166254   0.594   3.887   6.074
22004WAT     H266255   0.499   3.762   6.119
22005WAT      O66256   8.464   4.997   0.035
22005WAT     H166257   8.491   5.021   0.128
22005WAT     H266258   8.397   5.063   0.002
22006WAT      O66259   4.028   7.788   9.779
22006WAT     H166260   3.979   7.876   9.781
22006WAT     H266261   3.993   7.732   9.703
22007WAT      O66262   6.871   4.132   8.849
22007WAT     H166263   6.941   4.154   8.917
22007WAT     H266264   6.890   4.180   8.764
22008WAT      O66265   2.269   3.059   1.961
22008WAT     H166266   2.174   3.080   1.942
22008WAT     H266267   2.289   2.965   1.933
22009WAT      O66268   3.902   9.247   9.308
22009WAT     H166269   3.864   9.184   9.376
22009WAT     H266270   3.842   9.327   9.301
22010WAT      O66271   8.897   4.362   7.541
22010WAT     H166272   8.899   4.318   7.631
22010WAT     H266273   8.804   4.392   7.520
22011WAT      O66274   6.930   6.992   3.284
22011WAT     H166275   6.978   6.974   3.370
22011WAT     H266276   6.893   7.085   3.285
22012WAT      O66277   5.635   9.479   0.710
22012WAT     H166278   5.633   9.552   0.642
22012WAT     H266279   5.715   9.421   0.693
22013WAT      O66280   6.085   9.826   1.881
22013WAT     H166281   6.105   9.893   1.810
22013WAT     H266282   6.163   9.820   1.944
22014WAT      O66283   2.012   2.263   0.275
22014WAT     H166284   1.937   2.321   0.306
22014WAT     H266285   2.059   2.307   0.198
22015WAT      O66286   3.171   7.908   5.544
22015WAT     H166287   3.176   7.872   5.638
22015WAT     H266288   3.105   7.983   5.541
22016WAT      O66289   1.273   6.458   4.289
22016WAT     H166290   1.195   6.519   4.296
22016WAT     H266291   1.250   6.369   4.329
22017WAT      O66292   5.669   5.503   8.558
22017WAT     H166293   5.682   5.539   8.465
22017WAT     H266294   5.758   5.482   8.598
22018WAT      O66295   4.221   5.290   6.595
22018WAT     H166296   4.182   5.238   6.670
22018WAT     H266297   4.157   5.290   6.518
22019WAT      O66298   6.241   3.637   1.237
22019WAT     H166299   6.160   3.602   1.189
22019WAT     H266300   6.232   3.620   1.335
22020WAT      O66301   9.178   2.765   1.900
22020WAT     H166302   9.200   2.851   1.855
22020WAT     H266303   9.162   2.695   1.830
22021WAT      O66304   0.308   4.997   3.314
22021WAT     H166305   0.276   4.906   3.289
22021WAT     H266306   0.346   4.994   3.406
22022WAT      O66307   2.571   7.351   2.912
22022WAT     H166308   2.495   7.361   2.848
22022WAT     H266309   2.639   7.422   2.894
22023WAT      O66310   5.516   5.358   4.143
22023WAT     H166311   5.501   5.451   4.108
22023WAT     H266312   5.595   5.318   4.097
22024WAT      O66313   1.207   5.032   9.515
22024WAT     H166314   1.291   5.024   9.460
22024WAT     H266315   1.217   4.978   9.598
22025WAT      O66316   5.601   8.753   2.117
22025WAT     H166317   5.514   8.804   2.117
22025WAT     H266318   5.639   8.754   2.025
22026WAT      O66319   7.563   5.051   1.491
22026WAT     H166320   7.501   4.988   1.539
22026WAT     H266321   7.568   5.137   1.541
22027WAT      O66322   7.613   8.817   5.222
22027WAT     H166323   7.711   8.818   5.199
22027WAT     H266324   7.599   8.860   5.311
22028WAT      O66325   3.185   2.297   4.803
22028WAT     H166326   3.153   2.228   4.867
22028WAT     H266327   3.264   2.262   4.752
22029WAT      O66328   7.077   9.568   6.351
22029WAT     H166329   7.025   9.510   6.287
22029WAT     H266330   7.157   9.517   6.384
22030WAT      O66331   7.842   1.505   5.085
22030WAT     H166332   7.812   1.471   5.174
22030WAT     H266333   7.921   1.451   5.054
22031WAT      O66334   4.637   4.489   1.901
22031WAT     H166335   4.662   4.584   1.919
22031WAT     H266336   4.720   4.433   1.899
22032WAT      O66337   6.476   3.268   6.398
22032WAT     H166338   6.468   3.241   6.302
22032WAT     H266339   6.388   3.254   6.443
22033WAT      O66340   2.142   6.091   9.736
22033WAT     H166341   2.177   6.166   9.681
22033WAT     H266342   2.214   6.059   9.798
22034WAT      O66343   5.725   7.474   0.842
22034WAT     H166344   5.642   7.419   0.834
22034WAT     H266345   5.730   7.538   0.764
22035WAT      O66346   3.456   0.640   0.675
22035WAT     H166347   3.470   0.567   0.742
22035WAT     H266348   3.395   0.709   0.714
22036WAT      O66349   0.642   4.520   7.844
22036WAT     H166350   0.575   4.449   7.866
22036WAT     H266351   0.612   4.607   7.882
22037WAT      O66352   9.842   5.057   1.774
22037WAT     H166353   9.886   5.102   1.696
22037WAT     H266354   9.891   4.974   1.797
22038WAT      O66355   7.720   6.362   1.503
22038WAT     H166356   7.643   6.308   1.538
22038WAT     H266357   7.685   6.446   1.462
22039WAT      O66358   1.641   0.928   6.848
22039WAT     H166359   1.630   0.867   6.770
22039WAT     H266360   1.637   0.875   6.933
22040WAT      O66361   1.004   4.831   5.842
22040WAT     H166362   1.048   4.881   5.767
22040WAT     H266363   1.063   4.834   5.922
22041WAT      O66364   8.090   1.511   9.417
22041WAT     H166365   7.993   1.515   9.443
22041WAT     H266366   8.116   1.596   9.372
22042WAT      O66367   6.601   6.014   2.001
22042WAT     H166368   6.640   6.099   2.036
22042WAT     H266369   6.628   6.000   1.906
22043WAT      O66370   1.418   6.599   0.522
22043WAT     H166371   1.330   6.614   0.568
22043WAT     H266372   1.420   6.652   0.438
22044WAT      O66373   4.498   8.474   9.771
22044WAT     H166374   4.502   8.477   9.871
22044WAT     H266375   4.560   8.403   9.737
22045WAT      O66376   9.837   9.690   5.981
22045WAT     H166377   9.822   9.761   6.050
22045WAT     H266378   9.757   9.684   5.922
22046WAT      O66379   8.289   6.018   5.060
22046WAT     H166380   8.317   6.073   5.139
22046WAT     H266381   8.240   5.937   5.093
22047WAT      O66382   3.824   4.250   3.113
22047WAT     H166383   3.726   4.250   3.134
22047WAT     H266384   3.839   4.206   3.024
22048WAT      O66385   8.429   9.639   4.086
22048WAT     H166386   8.354   9.692   4.046
22048WAT     H266387   8.461   9.685   4.168
22049WAT      O66388   2.339   0.141   3.190
22049WAT     H166389   2.325   0.165   3.094
22049WAT     H266390   2.426   0.092   3.199
22050WAT      O66391   8.101   1.384   5.015
22050WAT     H166392   8.100   1.452   4.942
22050WAT     H266393   8.171   1.315   4.995
22051WAT      O66394   0.409   1.059   6.228
22051WAT     H166395   0.334   1.126   6.220
22051WAT     H266396   0.492   1.107   6.256
22052WAT      O66397   2.468   2.358   9.504
22052WAT     H166398   2.467   2.448   9.462
22052WAT     H266399   2.514   2.293   9.443
22053WAT      O66400   3.158   0.965   1.766
22053WAT     H166401   3.143   0.867   1.772
22053WAT     H266402   3.231   0.991   1.830
22054WAT      O66403   2.635   6.545   5.377
22054WAT     H166404   2.723   6.502   5.359
22054WAT     H266405   2.565   6.474   5.385
22055WAT      O66406   7.600   5.110   3.001
22055WAT     H166407   7.623   5.048   3.076
22055WAT     H266408   7.560   5.058   2.926
22056WAT      O66409   0.608   9.322   0.677
22056WAT     H166410   0.516   9.324   0.638
22056WAT     H266411   0.660   9.401   0.645
22057WAT      O66412   0.566   1.227   8.607
22057WAT     H166413   0.482   1.218   8.662
22057WAT     H266414   0.645   1.228   8.668
22058WAT      O66415   4.542   7.277   8.003
22058WAT     H166416   4.471   7.226   7.954
22058WAT     H266417   4.500   7.330   8.077
22059WAT      O66418   1.809   2.313   7.820
22059WAT     H166419   1.745   2.388   7.837
22059WAT     H266420   1.804   2.247   7.895
22060WAT      O66421   0.475   5.672   8.727
22060WAT     H166422   0.403   5.609   8.755
22060WAT     H266423   0.521   5.708   8.808
22061WAT      O66424   3.635   7.120   5.405
22061WAT     H166425   3.618   7.124   5.306
22061WAT     H266426   3.672   7.030   5.428
22062WAT      O66427   7.634   5.119   1.217
22062WAT     H166428   7.585   5.080   1.295
22062WAT     H266429   7.707   5.057   1.188
22063WAT      O66430   7.066   2.222   7.080
22063WAT     H166431   6.967   2.206   7.073
22063WAT     H266432   7.087   2.258   7.171
22064WAT      O66433   3.374   5.496   4.408
22064WAT     H166434   3.314   5.435   4.459
22064WAT     H266435   3.377   5.467   4.312
22065WAT      O66436   0.548   8.592   1.071
22065WAT     H166437   0.480   8.647   1.120
22065WAT     H266438   0.605   8.543   1.137
22066WAT      O66439   9.147   6.184   2.670
22066WAT     H166440   9.050   6.204   2.684
22066WAT     H266441   9.157   6.121   2.593
22067WAT      O66442   4.369   0.754   3.832
22067WAT     H166443   4.327   0.663   3.831
22067WAT     H266444   4.469   0.744   3.836
22068WAT      O66445   5.895   3.901   4.157
22068WAT     H166446   5.835   3.860   4.089
22068WAT     H266447   5.951   3.831   4.200
22069WAT      O66448   1.350   5.560   0.644
22069WAT     H166449   1.350   5.647   0.693
22069WAT     H266450   1.310   5.489   0.702
22070WAT      O66451   4.010   8.427   0.128
22070WAT     H166452   4.041   8.492   0.197
22070WAT     H266453   4.087   8.397   0.073
22071WAT      O66454   2.971   8.100   9.312
22071WAT     H166455   2.931   8.138   9.396
22071WAT     H266456   2.915   8.127   9.234
22072WAT      O66457   6.063   3.546   2.888
22072WAT     H166458   6.132   3.479   2.913
22072WAT     H266459   6.105   3.617   2.831
22073WAT      O66460   9.107   5.860   3.425
22073WAT     H166461   9.044   5.898   3.357
22073WAT     H266462   9.113   5.761   3.415
22074WAT      O66463   5.511   7.927   3.738
22074WAT     H166464   5.595   7.929   3.683
22074WAT     H266465   5.433   7.951   3.680
22075WAT      O66466   0.520   5.634   1.043
22075WAT     H166467   0.581   5.556   1.029
22075WAT     H266468   0.475   5.625   1.132
22076WAT      O66469   8.420   7.325   8.392
22076WAT     H166470   8.488   7.357   8.326
22076WAT     H266471   8.455   7.243   8.438
22077WAT      O66472   3.167   6.921   3.275
22077WAT     H166473   3.263   6.892   3.273
22077WAT     H266474   3.114   6.864   3.212
22078WAT      O66475   6.869   8.791   7.323
22078WAT     H166476   6.813   8.735   7.263
22078WAT     H266477   6.851   8.765   7.418
22079WAT      O66478   9.474   1.678   3.224
22079WAT     H166479   9.566   1.695   3.188
22079WAT     H266480   9.461   1.580   3.239
22080WAT      O66481   8.475   7.238   6.525
22080WAT     H166482   8.388   7.189   6.527
22080WAT     H266483   8.536   7.196   6.458
22081WAT      O66484   5.166   0.749   3.794
22081WAT     H166485   5.211   0.664   3.769
22081WAT     H266486   5.116   0.736   3.880
22082WAT      O66487   7.768   5.274   9.638
22082WAT     H166488   7.821   5.359   9.643
22082WAT     H266489   7.826   5.200   9.604
22083WAT      O66490   7.762   4.803   2.261
22083WAT     H166491   7.816   4.853   2.194
22083WAT     H266492   7.737   4.863   2.337
22084WAT      O66493   9.396   7.741   5.063
22084WAT     H166494   9.419   7.835   5.036
22084WAT     H266495   9.464   7.708   5.129
22085WAT      O66496   6.059   6.430   8.281
22085WAT     H166497   6.148   6.387   8.296
22085WAT     H266498   6.010   6.434   8.368
22086WAT      O66499   4.731   2.473   7.215
22086WAT     H166500   4.669   2.492   7.139
22086WAT     H266501   4.774   2.558   7.246
22087WAT      O66502   7.663   5.321   6.438
22087WAT     H166503   7.643   5.223   6.429
22087WAT     H266504   7.650   5.365   6.350
22088WAT      O66505   3.413   7.308   0.503
22088WAT     H166506   3.316   7.320   0.485
22088WAT     H266507   3.467   7.349   0.429
22089WAT      O66508   7.583   8.775   4.250
22089WAT     H166509   7.516   8.778   4.324
22089WAT     H266510   7.598   8.681   4.221
22090WAT      O66511   8.962   8.198   2.113
22090WAT     H166512   9.001   8.111   2.083
22090WAT     H266513   9.024   8.241   2.179
22091WAT      O66514   0.432   7.743   2.286
22091WAT     H166515   0.375   7.819   2.253
22091WAT     H266516   0.529   7.770   2.282
22092WAT      O66517   5.839   3.011   5.443
22092WAT     H166518   5.840   3.023   5.543
22092WAT     H266519   5.932   2.993   5.411
22093WAT      O66520   9.025   5.740   4.556
22093WAT     H166521   8.978   5.822   4.523
22093WAT     H266522   9.088   5.765   4.629
22094WAT      O66523   2.628   9.029   1.673
22094WAT     H166524   2.658   9.123   1.658
22094WAT     H266525   2.579   9.024   1.760
22095WAT      O66526   1.595   0.103   9.014
22095WAT     H166527   1.600   0.007   9.043
22095WAT     H266528   1.642   0.160   9.081
22096WAT      O66529   4.370   0.567   6.463
22096WAT     H166530   4.384   0.601   6.370
22096WAT     H266531   4.349   0.469   6.461
22097WAT      O66532   1.584   3.690   6.592
22097WAT     H166533   1.554   3.635   6.514
22097WAT     H266534   1.618   3.778   6.560
22098WAT      O66535   2.886   5.124   2.768
22098WAT     H166536   2.840   5.170   2.843
22098WAT     H266537   2.983   5.149   2.768
22099WAT      O66538   0.634   9.767   3.613
22099WAT     H166539   0.711   9.757   3.550
22099WAT     H266540   0.560   9.816   3.567
22100WAT      O66541   9.168   0.231   7.151
22100WAT     H166542   9.254   0.201   7.109
22100WAT     H266543   9.185   0.255   7.247
22101WAT      O66544   8.866   1.360   6.342
22101WAT     H166545   8.946   1.321   6.387
22101WAT     H266546   8.824   1.292   6.282
22102WAT      O66547   8.009   3.996   7.824
22102WAT     H166548   8.012   4.046   7.910
22102WAT     H266549   7.928   3.938   7.821
22103WAT      O66550   2.178   9.658   7.405
22103WAT     H166551   2.104   9.723   7.388
22103WAT     H266552   2.206   9.615   7.319
22104WAT      O66553   4.031   0.579   9.052
22104WAT     H166554   4.098   0.529   8.997
22104WAT     H266555   3.980   0.642   8.994
22105WAT      O66556   8.674   0.189   7.196
22105WAT     H166557   8.583   0.200   7.235
22105WAT     H266558   8.722   0.115   7.243
22106WAT      O66559   3.284   4.451   6.922
22106WAT     H166560   3.200   4.398   6.907
22106WAT     H266561   3.263   4.533   6.974
22107WAT      O66562   9.810   8.633   8.319
22107WAT     H166563   9.889   8.681   8.357
22107WAT     H266564   9.810   8.538   8.349
22108WAT      O66565   6.381   7.626   3.352
22108WAT     H166566   6.325   7.701   3.387
22108WAT     H266567   6.353   7.605   3.258
22109WAT      O66568   2.136   1.175   0.171
22109WAT     H166569   2.083   1.098   0.208
22109WAT     H266570   2.160   1.237   0.246
22110WAT      O66571   2.595   5.810   3.540
22110WAT     H166572   2.545   5.741   3.487
22110WAT     H266573   2.656   5.765   3.605
22111WAT      O66574   4.169   5.045   2.801
22111WAT     H166575   4.151   5.012   2.708
22111WAT     H266576   4.262   5.082   2.805
22112WAT      O66577   1.023   3.714   8.783
22112WAT     H166578   1.041   3.760   8.870
22112WAT     H266579   1.109   3.702   8.733
22113WAT      O66580   5.888   8.450   4.744
22113WAT     H166581   5.822   8.486   4.811
22113WAT     H266582   5.980   8.483   4.768
22114WAT      O66583   2.996   2.948   4.914
22114WAT     H166584   3.041   3.037   4.921
22114WAT     H266585   2.907   2.953   4.960
22115WAT      O66586   5.657   5.928   3.803
22115WAT     H166587   5.650   6.010   3.747
22115WAT     H266588   5.645   5.847   3.744
22116WAT      O66589   0.247   5.413   8.273
22116WAT     H166590   0.177   5.361   8.321
22116WAT     H266591   0.208   5.455   8.191
22117WAT      O66592   7.439   0.017   5.274
22117WAT     H166593   7.453   0.110   5.308
22117WAT     H266594   7.459  -0.049   5.348
22118WAT      O66595   6.816   2.953   2.730
22118WAT     H166596   6.855   2.899   2.805
22118WAT     H266597   6.771   2.892   2.666
22119WAT      O66598   0.745   0.428   0.981
22119WAT     H166599   0.839   0.457   0.960
22119WAT     H266600   0.743   0.385   1.071
22120WAT      O66601   5.671   2.585   6.305
22120WAT     H166602   5.683   2.561   6.401
22120WAT     H266603   5.586   2.544   6.271
22121WAT      O66604   0.261   2.887   4.208
22121WAT     H166605   0.231   2.842   4.291
22121WAT     H266606   0.220   2.978   4.202
22122WAT      O66607   4.911   2.685   8.586
22122WAT     H166608   4.844   2.638   8.644
22122WAT     H266609   4.880   2.682   8.491
22123WAT      O66610   1.850   8.039   1.888
22123WAT     H166611   1.894   8.061   1.976
22123WAT     H266612   1.755   8.072   1.889
22124WAT      O66613   4.355   5.936   3.973
22124WAT     H166614   4.256   5.925   3.973
22124WAT     H266615   4.398   5.845   3.971
22125WAT      O66616   7.355   0.250   0.869
22125WAT     H166617   7.423   0.221   0.936
22125WAT     H266618   7.358   0.189   0.789
22126WAT      O66619   4.969   7.344   0.721
22126WAT     H166620   4.927   7.298   0.643
22126WAT     H266621   5.064   7.315   0.731
22127WAT      O66622   9.391   8.741   8.995
22127WAT     H166623   9.294   8.766   9.004
22127WAT     H266624   9.442   8.779   9.072
22128WAT      O66625   8.261   5.496   4.861
22128WAT     H166626   8.265   5.573   4.797
22128WAT     H266627   8.178   5.443   4.844
22129WAT      O66628   7.524   0.245   8.483
22129WAT     H166629   7.530   0.331   8.533
22129WAT     H266630   7.433   0.236   8.442
22130WAT      O66631   0.743   0.783   2.441
22130WAT     H166632   0.736   0.883   2.430
22130WAT     H266633   0.809   0.762   2.513
22131WAT      O66634   9.804   1.059   1.428
22131WAT     H166635   9.708   1.065   1.454
22131WAT     H266636   9.842   0.973   1.461
22132WAT      O66637   6.752   1.082   1.654
22132WAT     H166638   6.820   1.034   1.710
22132WAT     H266639   6.796   1.118   1.572
22133WAT      O66640   0.348   8.380   4.414
22133WAT     H166641   0.257   8.347   4.442
22133WAT     H266642   0.361   8.362   4.317
22134WAT      O66643   3.373   2.216   4.595
22134WAT     H166644   3.354   2.138   4.534
22134WAT     H266645   3.472   2.225   4.608
22135WAT      O66646   2.148   0.218   4.000
22135WAT     H166647   2.240   0.222   4.039
22135WAT     H266648   2.109   0.310   3.996
22136WAT      O66649   1.754   0.268   2.586
22136WAT     H166650   1.761   0.169   2.599
22136WAT     H266651   1.675   0.303   2.636
22137WAT      O66652   8.145   0.148   5.669
22137WAT     H166653   8.177   0.173   5.761
22137WAT     H266654   8.112   0.054   5.670
22138WAT      O66655   3.934   8.730   2.508
22138WAT     H166656   3.865   8.706   2.440
22138WAT     H266657   3.926   8.827   2.530
22139WAT      O66658   9.151   9.602   2.272
22139WAT     H166659   9.105   9.561   2.193
22139WAT     H266660   9.220   9.667   2.240
22140WAT      O66661   4.167   5.494   4.289
22140WAT     H166662   4.242   5.558   4.272
22140WAT     H266663   4.080   5.537   4.261
22141WAT      O66664   1.032   1.839   8.681
22141WAT     H166665   0.937   1.868   8.695
22141WAT     H266666   1.077   1.901   8.617
22142WAT      O66667   2.574   5.464   3.962
22142WAT     H166668   2.590   5.477   3.864
22142WAT     H266669   2.510   5.533   3.995
22143WAT      O66670   7.927   8.305   1.129
22143WAT     H166671   7.978   8.357   1.062
22143WAT     H266672   7.968   8.214   1.139
22144WAT      O66673   6.015   8.979   6.237
22144WAT     H166674   6.095   8.944   6.286
22144WAT     H266675   5.952   8.904   6.218
22145WAT      O66676   7.108   4.791   2.718
22145WAT     H166677   7.095   4.831   2.809
22145WAT     H266678   7.157   4.705   2.726
22146WAT      O66679   8.042   0.194   9.044
22146WAT     H166680   8.050   0.274   9.103
22146WAT     H266681   7.946   0.178   9.024
22147WAT      O66682   5.658   1.792   3.749
22147WAT     H166683   5.684   1.868   3.808
22147WAT     H266684   5.719   1.788   3.670
22148WAT      O66685   9.687   8.143   6.202
22148WAT     H166686   9.746   8.219   6.230
22148WAT     H266687   9.608   8.139   6.264
22149WAT      O66688   0.048   9.718   8.657
22149WAT     H166689  -0.050   9.712   8.674
22149WAT     H266690   0.074   9.653   8.586
22150WAT      O66691   8.971   0.057   0.384
22150WAT     H166692   9.069   0.060   0.405
22150WAT     H266693   8.933   0.150   0.387
22151WAT      O66694   2.623   8.590   8.227
22151WAT     H166695   2.670   8.555   8.307
22151WAT     H266696   2.615   8.518   8.158
22152WAT      O66697   2.841   5.607   4.586
22152WAT     H166698   2.747   5.617   4.617
22152WAT     H266699   2.868   5.511   4.593
22153WAT      O66700   2.347   4.332   8.043
22153WAT     H166701   2.352   4.243   7.998
22153WAT     H266702   2.439   4.368   8.055
22154WAT      O66703   2.176   1.850   1.532
22154WAT     H166704   2.196   1.936   1.485
22154WAT     H266705   2.256   1.820   1.584
22155WAT      O66706   6.854   1.194   1.426
22155WAT     H166707   6.818   1.221   1.337
22155WAT     H266708   6.950   1.218   1.433
22156WAT      O66709   9.458   6.073   0.468
22156WAT     H166710   9.507   6.099   0.385
22156WAT     H266711   9.501   6.116   0.547
22157WAT      O66712   8.293   6.906   7.155
22157WAT     H166713   8.372   6.848   7.134
22157WAT     H266714   8.226   6.900   7.081
22158WAT      O66715   1.097   1.568   7.505
22158WAT     H166716   1.193   1.553   7.480
22158WAT     H266717   1.086   1.557   7.603
22159WAT      O66718   1.450   0.939   1.970
22159WAT     H166719   1.448   0.845   1.934
22159WAT     H266720   1.447   1.004   1.894
22160WAT      O66721   2.218   7.532   9.202
22160WAT     H166722   2.258   7.476   9.129
22160WAT     H266723   2.123   7.552   9.180
22161WAT      O66724   3.500   8.107   0.894
22161WAT     H166725   3.512   8.206   0.881
22161WAT     H266726   3.406   8.082   0.872
22162WAT      O66727   5.914   1.282   6.741
22162WAT     H166728   5.872   1.364   6.701
22162WAT     H266729   6.008   1.273   6.708
22163WAT      O66730   4.467   6.424   0.836
22163WAT     H166731   4.446   6.329   0.861
22163WAT     H266732   4.382   6.472   0.811
22164WAT      O66733   9.836   7.698   2.967
22164WAT     H166734   9.851   7.629   2.896
22164WAT     H266735   9.752   7.676   3.017
22165WAT      O66736   4.054   4.974   0.499
22165WAT     H166737   4.067   5.070   0.475
22165WAT     H266738   4.136   4.922   0.477
22166WAT      O66739   3.419   9.036   7.474
22166WAT     H166740   3.494   9.058   7.412
22166WAT     H266741   3.403   8.937   7.474
22167WAT      O66742   4.249   2.156   7.954
22167WAT     H166743   4.265   2.059   7.932
22167WAT     H266744   4.290   2.177   8.043
22168WAT      O66745   8.320   1.392   1.916
22168WAT     H166746   8.408   1.355   1.944
22168WAT     H266747   8.298   1.472   1.971
22169WAT      O66748   0.573   1.317   2.731
22169WAT     H166749   0.492   1.375   2.721
22169WAT     H266750   0.549   1.223   2.708
22170WAT      O66751   6.782   6.834   5.104
22170WAT     H166752   6.742   6.910   5.155
22170WAT     H266753   6.850   6.869   5.039
22171WAT      O66754   4.715   7.297   5.974
22171WAT     H166755   4.635   7.327   6.025
22171WAT     H266756   4.741   7.367   5.908
22172WAT      O66757   9.031   8.951   7.075
22172WAT     H166758   8.937   8.921   7.092
22172WAT     H266759   9.095   8.883   7.111
22173WAT      O66760   0.184   6.346   6.763
22173WAT     H166761   0.171   6.349   6.862
22173WAT     H266762   0.282   6.344   6.742
22174WAT      O66763   7.033   6.706   8.891
22174WAT     H166764   7.000   6.713   8.797
22174WAT     H266765   7.129   6.678   8.891
22175WAT      O66766   2.256   8.434   3.491
22175WAT     H166767   2.185   8.505   3.484
22175WAT     H266768   2.333   8.459   3.432
22176WAT      O66769   5.338   9.539   7.567
22176WAT     H166770   5.381   9.533   7.657
22176WAT     H266771   5.241   9.557   7.578
22177WAT      O66772   0.656   0.295   4.946
22177WAT     H166773   0.587   0.223   4.940
22177WAT     H266774   0.629   0.372   4.889
22178WAT      O66775   0.591   8.717   8.281
22178WAT     H166776   0.580   8.808   8.321
22178WAT     H266777   0.534   8.652   8.330
22179WAT      O66778   6.428   8.958   0.219
22179WAT     H166779   6.485   9.039   0.232
22179WAT     H266780   6.404   8.949   0.122
22180WAT      O66781   6.765   4.172   8.515
22180WAT     H166782   6.823   4.242   8.557
22180WAT     H266783   6.822   4.095   8.487
22181WAT      O66784   1.606   3.055   7.195
22181WAT     H166785   1.704   3.073   7.197
22181WAT     H266786   1.557   3.142   7.200
22182WAT      O66787   3.423   9.612   4.276
22182WAT     H166788   3.482   9.663   4.213
22182WAT     H266789   3.327   9.631   4.255
22183WAT      O66790   9.850   8.161   1.118
22183WAT     H166791   9.909   8.209   1.184
22183WAT     H266792   9.868   8.063   1.122
22184WAT      O66793   8.145   6.645   3.670
22184WAT     H166794   8.149   6.570   3.735
22184WAT     H266795   8.108   6.726   3.715
22185WAT      O66796   1.024   0.791   3.052
22185WAT     H166797   0.931   0.819   3.026
22185WAT     H266798   1.030   0.691   3.050
22186WAT      O66799   0.190   3.202   9.637
22186WAT     H166800   0.234   3.125   9.590
22186WAT     H266801   0.252   3.237   9.707
22187WAT      O66802   9.513   0.513   1.579
22187WAT     H166803   9.552   0.493   1.669
22187WAT     H266804   9.423   0.556   1.590
22188WAT      O66805   3.154   5.844   0.193
22188WAT     H166806   3.188   5.814   0.105
22188WAT     H266807   3.178   5.940   0.208
22189WAT      O66808   9.789   1.043   5.644
22189WAT     H166809   9.846   0.975   5.598
22189WAT     H266810   9.698   1.005   5.661
22190WAT      O66811   6.519   1.104   8.311
22190WAT     H166812   6.607   1.075   8.273
22190WAT     H266813   6.500   1.053   8.395
22191WAT      O66814   7.327   0.738   8.089
22191WAT     H166815   7.389   0.690   8.027
22191WAT     H266816   7.234   0.706   8.074
22192WAT      O66817   3.223   4.439   0.618
22192WAT     H166818   3.202   4.344   0.594
22192WAT     H266819   3.271   4.483   0.543
22193WAT      O66820   5.404   1.029   0.887
22193WAT     H166821   5.467   1.021   0.810
22193WAT     H266822   5.353   0.943   0.898
22194WAT      O66823   7.972   2.717   1.814
22194WAT     H166824   8.031   2.773   1.756
22194WAT     H266825   7.994   2.620   1.801
22195WAT      O66826   1.243   8.969   2.279
22195WAT     H166827   1.171   8.924   2.332
22195WAT     H266828   1.329   8.919   2.289
22196WAT      O66829   2.572   4.361   3.983
22196WAT     H166830   2.544   4.450   3.948
22196WAT     H266831   2.635   4.373   4.060
22197WAT      O66832   5.623   8.449   6.177
22197WAT     H166833   5.565   8.528   6.196
22197WAT     H266834   5.677   8.427   6.258
22198WAT      O66835   4.541   4.033   6.751
22198WAT     H166836   4.596   3.951   6.766
22198WAT     H266837   4.552   4.096   6.828
22199WAT      O66838   9.449   0.381   3.813
22199WAT     H166839   9.455   0.363   3.911
22199WAT     H266840   9.532   0.350   3.767
22200WAT      O66841   2.860   1.865   7.082
22200WAT     H166842   2.806   1.840   7.002
22200WAT     H266843   2.864   1.787   7.145
22201WAT      O66844   9.383   5.889   6.022
22201WAT     H166845   9.410   5.924   5.932
22201WAT     H266846   9.381   5.965   6.087
22202WAT      O66847   8.733   5.480   8.679
22202WAT     H166848   8.798   5.448   8.749
22202WAT     H266849   8.693   5.401   8.633
22203WAT      O66850   5.540   8.731   8.603
22203WAT     H166851   5.491   8.788   8.537
22203WAT     H266852   5.633   8.716   8.572
22204WAT      O66853   4.670   5.401   5.658
22204WAT     H166854   4.636   5.353   5.739
22204WAT     H266855   4.632   5.358   5.576
22205WAT      O66856   5.517   9.755   7.399
22205WAT     H166857   5.497   9.675   7.456
22205WAT     H266858   5.476   9.836   7.439
22206WAT      O66859   0.293   6.985   1.184
22206WAT     H166860   0.283   6.965   1.282
22206WAT     H266861   0.309   7.083   1.172
22207WAT      O66862   8.277   8.502   2.287
22207WAT     H166863   8.230   8.549   2.362
22207WAT     H266864   8.335   8.430   2.324
22208WAT      O66865   6.308   2.044   9.140
22208WAT     H166866   6.322   2.117   9.073
22208WAT     H266867   6.273   2.083   9.225
22209WAT      O66868   4.374   4.978   3.398
22209WAT     H166869   4.469   4.997   3.376
22209WAT     H266870   4.317   4.991   3.317
22210WAT      O66871   4.464   4.427   1.191
22210WAT     H166872   4.429   4.415   1.099
22210WAT     H266873   4.392   4.406   1.257
22211WAT      O66874   4.723   7.319   5.224
22211WAT     H166875   4.787   7.256   5.179
22211WAT     H266876   4.687   7.276   5.307
22212WAT      O66877   7.250   2.849   3.325
22212WAT     H166878   7.328   2.882   3.377
22212WAT     H266879   7.178   2.818   3.388
22213WAT      O66880   0.933   8.632   5.968
22213WAT     H166881   0.967   8.716   6.009
22213WAT     H266882   0.919   8.645   5.870
22214WAT      O66883   3.683   8.784   1.580
22214WAT     H166884   3.655   8.701   1.531
22214WAT     H266885   3.743   8.838   1.521
22215WAT      O66886   4.619   4.167   4.736
22215WAT     H166887   4.588   4.099   4.802
22215WAT     H266888   4.543   4.228   4.711
22216WAT      O66889   9.375   6.225   9.787
22216WAT     H166890   9.328   6.287   9.723
22216WAT     H266891   9.468   6.210   9.755
22217WAT      O66892   2.727   4.859   3.426
22217WAT     H166893   2.733   4.773   3.376
22217WAT     H266894   2.638   4.902   3.409
22218WAT      O66895   6.198   7.479   9.075
22218WAT     H166896   6.150   7.467   9.162
22218WAT     H266897   6.154   7.422   9.006
22219WAT      O66898   6.932   0.719   0.850
22219WAT     H166899   6.875   0.726   0.932
22219WAT     H266900   6.968   0.626   0.843
22220WAT      O66901   6.764   5.307   0.409
22220WAT     H166902   6.753   5.373   0.335
22220WAT     H266903   6.769   5.214   0.370
22221WAT      O66904   2.482   8.324   5.520
22221WAT     H166905   2.472   8.296   5.616
22221WAT     H266906   2.479   8.424   5.514
22222WAT      O66907   2.116   2.092   4.601
22222WAT     H166908   2.141   2.054   4.513
22222WAT     H266909   2.070   2.180   4.588
22223WAT      O66910   2.021   9.120   0.698
22223WAT     H166911   2.003   9.211   0.662
22223WAT     H266912   2.105   9.122   0.753
22224WAT      O66913   6.077   6.890   5.685
22224WAT     H166914   6.155   6.832   5.659
22224WAT     H266915   6.109   6.985   5.697
22225WAT      O66916   5.897   7.385   3.588
22225WAT     H166917   5.861   7.439   3.664
22225WAT     H266918   5.829   7.319   3.558
22226WAT      O66919   5.499   9.748   3.927
22226WAT     H166920   5.549   9.665   3.902
22226WAT     H266921   5.497   9.758   4.026
22227WAT      O66922   8.154   3.337   9.204
22227WAT     H166923   8.088   3.403   9.169
22227WAT     H266924   8.111   3.281   9.275
22228WAT      O66925   5.675   0.645   4.635
22228WAT     H166926   5.742   0.677   4.702
22228WAT     H266927   5.611   0.583   4.679
22229WAT      O66928   7.658   7.869   3.168
22229WAT     H166929   7.609   7.912   3.244
22229WAT     H266930   7.627   7.908   3.082
22230WAT      O66931   8.130   4.287   0.146
22230WAT     H166932   8.030   4.289   0.142
22230WAT     H266933   8.166   4.373   0.111
22231WAT      O66934   0.334   0.929   7.491
22231WAT     H166935   0.256   0.882   7.450
22231WAT     H266936   0.301   0.997   7.557
22232WAT      O66937   6.980   5.225   4.175
22232WAT     H166938   7.034   5.147   4.207
22232WAT     H266939   7.025   5.310   4.201
22233WAT      O66940   8.716   0.898   6.840
22233WAT     H166941   8.802   0.950   6.845
22233WAT     H266942   8.639   0.962   6.834
22234WAT      O66943   7.746   5.389   7.813
22234WAT     H166944   7.776   5.390   7.718
22234WAT     H266945   7.822   5.419   7.872
22235WAT      O66946   5.641   4.721   3.177
22235WAT     H166947   5.578   4.662   3.228
22235WAT     H266948   5.588   4.779   3.115
22236WAT      O66949   6.882   1.447   0.628
22236WAT     H166950   6.966   1.466   0.579
22236WAT     H266951   6.899   1.450   0.727
22237WAT      O66952   4.985   5.020   8.766
22237WAT     H166953   5.056   5.005   8.697
22237WAT     H266954   5.027   5.058   8.849
22238WAT      O66955   1.816   6.959   6.409
22238WAT     H166956   1.799   7.024   6.335
22238WAT     H266957   1.914   6.939   6.415
22239WAT      O66958   5.954   5.756   1.032
22239WAT     H166959   5.938   5.700   0.950
22239WAT     H266960   6.038   5.809   1.019
22240WAT      O66961   4.990   2.046   9.609
22240WAT     H166962   4.896   2.027   9.634
22240WAT     H266963   4.994   2.071   9.512
22241WAT      O66964   5.329   0.082   1.374
22241WAT     H166965   5.352   0.044   1.285
22241WAT     H266966   5.377   0.169   1.388
22242WAT      O66967   1.781   2.404   0.377
22242WAT     H166968   1.756   2.499   0.361
22242WAT     H266969   1.753   2.376   0.469
22243WAT      O66970   5.389   5.214   6.077
22243WAT     H166971   5.416   5.227   5.981
22243WAT     H266972   5.356   5.301   6.114
22244WAT      O66973   9.745   4.708   1.244
22244WAT     H166974   9.655   4.738   1.275
22244WAT     H266975   9.761   4.738   1.150
22245WAT      O66976   3.804   1.697   4.253
22245WAT     H166977   3.837   1.612   4.292
22245WAT     H266978   3.722   1.727   4.302
22246WAT      O66979   4.158   8.133   9.699
22246WAT     H166980   4.077   8.088   9.738
22246WAT     H266981   4.234   8.127   9.765
22247WAT      O66982   9.758   5.442   6.392
22247WAT     H166983   9.780   5.447   6.489
22247WAT     H266984   9.833   5.397   6.343
22248WAT      O66985   7.225   3.687   7.469
22248WAT     H166986   7.318   3.715   7.491
22248WAT     H266987   7.171   3.678   7.554
22249WAT      O66988   6.937   0.794   5.906
22249WAT     H166989   6.974   0.874   5.859
22249WAT     H266990   6.848   0.771   5.868
22250WAT      O66991   8.237   7.109   6.504
22250WAT     H166992   8.184   7.192   6.488
22250WAT     H266993   8.228   7.048   6.426
22251WAT      O66994   0.503   6.433   8.170
22251WAT     H166995   0.475   6.397   8.259
22251WAT     H266996   0.570   6.372   8.129
22252WAT      O66997   7.526   5.877   6.260
22252WAT     H166998   7.562   5.968   6.283
22252WAT     H266999   7.482   5.880   6.170
22253WAT      O67000   5.292   5.678   9.047
22253WAT     H167001   5.378   5.728   9.034
22253WAT     H267002   5.272   5.670   9.144
22254WAT      O67003   3.435   8.086   4.717
22254WAT     H167004   3.489   8.005   4.741
22254WAT     H267005   3.442   8.153   4.791
22255WAT      O67006   1.411   1.973   1.991
22255WAT     H167007   1.343   2.043   2.014
22255WAT     H267008   1.389   1.935   1.901
22256WAT      O67009   6.823   2.692   1.719
22256WAT     H167010   6.857   2.602   1.690
22256WAT     H267011   6.899   2.750   1.746
22257WAT      O67012   8.272   5.627   0.323
22257WAT     H167013   8.244   5.709   0.274
22257WAT     H267014   8.283   5.649   0.420
22258WAT      O67015   4.549   0.953   9.682
22258WAT     H167016   4.483   0.976   9.753
22258WAT     H267017   4.640   0.942   9.723
22259WAT      O67018   2.979   4.532   3.012
22259WAT     H167019   2.881   4.512   3.001
22259WAT     H267020   2.995   4.573   3.101
22260WAT      O67021   8.426   7.520   3.348
22260WAT     H167022   8.482   7.488   3.425
22260WAT     H267023   8.340   7.556   3.383
22261WAT      O67024   1.497   3.123   7.677
22261WAT     H167025   1.405   3.161   7.668
22261WAT     H267026   1.524   3.078   7.592
22262WAT      O67027   1.876   9.350   0.171
22262WAT     H167028   1.857   9.404   0.253
22262WAT     H267029   1.907   9.259   0.198
22263WAT      O67030   4.158   7.857   4.855
22263WAT     H167031   4.199   7.769   4.879
22263WAT     H267032   4.147   7.864   4.756
22264WAT      O67033   3.181   6.204   3.248
22264WAT     H167034   3.199   6.170   3.156
22264WAT     H267035   3.168   6.303   3.244
22265WAT      O67036   1.676   6.354   0.388
22265WAT     H167037   1.650   6.370   0.483
22265WAT     H267038   1.744   6.422   0.360
22266WAT      O67039   3.782   8.733   3.372
22266WAT     H167040   3.864   8.759   3.321
22266WAT     H267041   3.792   8.638   3.405
22267WAT      O67042   8.897   0.388   7.559
22267WAT     H167043   8.974   0.360   7.502
22267WAT     H267044   8.903   0.343   7.648
22268WAT      O67045   1.572   7.217   4.613
22268WAT     H167046   1.631   7.296   4.596
22268WAT     H267047   1.484   7.248   4.649
22269WAT      O67048   9.272   8.848   9.716
22269WAT     H167049   9.315   8.882   9.633
22269WAT     H267050   9.246   8.925   9.774
22270WAT      O67051   7.645   6.792   4.256
22270WAT     H167052   7.632   6.876   4.204
22270WAT     H267053   7.559   6.741   4.259
22271WAT      O67054   4.069   6.485   9.378
22271WAT     H167055   4.153   6.485   9.324
22271WAT     H267056   4.018   6.569   9.360
22272WAT      O67057   6.714   9.247   7.287
22272WAT     H167058   6.739   9.175   7.222
22272WAT     H267059   6.643   9.305   7.246
22273WAT      O67060   1.839   6.938   3.483
22273WAT     H167061   1.879   6.864   3.537
22273WAT     H267062   1.741   6.921   3.471
22274WAT      O67063   3.052   9.756   7.964
22274WAT     H167064   3.019   9.684   7.903
22274WAT     H267065   2.988   9.766   8.041
22275WAT      O67066   7.910   5.424   9.015
22275WAT     H167067   7.829   5.480   8.994
22275WAT     H267068   7.892   5.329   8.989
22276WAT      O67069   7.310   9.083   6.613
22276WAT     H167070   7.332   9.113   6.521
22276WAT     H267071   7.343   9.150   6.679
22277WAT      O67072   2.607   4.052   4.042
22277WAT     H167073   2.698   4.075   4.076
22277WAT     H267074   2.561   4.134   4.011
22278WAT      O67075   3.976   5.071   8.291
22278WAT     H167076   3.908   5.139   8.262
22278WAT     H267077   3.931   5.002   8.348
22279WAT      O67078   6.558   8.657   1.650
22279WAT     H167079   6.646   8.629   1.610
22279WAT     H267080   6.484   8.629   1.590
22280WAT      O67081   4.662   2.279   2.631
22280WAT     H167082   4.725   2.223   2.577
22280WAT     H267083   4.696   2.373   2.635
22281WAT      O67084   3.727   0.091   5.633
22281WAT     H167085   3.675   0.176   5.638
22281WAT     H267086   3.822   0.112   5.609
22282WAT      O67087   7.114   3.553   2.326
22282WAT     H167088   7.067   3.504   2.400
22282WAT     H267089   7.094   3.651   2.333
22283WAT      O67090   1.813   5.084   4.479
22283WAT     H167091   1.726   5.036   4.469
22283WAT     H267092   1.801   5.161   4.542
22284WAT      O67093  -0.003   3.852   7.819
22284WAT     H167094   0.009   3.856   7.918
22284WAT     H267095   0.064   3.911   7.775
22285WAT      O67096   6.074   1.810   2.473
22285WAT     H167097   6.139   1.860   2.416
22285WAT     H267098   6.098   1.822   2.569
22286WAT      O67099   1.156   4.527   0.047
22286WAT     H167100   1.082   4.543  -0.019
22286WAT     H267101   1.244   4.538   0.001
22287WAT      O67102   4.603   0.393   6.074
22287WAT     H167103   4.571   0.348   5.991
22287WAT     H267104   4.702   0.407   6.069
22288WAT      O67105   7.870   5.540   9.611
22288WAT     H167106   7.959   5.582   9.630
22288WAT     H267107   7.852   5.544   9.513
22289WAT      O67108   3.713   1.236   0.722
22289WAT     H167109   3.695   1.334   0.723
22289WAT     H267110   3.792   1.217   0.663
22290WAT      O67111   0.236   5.231   6.516
22290WAT     H167112   0.161   5.171   6.544
22290WAT     H267113   0.317   5.176   6.498
22291WAT      O67114   2.370   2.027   5.030
22291WAT     H167115   2.278   2.066   5.038
22291WAT     H267116   2.365   1.928   5.043
22292WAT      O67117   6.703   6.613   7.265
22292WAT     H167118   6.693   6.608   7.166
22292WAT     H267119   6.753   6.696   7.289
22293WAT      O67120   8.268   6.295   5.488
22293WAT     H167121   8.321   6.283   5.404
22293WAT     H267122   8.223   6.384   5.486
22294WAT      O67123   8.305   1.613   4.302
22294WAT     H167124   8.329   1.683   4.370
22294WAT     H267125   8.242   1.548   4.342
22295WAT      O67126   8.044   0.055   8.803
22295WAT     H167127   8.123   0.048   8.742
22295WAT     H267128   8.075   0.088   8.893
22296WAT      O67129   4.120   1.023   0.639
22296WAT     H167130   4.024   1.007   0.617
22296WAT     H267131   4.142   0.977   0.725
22297WAT      O67132   5.789   7.627   6.123
22297WAT     H167133   5.768   7.702   6.185
22297WAT     H267134   5.824   7.549   6.174
22298WAT      O67135   0.205   1.121   3.236
22298WAT     H167136   0.159   1.063   3.303
22298WAT     H267137   0.301   1.133   3.262
22299WAT      O67138   9.546   7.697   7.623
22299WAT     H167139   9.531   7.630   7.551
22299WAT     H267140   9.459   7.718   7.667
22300WAT      O67141   2.062   5.921   6.224
22300WAT     H167142   2.049   5.822   6.230
22300WAT     H267143   2.027   5.964   6.308
22301WAT      O67144   1.324   6.420   4.756
22301WAT     H167145   1.244   6.426   4.816
22301WAT     H267146   1.306   6.354   4.683
22302WAT      O67147   6.476   0.555   7.955
22302WAT     H167148   6.489   0.653   7.934
22302WAT     H267149   6.423   0.546   8.039
22303WAT      O67150   3.936   6.392   3.484
22303WAT     H167151   3.928   6.476   3.539
22303WAT     H267152   4.019   6.344   3.510
22304WAT      O67153   5.730   2.096   1.473
22304WAT     H167154   5.717   2.195   1.483
22304WAT     H267155   5.676   2.064   1.395
22305WAT      O67156   9.397   5.956   3.046
22305WAT     H167157   9.483   6.004   3.062
22305WAT     H267158   9.327   5.993   3.107
22306WAT      O67159   0.147   5.134   3.828
22306WAT     H167160   0.110   5.139   3.735
22306WAT     H267161   0.220   5.066   3.831
22307WAT      O67162   4.319   9.106   1.079
22307WAT     H167163   4.319   9.060   1.168
22307WAT     H267164   4.346   9.202   1.091
22308WAT      O67165   6.370   5.273   8.081
22308WAT     H167166   6.280   5.260   8.039
22308WAT     H267167   6.363   5.341   8.154
22309WAT      O67168   1.259   5.458   7.582
22309WAT     H167169   1.280   5.555   7.599
22309WAT     H267170   1.185   5.452   7.515
22310WAT      O67171   6.207   9.319   0.404
22310WAT     H167172   6.218   9.277   0.494
22310WAT     H267173   6.235   9.254   0.333
22311WAT      O67174   3.371   9.802   3.685
22311WAT     H167175   3.393   9.724   3.744
22311WAT     H267176   3.438   9.808   3.611
22312WAT      O67177   4.061   4.313   7.781
22312WAT     H167178   4.148   4.267   7.767
22312WAT     H267179   4.077   4.404   7.820
22313WAT      O67180   4.666   2.173   3.282
22313WAT     H167181   4.741   2.128   3.234
22313WAT     H267182   4.702   2.243   3.343
22314WAT      O67183   0.818   1.543   0.559
22314WAT     H167184   0.808   1.543   0.460
22314WAT     H267185   0.781   1.457   0.597
22315WAT      O67186   2.058   5.206   9.128
22315WAT     H167187   2.030   5.301   9.113
22315WAT     H267188   2.156   5.203   9.147
22316WAT      O67189   3.204   0.896   6.103
22316WAT     H167190   3.221   0.993   6.119
22316WAT     H267191   3.215   0.876   6.006
22317WAT      O67192   5.808   8.615   8.690
22317WAT     H167193   5.804   8.629   8.591
22317WAT     H267194   5.859   8.690   8.732
22318WAT      O67195   4.597   8.020   2.745
22318WAT     H167196   4.595   8.089   2.673
22318WAT     H267197   4.667   7.951   2.723
22319WAT      O67198   2.863   7.103   0.520
22319WAT     H167199   2.851   7.034   0.591
22319WAT     H267200   2.955   7.094   0.480
22320WAT      O67201   0.821   4.522   0.154
22320WAT     H167202   0.786   4.468   0.230
22320WAT     H267203   0.865   4.462   0.087
22321WAT      O67204   1.373   8.908   8.150
22321WAT     H167205   1.407   8.958   8.071
22321WAT     H267206   1.356   8.813   8.125
22322WAT      O67207   8.303   4.416   9.157
22322WAT     H167208   8.304   4.500   9.104
22322WAT     H267209   8.323   4.338   9.096
22323WAT      O67210   9.395   8.080   3.707
22323WAT     H167211   9.463   8.034   3.764
22323WAT     H267212   9.360   8.160   3.754
22324WAT      O67213   8.578   2.120   8.621
22324WAT     H167214   8.559   2.122   8.719
22324WAT     H267215   8.515   2.056   8.576
22325WAT      O67216   3.243   3.591   8.145
22325WAT     H167217   3.223   3.674   8.198
22325WAT     H267218   3.178   3.584   8.069
22326WAT      O67219   2.330   0.314   8.682
22326WAT     H167220   2.385   0.342   8.760
22326WAT     H267221   2.355   0.368   8.601
22327WAT      O67222   2.713   3.188   5.971
22327WAT     H167223   2.806   3.198   5.936
22327WAT     H267224   2.648   3.220   5.903
22328WAT      O67225   1.954   9.732   5.097
22328WAT     H167226   1.981   9.651   5.149
22328WAT     H267227   1.956   9.711   4.999
22329WAT      O67228   4.402   6.042   1.754
22329WAT     H167229   4.396   6.136   1.788
22329WAT     H267230   4.484   6.033   1.697
22330WAT      O67231   2.357   9.771   9.814
22330WAT     H167232   2.276   9.713   9.820
22330WAT     H267233   2.437   9.722   9.850
22331WAT      O67234   3.600   8.715   7.944
22331WAT     H167235   3.607   8.666   8.031
22331WAT     H267236   3.567   8.653   7.873
22332WAT      O67237   8.682   2.580   5.929
22332WAT     H167238   8.720   2.598   5.838
22332WAT     H267239   8.587   2.550   5.919
22333WAT      O67240   1.095   6.355   6.405
22333WAT     H167241   1.136   6.265   6.390
22333WAT     H267242   1.009   6.361   6.355
22334WAT      O67243   3.626   8.930   1.847
22334WAT     H167244   3.656   8.919   1.752
22334WAT     H267245   3.579   8.847   1.877
22335WAT      O67246   2.188   5.028   1.706
22335WAT     H167247   2.215   5.103   1.766
22335WAT     H267248   2.220   4.941   1.744
22336WAT      O67249   4.006   0.390   8.681
22336WAT     H167250   3.921   0.442   8.670
22336WAT     H267251   3.987   0.292   8.678
22337WAT      O67252   2.005   2.279   9.187
22337WAT     H167253   1.936   2.318   9.248
22337WAT     H267254   2.026   2.186   9.215
22338WAT      O67255   1.660   0.954   4.911
22338WAT     H167256   1.705   1.030   4.863
22338WAT     H267257   1.697   0.947   5.004
22339WAT      O67258   0.683   4.029   0.411
22339WAT     H167259   0.768   4.083   0.415
22339WAT     H267260   0.640   4.027   0.501
22340WAT      O67261   2.199   3.678   3.771
22340WAT     H167262   2.171   3.708   3.862
22340WAT     H267263   2.218   3.580   3.772
22341WAT      O67264   6.079   5.930   1.293
22341WAT     H167265   6.115   5.983   1.370
22341WAT     H267266   6.114   5.836   1.299
22342WAT      O67267   9.349   7.271   1.772
22342WAT     H167268   9.408   7.228   1.840
22342WAT     H267269   9.354   7.370   1.780
22343WAT      O67270   0.740   7.123   8.565
22343WAT     H167271   0.668   7.167   8.619
22343WAT     H267272   0.722   7.025   8.559
22344WAT      O67273   8.365   3.467   9.149
22344WAT     H167274   8.384   3.529   9.226
22344WAT     H267275   8.285   3.411   9.171
22345WAT      O67276   0.583   8.538   5.563
22345WAT     H167277   0.490   8.512   5.538
22345WAT     H267278   0.646   8.465   5.535
22346WAT      O67279   1.983   0.438   6.639
22346WAT     H167280   1.933   0.417   6.723
22346WAT     H267281   1.922   0.480   6.573
22347WAT      O67282   3.853   0.297   9.407
22347WAT     H167283   3.767   0.328   9.365
22347WAT     H267284   3.930   0.324   9.348
22348WAT      O67285   1.577   7.633   0.940
22348WAT     H167286   1.503   7.672   0.994
22348WAT     H267287   1.659   7.624   0.998
22349WAT      O67288   1.141   1.343   2.003
22349WAT     H167289   1.212   1.304   2.061
22349WAT     H267290   1.059   1.286   2.006
22350WAT      O67291   7.059   9.771   1.472
22350WAT     H167292   7.055   9.821   1.386
22350WAT     H267293   7.021   9.679   1.459
22351WAT      O67294   0.654   0.710   0.029
22351WAT     H167295   0.575   0.693  -0.031
22351WAT     H267296   0.734   0.731  -0.027
22352WAT      O67297   9.341   5.968   7.558
22352WAT     H167298   9.336   5.875   7.594
22352WAT     H267299   9.320   6.033   7.632
22353WAT      O67300   3.202   3.762   7.056
22353WAT     H167301   3.245   3.694   6.997
22353WAT     H267302   3.271   3.803   7.116
22354WAT      O67303   2.907   0.322   1.097
22354WAT     H167304   2.956   0.395   1.144
22354WAT     H267305   2.817   0.355   1.070
22355WAT      O67306   5.409   7.205   7.123
22355WAT     H167307   5.350   7.213   7.043
22355WAT     H267308   5.504   7.195   7.094
22356WAT      O67309   5.846   0.233   0.840
22356WAT     H167310   5.803   0.166   0.900
22356WAT     H267311   5.780   0.306   0.819
22357WAT      O67312   1.320   9.023   0.715
22357WAT     H167313   1.302   9.081   0.795
22357WAT     H267314   1.259   9.051   0.641
22358WAT      O67315   6.959   1.005   0.301
22358WAT     H167316   6.946   1.103   0.314
22358WAT     H267317   6.883   0.956   0.345
22359WAT      O67318   4.259   6.776   4.696
22359WAT     H167319   4.308   6.845   4.642
22359WAT     H267320   4.281   6.788   4.793
22360WAT      O67321   1.940   2.019   7.565
22360WAT     H167322   1.908   2.064   7.482
22360WAT     H267323   1.904   2.067   7.645
22361WAT      O67324   7.557   6.689   8.592
22361WAT     H167325   7.549   6.787   8.611
22361WAT     H267326   7.523   6.670   8.500
22362WAT      O67327   9.172   5.480   6.669
22362WAT     H167328   9.114   5.510   6.593
22362WAT     H267329   9.262   5.456   6.634
22363WAT      O67330   2.177   0.749   0.869
22363WAT     H167331   2.167   0.841   0.832
22363WAT     H267332   2.250   0.748   0.937
22364WAT      O67333   2.032   5.056   2.786
22364WAT     H167334   2.075   4.982   2.735
22364WAT     H267335   2.095   5.089   2.856
22365WAT      O67336   7.283   6.709   9.339
22365WAT     H167337   7.264   6.721   9.436
22365WAT     H267338   7.372   6.664   9.327
22366WAT      O67339   7.614   8.468   0.454
22366WAT     H167340   7.593   8.513   0.367
22366WAT     H267341   7.675   8.390   0.437
22367WAT      O67342   4.447   3.637   9.219
22367WAT     H167343   4.390   3.566   9.262
22367WAT     H267344   4.529   3.595   9.181
22368WAT      O67345   3.349   4.019   1.627
22368WAT     H167346   3.324   4.114   1.644
22368WAT     H267347   3.448   4.007   1.641
22369WAT      O67348   6.171   6.358   2.631
22369WAT     H167349   6.227   6.323   2.705
22369WAT     H267350   6.167   6.291   2.557
22370WAT      O67351   6.657   7.961   2.726
22370WAT     H167352   6.756   7.958   2.709
22370WAT     H267353   6.640   7.980   2.823
22371WAT      O67354   8.307   0.067   2.355
22371WAT     H167355   8.293  -0.032   2.348
22371WAT     H267356   8.285   0.110   2.267
22372WAT      O67357   3.189   6.466   3.119
22372WAT     H167358   3.277   6.499   3.084
22372WAT     H267359   3.121   6.472   3.046
22373WAT      O67360   6.299   3.773   2.057
22373WAT     H167361   6.384   3.814   2.025
22373WAT     H267362   6.295   3.677   2.029
22374WAT      O67363   5.704   9.152   6.034
22374WAT     H167364   5.704   9.175   6.131
22374WAT     H267365   5.640   9.077   6.018
22375WAT      O67366   7.796   4.233   7.720
22375WAT     H167367   7.871   4.272   7.666
22375WAT     H267368   7.768   4.146   7.680
22376WAT      O67369   4.518   6.285   2.600
22376WAT     H167370   4.586   6.295   2.673
22376WAT     H267371   4.488   6.375   2.569
22377WAT      O67372   7.652   2.146   2.385
22377WAT     H167373   7.615   2.053   2.392
22377WAT     H267374   7.690   2.174   2.473
22378WAT      O67375   6.883   4.426   7.586
22378WAT     H167376   6.897   4.490   7.509
22378WAT     H267377   6.951   4.353   7.581
22379WAT      O67378   8.120   6.926   6.686
22379WAT     H167379   8.074   6.893   6.603
22379WAT     H267380   8.171   7.010   6.664
22380WAT      O67381   9.442   1.150   0.227
22380WAT     H167382   9.538   1.130   0.247
22380WAT     H267383   9.384   1.105   0.295
22381WAT      O67384   4.428   9.671   8.123
22381WAT     H167385   4.430   9.743   8.192
22381WAT     H267386   4.510   9.615   8.130
22382WAT      O67387   4.123   6.221   9.462
22382WAT     H167388   4.124   6.319   9.439
22382WAT     H267389   4.105   6.210   9.559
22383WAT      O67390   0.926   2.150   6.780
22383WAT     H167391   0.887   2.139   6.688
22383WAT     H267392   0.879   2.224   6.828
22384WAT      O67393   4.397   9.579   1.392
22384WAT     H167394   4.433   9.553   1.482
22384WAT     H267395   4.471   9.608   1.333
22385WAT      O67396   5.319   0.407   5.852
22385WAT     H167397   5.238   0.414   5.911
22385WAT     H267398   5.349   0.311   5.849
22386WAT      O67399   9.697   1.227   0.142
22386WAT     H167400   9.683   1.222   0.043
22386WAT     H267401   9.629   1.289   0.182
22387WAT      O67402   8.096   2.701   3.304
22387WAT     H167403   8.126   2.656   3.219
22387WAT     H267404   7.997   2.691   3.313
22388WAT      O67405   3.005   0.089   5.541
22388WAT     H167406   2.993   0.120   5.447
22388WAT     H267407   2.933   0.127   5.598
22389WAT      O67408   1.677   9.709   1.451
22389WAT     H167409   1.646   9.801   1.427
22389WAT     H267410   1.627   9.677   1.532
22390WAT      O67411   9.844   9.733   7.359
22390WAT     H167412   9.813   9.640   7.381
22390WAT     H267413   9.854   9.785   7.444
22391WAT      O67414   7.039   0.940   4.230
22391WAT     H167415   7.052   0.857   4.285
22391WAT     H267416   7.089   1.016   4.272
22392WAT      O67417   1.806   1.515   6.975
22392WAT     H167418   1.747   1.447   7.019
22392WAT     H267419   1.901   1.498   7.001
22393WAT      O67420   2.968   6.760   0.405
22393WAT     H167421   2.976   6.824   0.328
22393WAT     H267422   3.012   6.800   0.486
22394WAT      O67423   3.904   9.590   3.238
22394WAT     H167424   3.976   9.545   3.291
22394WAT     H267425   3.840   9.635   3.301
22395WAT      O67426   3.820   0.318   4.028
22395WAT     H167427   3.815   0.313   4.128
22395WAT     H267428   3.763   0.392   3.995
22396WAT      O67429   4.933   2.117   6.768
22396WAT     H167430   4.886   2.031   6.752
22396WAT     H267431   4.922   2.176   6.688
22397WAT      O67432   8.732   7.553   1.270
22397WAT     H167433   8.683   7.610   1.204
22397WAT     H267434   8.768   7.610   1.344
22398WAT      O67435   1.638   2.525   7.894
22398WAT     H167436   1.584   2.501   7.975
22398WAT     H267437   1.640   2.625   7.884
22399WAT      O67438   8.717   5.195   1.443
22399WAT     H167439   8.766   5.120   1.398
22399WAT     H267440   8.774   5.232   1.516
22400WAT      O67441   6.770   1.631   9.145
22400WAT     H167442   6.852   1.634   9.088
22400WAT     H267443   6.728   1.541   9.138
22401WAT      O67444   3.237   5.572   3.129
22401WAT     H167445   3.296   5.593   3.051
22401WAT     H267446   3.275   5.494   3.180
22402WAT      O67447   7.594   0.994   1.159
22402WAT     H167448   7.503   0.951   1.154
22402WAT     H267449   7.625   0.993   1.254
22403WAT      O67450   3.407   0.144   1.904
22403WAT     H167451   3.348   0.222   1.927
22403WAT     H267452   3.353   0.060   1.906
22404WAT      O67453   8.541   5.359   2.172
22404WAT     H167454   8.487   5.297   2.229
22404WAT     H267455   8.515   5.346   2.076
22405WAT      O67456   8.510   3.262   9.420
22405WAT     H167457   8.459   3.333   9.469
22405WAT     H267458   8.607   3.270   9.442
22406WAT      O67459   6.738   3.359   0.854
22406WAT     H167460   6.690   3.446   0.860
22406WAT     H267461   6.673   3.285   0.836
22407WAT      O67462   4.584   8.752   0.174
22407WAT     H167463   4.644   8.703   0.110
22407WAT     H267464   4.599   8.718   0.267
22408WAT      O67465   0.112   2.503   5.785
22408WAT     H167466   0.158   2.571   5.728
22408WAT     H267467   0.151   2.413   5.767
22409WAT      O67468   7.559   2.854   8.996
22409WAT     H167469   7.653   2.840   9.026
22409WAT     H267470   7.559   2.875   8.898
22410WAT      O67471   7.392   1.806   8.226
22410WAT     H167472   7.325   1.864   8.273
22410WAT     H267473   7.353   1.715   8.212
22411WAT      O67474   4.886   0.304   6.058
22411WAT     H167475   4.854   0.234   6.122
22411WAT     H267476   4.983   0.319   6.072
22412WAT      O67477   5.803   6.254   5.898
22412WAT     H167478   5.833   6.191   5.970
22412WAT     H267479   5.703   6.254   5.893
22413WAT      O67480   7.248   2.817   7.813
22413WAT     H167481   7.301   2.900   7.829
22413WAT     H267482   7.174   2.811   7.880
22414WAT      O67483   3.433   0.733   1.212
22414WAT     H167484   3.469   0.826   1.226
22414WAT     H267485   3.371   0.733   1.134
22415WAT      O67486   0.553   7.167   6.710
22415WAT     H167487   0.638   7.154   6.657
22415WAT     H267488   0.552   7.260   6.747
22416WAT      O67489   6.379   2.713   1.720
22416WAT     H167490   6.411   2.806   1.704
22416WAT     H267491   6.438   2.667   1.786
22417WAT      O67492   4.085   0.508   8.064
22417WAT     H167493   4.069   0.547   8.155
22417WAT     H267494   4.165   0.550   8.023
22418WAT      O67495   5.962   4.771   9.884
22418WAT     H167496   6.039   4.723   9.926
22418WAT     H267497   5.912   4.821   9.954
22419WAT      O67498   3.876   4.110   5.877
22419WAT     H167499   3.921   4.038   5.824
22419WAT     H267500   3.940   4.185   5.893
22420WAT      O67501   5.003   3.120   8.760
22420WAT     H167502   4.952   3.161   8.684
22420WAT     H267503   5.025   3.191   8.827
22421WAT      O67504   7.724   1.168   9.541
22421WAT     H167505   7.676   1.183   9.455
22421WAT     H267506   7.682   1.091   9.590
22422WAT      O67507   5.277   4.926   4.539
22422WAT     H167508   5.325   4.844   4.572
22422WAT     H267509   5.273   4.923   4.439
22423WAT      O67510   0.727   1.936   7.616
22423WAT     H167511   0.800   1.917   7.551
22423WAT     H267512   0.638   1.925   7.570
22424WAT      O67513   4.891   7.125   5.150
22424WAT     H167514   4.848   7.049   5.198
22424WAT     H267515   4.986   7.134   5.181
22425WAT      O67516   6.708   8.701   6.857
22425WAT     H167517   6.646   8.777   6.875
22425WAT     H267518   6.655   8.617   6.844
22426WAT      O67519   6.451   5.778   8.033
22426WAT     H167520   6.473   5.750   8.126
22426WAT     H267521   6.533   5.774   7.977
22427WAT      O67522   8.306   1.137   9.234
22427WAT     H167523   8.240   1.198   9.191
22427WAT     H267524   8.307   1.154   9.333
22428WAT      O67525   6.464   6.691   0.926
22428WAT     H167526   6.476   6.719   0.830
22428WAT     H267527   6.508   6.602   0.940
22429WAT      O67528   1.451   4.463   3.032
22429WAT     H167529   1.408   4.549   3.058
22429WAT     H267530   1.549   4.478   3.016
22430WAT      O67531   3.155   7.221   0.712
22430WAT     H167532   3.229   7.185   0.655
22430WAT     H267533   3.118   7.147   0.768
22431WAT      O67534   9.128   0.799   2.512
22431WAT     H167535   9.081   0.854   2.443
22431WAT     H267536   9.073   0.796   2.596
22432WAT      O67537   7.289   5.657   1.178
22432WAT     H167538   7.252   5.583   1.234
22432WAT     H267539   7.389   5.654   1.180
22433WAT      O67540   6.880   4.351   5.495
22433WAT     H167541   6.942   4.358   5.417
22433WAT     H267542   6.859   4.255   5.513
22434WAT      O67543   7.637   4.280   9.792
22434WAT     H167544   7.736   4.280   9.774
22434WAT     H267545   7.594   4.206   9.742
22435WAT      O67546   8.954   9.775   2.357
22435WAT     H167547   9.031   9.722   2.321
22435WAT     H267548   8.871   9.719   2.355
22436WAT      O67549   5.921   1.739   6.628
22436WAT     H167550   5.858   1.791   6.685
22436WAT     H267551   5.934   1.787   6.541
22437WAT      O67552   9.199   8.767   9.335
22437WAT     H167553   9.279   8.805   9.289
22437WAT     H267554   9.139   8.724   9.268
22438WAT      O67555   3.613   4.281   6.561
22438WAT     H167556   3.634   4.317   6.652
22438WAT     H267557   3.697   4.269   6.509
22439WAT      O67558   4.445   6.631   9.555
22439WAT     H167559   4.506   6.637   9.634
22439WAT     H267560   4.350   6.641   9.586
22440WAT      O67561   8.550   5.862   2.614
22440WAT     H167562   8.616   5.893   2.545
22440WAT     H267563   8.457   5.874   2.579
22441WAT      O67564   0.071   0.113   0.740
22441WAT     H167565  -0.028   0.111   0.747
22441WAT     H267566   0.106   0.022   0.719
22442WAT      O67567   9.388   4.980   7.191
22442WAT     H167568   9.352   4.939   7.275
22442WAT     H267569   9.461   5.044   7.214
22443WAT      O67570   4.101   8.604   0.318
22443WAT     H167571   4.116   8.539   0.392
22443WAT     H267572   4.158   8.685   0.333
22444WAT      O67573   4.088   8.983   3.668
22444WAT     H167574   4.016   8.923   3.703
22444WAT     H267575   4.091   8.977   3.568
22445WAT      O67576   9.641   9.337   5.629
22445WAT     H167577   9.642   9.312   5.532
22445WAT     H267578   9.587   9.271   5.680
22446WAT      O67579   7.436   7.514   0.070
22446WAT     H167580   7.533   7.512   0.045
22446WAT     H267581   7.412   7.430   0.119
22447WAT      O67582   4.265   5.427   6.992
22447WAT     H167583   4.237   5.331   6.992
22447WAT     H267584   4.221   5.474   7.069
22448WAT      O67585   1.475   8.211   5.981
22448WAT     H167586   1.567   8.192   5.947
22448WAT     H267587   1.476   8.213   6.081
22449WAT      O67588   2.425   7.880   0.807
22449WAT     H167589   2.524   7.890   0.800
22449WAT     H267590   2.381   7.969   0.795
22450WAT      O67591   2.182   4.657   1.140
22450WAT     H167592   2.167   4.620   1.232
22450WAT     H267593   2.132   4.743   1.131
22451WAT      O67594   4.816   1.421   7.575
22451WAT     H167595   4.720   1.430   7.549
22451WAT     H267596   4.851   1.333   7.542
22452WAT      O67597   8.224   6.591   1.250
22452WAT     H167598   8.271   6.605   1.337
22452WAT     H267599   8.138   6.542   1.266
22453WAT      O67600   4.892   0.464   9.327
22453WAT     H167601   4.893   0.365   9.338
22453WAT     H267602   4.907   0.508   9.415
22454WAT      O67603   0.730   8.685   1.708
22454WAT     H167604   0.770   8.639   1.629
22454WAT     H267605   0.707   8.779   1.683
22455WAT      O67606   0.576   6.046   4.683
22455WAT     H167607   0.605   6.074   4.775
22455WAT     H267608   0.497   5.986   4.690
22456WAT      O67609   1.691   9.426   8.557
22456WAT     H167610   1.690   9.525   8.546
22456WAT     H267611   1.609   9.386   8.516
22457WAT      O67612   6.991   0.695   6.947
22457WAT     H167613   7.029   0.625   7.008
22457WAT     H267614   7.065   0.732   6.890
22458WAT      O67615   1.715   6.335   2.156
22458WAT     H167616   1.751   6.396   2.085
22458WAT     H267617   1.791   6.297   2.209
22459WAT      O67618   8.928   4.330   8.573
22459WAT     H167619   8.876   4.259   8.526
22459WAT     H267620   8.906   4.419   8.534
22460WAT      O67621   5.585   6.595   4.117
22460WAT     H167622   5.491   6.563   4.108
22460WAT     H267623   5.627   6.551   4.197
22461WAT      O67624   4.321   2.224   3.090
22461WAT     H167625   4.316   2.254   3.186
22461WAT     H267626   4.416   2.232   3.059
22462WAT      O67627   7.173   4.464   2.949
22462WAT     H167628   7.213   4.468   2.858
22462WAT     H267629   7.075   4.444   2.942
22463WAT      O67630   0.366   8.269   2.988
22463WAT     H167631   0.465   8.273   2.977
22463WAT     H267632   0.324   8.345   2.938
22464WAT      O67633   2.087   7.204   3.867
22464WAT     H167634   2.074   7.241   3.959
22464WAT     H267635   1.999   7.181   3.828
22465WAT      O67636   4.686   2.055   7.750
22465WAT     H167637   4.746   2.111   7.694
22465WAT     H267638   4.598   2.101   7.762
22466WAT      O67639   4.511   7.783   1.533
22466WAT     H167640   4.607   7.767   1.557
22466WAT     H267641   4.501   7.873   1.492
22467WAT      O67642   0.633   2.733   4.537
22467WAT     H167643   0.552   2.679   4.560
22467WAT     H267644   0.664   2.707   4.445
22468WAT      O67645   6.599   6.893   2.308
22468WAT     H167646   6.681   6.841   2.334
22468WAT     H267647   6.614   6.938   2.220
22469WAT      O67648   8.433   9.547   2.619
22469WAT     H167649   8.465   9.575   2.529
22469WAT     H267650   8.348   9.495   2.610
22470WAT      O67651   3.348   4.948   5.942
22470WAT     H167652   3.418   4.924   5.876
22470WAT     H267653   3.289   5.019   5.904
22471WAT      O67654   1.210   0.909   2.823
22471WAT     H167655   1.158   0.919   2.738
22471WAT     H267656   1.229   0.813   2.839
22472WAT      O67657   0.939   4.861   6.392
22472WAT     H167658   1.029   4.853   6.434
22472WAT     H267659   0.893   4.772   6.393
22473WAT      O67660   6.034   6.880   0.759
22473WAT     H167661   6.000   6.970   0.785
22473WAT     H267662   6.122   6.889   0.712
22474WAT      O67663   0.404   3.616   0.530
22474WAT     H167664   0.341   3.565   0.472
22474WAT     H267665   0.498   3.592   0.506
22475WAT      O67666   8.112   2.365   4.584
22475WAT     H167667   8.061   2.425   4.646
22475WAT     H267668   8.145   2.285   4.634
22476WAT      O67669   1.848   1.181   5.597
22476WAT     H167670   1.875   1.214   5.507
22476WAT     H267671   1.904   1.225   5.667
22477WAT      O67672   5.798   4.755   7.350
22477WAT     H167673   5.876   4.694   7.344
22477WAT     H267674   5.721   4.708   7.392
22478WAT      O67675   3.223   6.750   5.532
22478WAT     H167676   3.125   6.773   5.537
22478WAT     H267677   3.266   6.807   5.462
22479WAT      O67678   0.491   2.025   9.333
22479WAT     H167679   0.459   2.114   9.303
22479WAT     H267680   0.589   2.016   9.316
22480WAT      O67681   1.444   0.020   3.522
22480WAT     H167682   1.351   0.013   3.486
22480WAT     H267683   1.510  -0.007   3.451
22481WAT      O67684   4.184   3.042   3.470
22481WAT     H167685   4.132   2.984   3.407
22481WAT     H267686   4.278   3.009   3.476
22482WAT      O67687   5.609   8.233   8.806
22482WAT     H167688   5.559   8.172   8.744
22482WAT     H267689   5.544   8.285   8.861
22483WAT      O67690   2.278   6.723   2.675
22483WAT     H167691   2.348   6.711   2.605
22483WAT     H267692   2.303   6.670   2.756
22484WAT      O67693   3.111   2.724   0.945
22484WAT     H167694   3.076   2.800   0.890
22484WAT     H267695   3.047   2.647   0.940
22485WAT      O67696   0.381   5.732   2.941
22485WAT     H167697   0.413   5.671   3.013
22485WAT     H267698   0.447   5.807   2.931
22486WAT      O67699   4.152   5.363   2.306
22486WAT     H167700   4.088   5.376   2.231
22486WAT     H267701   4.226   5.302   2.277
22487WAT      O67702   1.881   8.535   9.513
22487WAT     H167703   1.970   8.490   9.516
22487WAT     H267704   1.825   8.493   9.442
22488WAT      O67705   3.191   5.115   8.293
22488WAT     H167706   3.170   5.018   8.303
22488WAT     H267707   3.149   5.150   8.209
22489WAT      O67708   6.302   4.238   1.234
22489WAT     H167709   6.299   4.140   1.218
22489WAT     H267710   6.397   4.269   1.233
22490WAT      O67711   6.094   6.781   3.674
22490WAT     H167712   6.148   6.781   3.591
22490WAT     H267713   6.000   6.809   3.653
22491WAT      O67714   7.995   9.484   7.759
22491WAT     H167715   7.922   9.472   7.826
22491WAT     H267716   8.076   9.434   7.788
22492WAT      O67717   2.051   2.382   5.137
22492WAT     H167718   2.074   2.422   5.048
22492WAT     H267719   2.129   2.392   5.199
22493WAT      O67720   2.853   2.772   4.523
22493WAT     H167721   2.762   2.806   4.500
22493WAT     H267722   2.878   2.699   4.460
22494WAT      O67723   1.251   1.052   4.281
22494WAT     H167724   1.169   1.004   4.311
22494WAT     H267725   1.301   0.997   4.215
22495WAT      O67726   6.083   0.624   9.230
22495WAT     H167727   5.998   0.647   9.183
22495WAT     H267728   6.072   0.539   9.281
22496WAT      O67729   9.425   9.691   6.713
22496WAT     H167730   9.515   9.733   6.701
22496WAT     H267731   9.430   9.594   6.690
22497WAT      O67732   7.573   8.760   8.408
22497WAT     H167733   7.536   8.844   8.448
22497WAT     H267734   7.666   8.776   8.375
22498WAT      O67735   1.380   4.754   4.948
22498WAT     H167736   1.448   4.694   4.990
22498WAT     H267737   1.384   4.746   4.849
22499WAT      O67738   2.729   2.273   8.676
22499WAT     H167739   2.812   2.327   8.667
22499WAT     H267740   2.677   2.304   8.756
22500WAT      O67741   8.352   8.003   2.033
22500WAT     H167742   8.338   7.958   1.944
22500WAT     H267743   8.280   7.975   2.096
22501WAT      O67744   1.018   2.404   6.402
22501WAT     H167745   1.085   2.329   6.402
22501WAT     H267746   1.059   2.485   6.361
22502WAT      O67747   0.927   9.412   7.691
22502WAT     H167748   0.894   9.319   7.674
22502WAT     H267749   0.886   9.474   7.624
22503WAT      O67750   2.056   5.364   8.095
22503WAT     H167751   1.960   5.342   8.115
22503WAT     H267752   2.064   5.398   8.001
22504WAT      O67753   0.010   1.024   8.673
22504WAT     H167754   0.062   1.040   8.589
22504WAT     H267755  -0.016   0.927   8.677
22505WAT      O67756   8.686   0.019   4.760
22505WAT     H167757   8.750   0.092   4.739
22505WAT     H267758   8.706  -0.061   4.703
22506WAT      O67759   0.753   1.211   2.226
22506WAT     H167760   0.780   1.305   2.245
22506WAT     H267761   0.834   1.153   2.225
22507WAT      O67762   5.970   0.188   5.885
22507WAT     H167763   5.907   0.260   5.857
22507WAT     H267764   5.936   0.142   5.967
22508WAT      O67765   6.864   2.685   0.618
22508WAT     H167766   6.906   2.737   0.693
22508WAT     H267767   6.797   2.622   0.656
22509WAT      O67768   6.231   3.692   2.583
22509WAT     H167769   6.205   3.608   2.535
22509WAT     H267770   6.294   3.670   2.657
22510WAT      O67771   6.580   5.011   9.607
22510WAT     H167772   6.502   4.970   9.655
22510WAT     H267773   6.609   5.093   9.656
22511WAT      O67774   1.907   9.327   4.999
22511WAT     H167775   1.837   9.398   5.008
22511WAT     H267776   1.895   9.260   5.073
22512WAT      O67777   1.292   0.859   7.150
22512WAT     H167778   1.344   0.944   7.158
22512WAT     H267779   1.341   0.794   7.092
22513WAT      O67780   2.050   0.564   6.275
22513WAT     H167781   2.107   0.515   6.341
22513WAT     H267782   1.958   0.525   6.276
22514WAT      O67783   6.968   6.881   7.714
22514WAT     H167784   7.002   6.937   7.638
22514WAT     H267785   6.869   6.873   7.708
22515WAT      O67786   8.872   9.340   8.442
22515WAT     H167787   8.866   9.255   8.390
22515WAT     H267788   8.944   9.332   8.511
22516WAT      O67789   8.511   4.583   0.146
22516WAT     H167790   8.433   4.549   0.200
22516WAT     H267791   8.595   4.570   0.198
22517WAT      O67792   2.945   3.691   6.554
22517WAT     H167793   2.859   3.681   6.605
22517WAT     H267794   2.984   3.782   6.571
22518WAT      O67795   2.039   7.272   5.989
22518WAT     H167796   1.964   7.308   5.934
22518WAT     H267797   2.077   7.345   6.046
22519WAT      O67798   2.096   6.066   1.255
22519WAT     H167799   2.163   6.093   1.324
22519WAT     H267800   2.010   6.114   1.270
22520WAT      O67801   0.409   0.591   1.101
22520WAT     H167802   0.393   0.690   1.103
22520WAT     H267803   0.460   0.564   1.183
22521WAT      O67804   5.246   8.369   3.007
22521WAT     H167805   5.304   8.433   3.057
22521WAT     H267806   5.223   8.408   2.918
22522WAT      O67807   6.536   3.155   6.880
22522WAT     H167808   6.544   3.143   6.780
22522WAT     H267809   6.476   3.084   6.917
22523WAT      O67810   5.486   3.363   4.836
22523WAT     H167811   5.502   3.269   4.806
22523WAT     H267812   5.521   3.375   4.929
22524WAT      O67813   3.340   0.944   8.114
22524WAT     H167814   3.368   0.991   8.030
22524WAT     H267815   3.240   0.950   8.123
22525WAT      O67816   6.735   9.551   2.948
22525WAT     H167817   6.744   9.610   2.868
22525WAT     H267818   6.813   9.488   2.952
22526WAT      O67819   3.288   0.317   4.676
22526WAT     H167820   3.297   0.304   4.775
22526WAT     H267821   3.304   0.230   4.629
22527WAT      O67822   3.618   4.148   5.121
22527WAT     H167823   3.700   4.108   5.162
22527WAT     H267824   3.619   4.247   5.134
22528WAT      O67825   3.655   7.769   4.422
22528WAT     H167826   3.712   7.784   4.341
22528WAT     H267827   3.711   7.730   4.495
22529WAT      O67828   3.380   3.246   9.610
22529WAT     H167829   3.295   3.290   9.579
22529WAT     H267830   3.364   3.204   9.700
22530WAT      O67831   6.405   4.420   5.121
22530WAT     H167832   6.482   4.364   5.089
22530WAT     H267833   6.432   4.470   5.203
22531WAT      O67834   3.786   9.819   0.411
22531WAT     H167835   3.699   9.843   0.454
22531WAT     H267836   3.788   9.853   0.317
22532WAT      O67837   0.802   8.587   2.461
22532WAT     H167838   0.826   8.578   2.558
22532WAT     H267839   0.844   8.513   2.409
22533WAT      O67840   0.241   4.161   4.617
22533WAT     H167841   0.143   4.150   4.633
22533WAT     H267842   0.270   4.252   4.647
22534WAT      O67843   4.218   0.863   9.492
22534WAT     H167844   4.224   0.959   9.521
22534WAT     H267845   4.191   0.806   9.571
22535WAT      O67846   7.664   0.074   0.536
22535WAT     H167847   7.610   0.157   0.544
22535WAT     H267848   7.614  -0.003   0.576
22536WAT      O67849   1.772   3.113   2.697
22536WAT     H167850   1.711   3.187   2.727
22536WAT     H267851   1.798   3.128   2.602
22537WAT      O67852   8.087   4.830   1.107
22537WAT     H167853   8.097   4.854   1.010
22537WAT     H267854   8.004   4.777   1.120
22538WAT      O67855   4.249   1.203   2.011
22538WAT     H167856   4.212   1.292   2.035
22538WAT     H267857   4.201   1.168   1.930
22539WAT      O67858   7.990   8.050   8.461
22539WAT     H167859   8.067   8.112   8.448
22539WAT     H267860   7.963   8.011   8.373
22540WAT      O67861   5.593   8.473   6.669
22540WAT     H167862   5.686   8.463   6.633
22540WAT     H267863   5.581   8.565   6.707
22541WAT      O67864   2.083   5.957   1.563
22541WAT     H167865   2.089   5.883   1.495
22541WAT     H267866   2.034   6.034   1.524
22542WAT      O67867   3.590   1.390   1.478
22542WAT     H167868   3.585   1.314   1.413
22542WAT     H267869   3.517   1.381   1.545
22543WAT      O67870   8.547   6.736   0.390
22543WAT     H167871   8.633   6.785   0.376
22543WAT     H267872   8.470   6.798   0.378
22544WAT      O67873   9.394   2.283   4.966
22544WAT     H167874   9.474   2.285   4.905
22544WAT     H267875   9.400   2.357   5.032
22545WAT      O67876   0.899   6.633   3.688
22545WAT     H167877   0.931   6.727   3.680
22545WAT     H267878   0.966   6.579   3.740
22546WAT      O67879   0.305   7.945   2.921
22546WAT     H167880   0.312   7.995   3.007
22546WAT     H267881   0.276   8.007   2.848
22547WAT      O67882   6.327   7.529   4.351
22547WAT     H167883   6.314   7.572   4.262
22547WAT     H267884   6.244   7.538   4.406
22548WAT      O67885   4.955   8.803   0.521
22548WAT     H167886   4.878   8.864   0.502
22548WAT     H267887   5.041   8.855   0.519
22549WAT      O67888   1.436   0.376   9.487
22549WAT     H167889   1.419   0.458   9.541
22549WAT     H267890   1.418   0.396   9.390
22550WAT      O67891   8.317   3.941   7.252
22550WAT     H167892   8.413   3.912   7.248
22550WAT     H267893   8.271   3.894   7.327
22551WAT      O67894   7.484   3.280   9.029
22551WAT     H167895   7.503   3.224   9.109
22551WAT     H267896   7.456   3.222   8.953
22552WAT      O67897   6.585   3.371   1.792
22552WAT     H167898   6.667   3.343   1.843
22552WAT     H267899   6.512   3.304   1.807
22553WAT      O67900   0.591   8.286   0.860
22553WAT     H167901   0.617   8.246   0.948
22553WAT     H267902   0.518   8.353   0.874
22554WAT      O67903   0.829   1.191   6.990
22554WAT     H167904   0.885   1.223   6.914
22554WAT     H267905   0.877   1.117   7.037
22555WAT      O67906   6.601   4.273   1.261
22555WAT     H167907   6.613   4.275   1.360
22555WAT     H267908   6.610   4.179   1.228
22556WAT      O67909   8.078   6.794   1.629
22556WAT     H167910   8.166   6.789   1.582
22556WAT     H267911   8.062   6.887   1.661
22557WAT      O67912   9.367   4.300   1.036
22557WAT     H167913   9.335   4.257   0.952
22557WAT     H267914   9.291   4.303   1.102
22558WAT      O67915   7.223   7.221   6.449
22558WAT     H167916   7.154   7.174   6.503
22558WAT     H267917   7.228   7.317   6.478
22559WAT      O67918   4.284   3.625   7.206
22559WAT     H167919   4.227   3.564   7.151
22559WAT     H267920   4.236   3.650   7.290
22560WAT      O67921   1.210   1.294   5.192
22560WAT     H167922   1.160   1.291   5.278
22560WAT     H267923   1.203   1.387   5.153
22561WAT      O67924   3.223   0.595   9.627
22561WAT     H167925   3.216   0.504   9.667
22561WAT     H267926   3.200   0.665   9.695
22562WAT      O67927   9.092   2.817   7.234
22562WAT     H167928   9.121   2.909   7.262
22562WAT     H267929   9.013   2.825   7.173
22563WAT      O67930   4.563   0.446   1.859
22563WAT     H167931   4.616   0.436   1.943
22563WAT     H267932   4.473   0.484   1.880
22564WAT      O67933   9.867   8.023   2.420
22564WAT     H167934   9.845   8.067   2.508
22564WAT     H267935   9.917   8.088   2.362
22565WAT      O67936   8.572   5.703   2.828
22565WAT     H167937   8.551   5.754   2.744
22565WAT     H267938   8.624   5.762   2.890
22566WAT      O67939   8.892   5.253   5.642
22566WAT     H167940   8.827   5.306   5.698
22566WAT     H267941   8.843   5.204   5.570
22567WAT      O67942   6.237   5.208   5.387
22567WAT     H167943   6.225   5.297   5.431
22567WAT     H267944   6.322   5.209   5.334
22568WAT      O67945   8.564   6.791   0.077
22568WAT     H167946   8.536   6.850   0.153
22568WAT     H267947   8.633   6.727   0.110
22569WAT      O67948   6.425   9.366   7.450
22569WAT     H167949   6.474   9.338   7.533
22569WAT     H267950   6.417   9.288   7.389
22570WAT      O67951   0.152   7.633   8.579
22570WAT     H167952   0.206   7.568   8.527
22570WAT     H267953   0.207   7.670   8.654
22571WAT      O67954   3.002   0.192   5.282
22571WAT     H167955   2.921   0.238   5.244
22571WAT     H267956   3.083   0.247   5.266
22572WAT      O67957   3.038   0.423   6.284
22572WAT     H167958   2.971   0.355   6.257
22572WAT     H267959   3.124   0.378   6.308
22573WAT      O67960   6.941   5.134   3.002
22573WAT     H167961   6.889   5.167   3.081
22573WAT     H267962   6.939   5.202   2.929
22574WAT      O67963   1.551   4.974   4.489
22574WAT     H167964   1.561   5.033   4.570
22574WAT     H267965   1.458   4.983   4.453
22575WAT      O67966   4.148   1.567   2.043
22575WAT     H167967   4.227   1.525   1.999
22575WAT     H267968   4.099   1.499   2.097
22576WAT      O67969   3.289   0.350   9.702
22576WAT     H167970   3.376   0.393   9.728
22576WAT     H267971   3.252   0.301   9.781
22577WAT      O67972   8.986   4.157   9.748
22577WAT     H167973   9.023   4.134   9.838
22577WAT     H267974   9.017   4.091   9.680
22578WAT      O67975   0.863   5.263   6.535
22578WAT     H167976   0.910   5.271   6.448
22578WAT     H267977   0.849   5.167   6.557
22579WAT      O67978   5.661   9.575   1.455
22579WAT     H167979   5.599   9.638   1.501
22579WAT     H267980   5.737   9.627   1.414
22580WAT      O67981   3.575   9.682   5.324
22580WAT     H167982   3.506   9.620   5.286
22580WAT     H267983   3.593   9.755   5.258
22581WAT      O67984   0.117   0.361   2.114
22581WAT     H167985   0.050   0.423   2.155
22581WAT     H267986   0.126   0.280   2.172
22582WAT      O67987   9.255   6.563   7.876
22582WAT     H167988   9.350   6.533   7.876
22582WAT     H267989   9.216   6.551   7.784
22583WAT      O67990   5.571   4.065   3.825
22583WAT     H167991   5.522   4.009   3.892
22583WAT     H267992   5.662   4.027   3.809
22584WAT      O67993   2.841   8.077   0.462
22584WAT     H167994   2.826   8.080   0.363
22584WAT     H267995   2.857   7.983   0.491
22585WAT      O67996   9.090   3.356   4.597
22585WAT     H167997   9.150   3.433   4.619
22585WAT     H267998   9.135   3.296   4.530
22586WAT      O67999   5.699   1.750   1.776
22586WAT     H168000   5.700   1.656   1.742
22586WAT     H268001   5.608   1.789   1.762
22587WAT      O68002   7.807   4.531   6.747
22587WAT     H168003   7.825   4.477   6.664
22587WAT     H268004   7.708   4.541   6.759
22588WAT      O68005   3.483   5.592   9.886
22588WAT     H168006   3.573   5.620   9.852
22588WAT     H268007   3.492   5.507   9.938
22589WAT      O68008   6.782   1.906   1.855
22589WAT     H168009   6.784   1.928   1.757
22589WAT     H268010   6.688   1.911   1.888
22590WAT      O68011   1.785   4.488   2.737
22590WAT     H168012   1.867   4.433   2.724
22590WAT     H268013   1.783   4.563   2.670
22591WAT      O68014   6.261   4.925   1.565
22591WAT     H168015   6.248   4.859   1.639
22591WAT     H268016   6.173   4.946   1.523
22592WAT      O68017   0.392   4.543   7.659
22592WAT     H168018   0.462   4.472   7.667
22592WAT     H268019   0.359   4.566   7.751
22593WAT      O68020   2.358   7.025   8.909
22593WAT     H168021   2.349   7.094   8.838
22593WAT     H268022   2.365   7.069   8.998
22594WAT      O68023   9.424   2.726   7.109
22594WAT     H168024   9.506   2.668   7.108
22594WAT     H268025   9.350   2.678   7.155
22595WAT      O68026   2.119   3.559   1.950
22595WAT     H168027   2.076   3.538   2.038
22595WAT     H268028   2.052   3.601   1.890
22596WAT      O68029   8.893   1.485   3.424
22596WAT     H168030   8.909   1.504   3.521
22596WAT     H268031   8.974   1.510   3.371
22597WAT      O68032   9.562   0.695   6.348
22597WAT     H168033   9.632   0.682   6.418
22597WAT     H268034   9.570   0.625   6.278
22598WAT      O68035   4.982   6.938   8.930
22598WAT     H168036   5.075   6.918   8.961
22598WAT     H268037   4.916   6.888   8.986
22599WAT      O68038   0.458   9.715   5.676
22599WAT     H168039   0.444   9.637   5.738
22599WAT     H268040   0.521   9.688   5.604
22600WAT      O68041   5.864   6.392   8.460
22600WAT     H168042   5.820   6.431   8.541
22600WAT     H268043   5.871   6.293   8.470
22601WAT      O68044   7.316   5.554   7.762
22601WAT     H168045   7.317   5.624   7.833
22601WAT     H268046   7.222   5.524   7.745
22602WAT      O68047   6.011   5.502   9.376
22602WAT     H168048   5.953   5.503   9.295
22602WAT     H268049   5.982   5.429   9.437
22603WAT      O68050   5.672   5.427   2.617
22603WAT     H168051   5.711   5.518   2.603
22603WAT     H268052   5.714   5.363   2.554
22604WAT      O68053   5.578   5.265   9.140
22604WAT     H168054   5.538   5.262   9.048
22604WAT     H268055   5.522   5.324   9.198
22605WAT      O68056   8.285   0.815   8.030
22605WAT     H168057   8.187   0.798   8.026
22605WAT     H268058   8.312   0.876   7.955
22606WAT      O68059   3.208   2.502   8.312
22606WAT     H168060   3.155   2.429   8.268
22606WAT     H268061   3.303   2.498   8.281
22607WAT      O68062   9.049   1.320   5.766
22607WAT     H168063   9.005   1.403   5.731
22607WAT     H268064   9.049   1.323   5.866
22608WAT      O68065   9.384   8.060   0.428
22608WAT     H168066   9.385   7.966   0.464
22608WAT     H268067   9.463   8.109   0.463
22609WAT      O68068   8.815   2.903   3.570
22609WAT     H168069   8.872   2.836   3.617
22609WAT     H268070   8.800   2.874   3.475
22610WAT      O68071   1.380   4.594   9.821
22610WAT     H168072   1.463   4.538   9.833
22610WAT     H268073   1.406   4.690   9.815
22611WAT      O68074   1.359   3.883   8.849
22611WAT     H168075   1.449   3.915   8.817
22611WAT     H268076   1.369   3.792   8.890
22612WAT      O68077   4.927   3.491   6.898
22612WAT     H168078   4.992   3.545   6.845
22612WAT     H268079   4.910   3.535   6.986
22613WAT      O68080   5.510   7.037   3.629
22613WAT     H168081   5.555   6.964   3.681
22613WAT     H268082   5.430   7.069   3.678
22614WAT      O68083   4.155   4.379   2.018
22614WAT     H168084   4.119   4.443   2.086
22614WAT     H268085   4.252   4.400   2.001
22615WAT      O68086   9.878   5.718   7.254
22615WAT     H168087   9.870   5.628   7.211
22615WAT     H268088   9.950   5.715   7.323
22616WAT      O68089   5.932   1.301   9.257
22616WAT     H168090   6.004   1.306   9.327
22616WAT     H268091   5.969   1.330   9.169
22617WAT      O68092   6.345   6.810   2.419
22617WAT     H168093   6.435   6.817   2.375
22617WAT     H268094   6.281   6.765   2.356
22618WAT      O68095   6.100   2.143   1.834
22618WAT     H168096   6.018   2.127   1.778
22618WAT     H268097   6.118   2.062   1.890
22619WAT      O68098   8.993   5.469   3.482
22619WAT     H168099   9.090   5.490   3.473
22619WAT     H268100   8.983   5.377   3.522
22620WAT      O68101   6.524   8.268   3.529
22620WAT     H168102   6.502   8.173   3.552
22620WAT     H268103   6.554   8.273   3.434
22621WAT      O68104   3.194   6.255   5.127
22621WAT     H168105   3.235   6.274   5.216
22621WAT     H268106   3.262   6.270   5.055
22622WAT      O68107   4.407   1.383   5.293
22622WAT     H168108   4.507   1.384   5.287
22622WAT     H268109   4.378   1.403   5.386
22623WAT      O68110   0.816   0.935   0.936
22623WAT     H168111   0.798   0.862   1.001
22623WAT     H268112   0.734   0.992   0.925
22624WAT      O68113   0.832   5.680   8.791
22624WAT     H168114   0.770   5.737   8.844
22624WAT     H268115   0.917   5.729   8.774
22625WAT      O68116   1.502   6.304   8.107
22625WAT     H168117   1.576   6.237   8.107
22625WAT     H268118   1.502   6.353   8.019
22626WAT      O68119   5.893   9.617   6.728
22626WAT     H168120   5.911   9.643   6.634
22626WAT     H268121   5.856   9.696   6.778
22627WAT      O68122   0.893   0.404   2.520
22627WAT     H168123   0.852   0.340   2.585
22627WAT     H268124   0.924   0.354   2.439
22628WAT      O68125   5.988   9.037   0.630
22628WAT     H168126   5.984   9.076   0.721
22628WAT     H268127   6.075   9.061   0.587
22629WAT      O68128   1.965   3.987   0.512
22629WAT     H168129   1.964   3.989   0.412
22629WAT     H268130   2.050   4.026   0.545
22630WAT      O68131   4.407   6.793   1.001
22630WAT     H168132   4.367   6.742   1.077
22630WAT     H268133   4.339   6.805   0.929
22631WAT      O68134   2.831   9.506   6.892
22631WAT     H168135   2.765   9.581   6.899
22631WAT     H268136   2.903   9.520   6.960
22632WAT      O68137   4.096   9.425   3.447
22632WAT     H168138   4.128   9.420   3.542
22632WAT     H268139   4.086   9.332   3.411
22633WAT      O68140   3.294   5.019   3.287
22633WAT     H168141   3.207   4.996   3.244
22633WAT     H268142   3.300   4.971   3.375
22634WAT      O68143   5.904   3.794   0.746
22634WAT     H168144   5.984   3.767   0.691
22634WAT     H268145   5.863   3.876   0.707
22635WAT      O68146   0.692   3.050   9.620
22635WAT     H168147   0.644   3.100   9.548
22635WAT     H268148   0.749   2.979   9.580
22636WAT      O68149   7.267   3.640   8.034
22636WAT     H168150   7.236   3.546   8.018
22636WAT     H268151   7.323   3.670   7.957
22637WAT      O68152   4.306   4.927   2.393
22637WAT     H168153   4.375   4.946   2.323
22637WAT     H268154   4.216   4.923   2.351
22638WAT      O68155   4.033   3.928   9.866
22638WAT     H168156   3.977   3.982   9.804
22638WAT     H268157   4.118   3.977   9.886
22639WAT      O68158   2.381   2.806   6.207
22639WAT     H168159   2.468   2.852   6.227
22639WAT     H268160   2.342   2.843   6.123
22640WAT      O68161   6.290   7.678   5.276
22640WAT     H168162   6.200   7.635   5.268
22640WAT     H268163   6.285   7.772   5.240
22641WAT      O68164   6.416   5.396   0.697
22641WAT     H168165   6.479   5.372   0.770
22641WAT     H268166   6.420   5.326   0.625
22642WAT      O68167   6.094   8.807   1.285
22642WAT     H168168   6.098   8.744   1.208
22642WAT     H268169   6.165   8.783   1.352
22643WAT      O68170   6.133   7.210   4.050
22643WAT     H168171   6.217   7.184   4.097
22643WAT     H268172   6.137   7.181   3.955
22644WAT      O68173   6.533   9.033   7.949
22644WAT     H168174   6.440   9.015   7.980
22644WAT     H268175   6.583   9.080   8.022
22645WAT      O68176   7.609   7.213   6.600
22645WAT     H168177   7.567   7.156   6.530
22645WAT     H268178   7.559   7.202   6.686
22646WAT      O68179   1.424   7.296   1.223
22646WAT     H168180   1.366   7.352   1.282
22646WAT     H268181   1.463   7.221   1.277
22647WAT      O68182   4.495   8.423   8.959
22647WAT     H168183   4.589   8.389   8.962
22647WAT     H268184   4.431   8.346   8.952
22648WAT      O68185   2.471   1.526   9.392
22648WAT     H168186   2.441   1.609   9.440
22648WAT     H268187   2.563   1.502   9.422
22649WAT      O68188   5.029   9.724   6.662
22649WAT     H168189   5.128   9.711   6.656
22649WAT     H268190   5.004   9.744   6.756
22650WAT      O68191   0.796   2.071   6.518
22650WAT     H168192   0.889   2.072   6.480
22650WAT     H268193   0.730   2.075   6.443
22651WAT      O68194   8.860   6.834   9.690
22651WAT     H168195   8.792   6.904   9.715
22651WAT     H268196   8.813   6.754   9.652
22652WAT      O68197   4.715   1.061   2.364
22652WAT     H168198   4.710   1.026   2.271
22652WAT     H268199   4.799   1.030   2.408
22653WAT      O68200   1.831   3.414   2.150
22653WAT     H168201   1.879   3.422   2.238
22653WAT     H268202   1.809   3.319   2.132
22654WAT      O68203   4.674   0.493   8.872
22654WAT     H168204   4.716   0.583   8.884
22654WAT     H268205   4.718   0.446   8.795
22655WAT      O68206   8.766   2.848   0.895
22655WAT     H168207   8.783   2.752   0.917
22655WAT     H268208   8.846   2.886   0.849
22656WAT      O68209   1.345   5.810   8.315
22656WAT     H168210   1.273   5.795   8.382
22656WAT     H268211   1.383   5.722   8.286
22657WAT      O68212   0.816   5.340   9.267
22657WAT     H168213   0.817   5.416   9.202
22657WAT     H268214   0.805   5.375   9.360
22658WAT      O68215   1.030   7.200   1.405
22658WAT     H168216   1.023   7.172   1.310
22658WAT     H268217   0.948   7.171   1.455
22659WAT      O68218   2.388   1.631   1.257
22659WAT     H168219   2.410   1.599   1.350
22659WAT     H268220   2.377   1.552   1.197
22660WAT      O68221   0.165   5.452   4.890
22660WAT     H168222   0.253   5.460   4.842
22660WAT     H268223   0.096   5.418   4.826
22661WAT      O68224   6.660   7.240   1.132
22661WAT     H168225   6.596   7.312   1.105
22661WAT     H268226   6.673   7.176   1.057
22662WAT      O68227   0.083   6.255   3.218
22662WAT     H168228   0.048   6.234   3.127
22662WAT     H268229   0.035   6.200   3.286
22663WAT      O68230   7.299   6.558   5.807
22663WAT     H168231   7.240   6.528   5.732
22663WAT     H268232   7.254   6.537   5.895
22664WAT      O68233   6.033   8.263   7.887
22664WAT     H168234   6.051   8.328   7.961
22664WAT     H268235   6.118   8.217   7.862
22665WAT      O68236   7.117   3.122   3.666
22665WAT     H168237   7.143   3.039   3.714
22665WAT     H268238   7.023   3.146   3.687
22666WAT      O68239   9.258   0.537   1.055
22666WAT     H168240   9.159   0.548   1.045
22666WAT     H268241   9.282   0.441   1.043
22667WAT      O68242   6.826   2.340   0.490
22667WAT     H168243   6.827   2.429   0.534
22667WAT     H268244   6.868   2.272   0.550
22668WAT      O68245   7.395   9.678   7.805
22668WAT     H168246   7.301   9.694   7.835
22668WAT     H268247   7.414   9.580   7.807
22669WAT      O68248   0.087   7.902   1.213
22669WAT     H168249   0.060   7.808   1.234
22669WAT     H268250   0.164   7.901   1.149
22670WAT      O68251   2.278   5.207   2.939
22670WAT     H168252   2.369   5.219   2.978
22670WAT     H268253   2.276   5.243   2.846
22671WAT      O68254   3.746   1.429   4.571
22671WAT     H168255   3.789   1.498   4.629
22671WAT     H268256   3.646   1.442   4.572
22672WAT      O68257   9.847   7.793   2.263
22672WAT     H168258   9.856   7.882   2.306
22672WAT     H268259   9.764   7.791   2.207
22673WAT      O68260   2.625   3.933   9.774
22673WAT     H168261   2.713   3.966   9.741
22673WAT     H268262   2.639   3.874   9.854
22674WAT      O68263   4.994   4.176   1.979
22674WAT     H168264   4.903   4.152   2.013
22674WAT     H268265   5.064   4.132   2.036
22675WAT      O68266   0.824   7.186   3.778
22675WAT     H168267   0.916   7.165   3.809
22675WAT     H268268   0.799   7.279   3.807
22676WAT      O68269   6.041   1.343   4.855
22676WAT     H168270   6.000   1.315   4.942
22676WAT     H268271   6.122   1.399   4.873
22677WAT      O68272   5.546   6.264   4.912
22677WAT     H168273   5.528   6.231   5.005
22677WAT     H268274   5.477   6.331   4.886
22678WAT      O68275   8.276   9.639   4.616
22678WAT     H168276   8.284   9.675   4.523
22678WAT     H268277   8.217   9.557   4.615
22679WAT      O68278   8.767   6.526   7.110
22679WAT     H168279   8.730   6.435   7.090
22679WAT     H268280   8.850   6.541   7.057
22680WAT      O68281   5.715   1.157   2.872
22680WAT     H168282   5.798   1.105   2.851
22680WAT     H268283   5.636   1.096   2.869
22681WAT      O68284   4.874   3.588   2.028
22681WAT     H168285   4.893   3.490   2.017
22681WAT     H268286   4.946   3.641   1.983
22682WAT      O68287   7.318   8.463   4.767
22682WAT     H168288   7.225   8.425   4.762
22682WAT     H268289   7.313   8.563   4.760
22683WAT      O68290   7.325   6.972   5.319
22683WAT     H168291   7.277   7.045   5.368
22683WAT     H268292   7.261   6.897   5.301
22684WAT      O68293   5.667   4.506   2.992
22684WAT     H168294   5.629   4.458   3.072
22684WAT     H268295   5.682   4.602   3.015
22685WAT      O68296   8.007   7.538   9.675
22685WAT     H168297   8.020   7.534   9.774
22685WAT     H268298   7.916   7.575   9.655
22686WAT      O68299   1.731   3.596   4.828
22686WAT     H168300   1.681   3.559   4.749
22686WAT     H268301   1.781   3.522   4.873
22687WAT      O68302   4.040   7.924   5.802
22687WAT     H168303   4.070   7.877   5.719
22687WAT     H268304   4.044   7.862   5.880
22688WAT      O68305   8.851   2.007   8.730
22688WAT     H168306   8.787   2.071   8.771
22688WAT     H268307   8.836   1.916   8.767
22689WAT      O68308   5.618   3.460   3.643
22689WAT     H168309   5.577   3.465   3.734
22689WAT     H268310   5.621   3.551   3.602
22690WAT      O68311   0.652   9.243   6.877
22690WAT     H168312   0.565   9.293   6.869
22690WAT     H268313   0.644   9.156   6.830
22691WAT      O68314   4.635   0.989   8.184
22691WAT     H168315   4.538   1.010   8.200
22691WAT     H268316   4.687   1.074   8.179
22692WAT      O68317   7.954   9.397   7.502
22692WAT     H168318   8.045   9.405   7.461
22692WAT     H268319   7.958   9.426   7.598
22693WAT      O68320   2.030   1.147   6.632
22693WAT     H168321   2.049   1.049   6.636
22693WAT     H268322   2.115   1.198   6.625
22694WAT      O68323   0.560   2.703   3.610
22694WAT     H168324   0.597   2.615   3.579
22694WAT     H268325   0.462   2.708   3.589
22695WAT      O68326   3.539   0.170   0.945
22695WAT     H168327   3.523   0.095   0.881
22695WAT     H268328   3.596   0.240   0.901
22696WAT      O68329   0.431   6.721   7.514
22696WAT     H168330   0.506   6.762   7.567
22696WAT     H268331   0.417   6.773   7.430
22697WAT      O68332   2.036   3.255   8.385
22697WAT     H168333   2.122   3.262   8.335
22697WAT     H268334   2.045   3.301   8.473
22698WAT      O68335   6.439   1.389   3.075
22698WAT     H168336   6.487   1.384   2.987
22698WAT     H268337   6.458   1.477   3.118
22699WAT      O68338   7.023   3.689   8.493
22699WAT     H168339   6.933   3.663   8.457
22699WAT     H268340   7.094   3.635   8.447
22700WAT      O68341   5.331   4.835   2.077
22700WAT     H168342   5.416   4.783   2.069
22700WAT     H268343   5.329   4.906   2.007
22701WAT      O68344   9.325   8.641   0.385
22701WAT     H168345   9.326   8.543   0.401
22701WAT     H268346   9.418   8.674   0.368
22702WAT      O68347   1.233   6.043   4.301
22702WAT     H168348   1.167   6.039   4.226
22702WAT     H268349   1.186   6.026   4.387
22703WAT      O68350   5.015   5.823   3.964
22703WAT     H168351   4.979   5.895   4.024
22703WAT     H268352   4.956   5.814   3.884
22704WAT      O68353   7.886   7.741   0.017
22704WAT     H168354   7.965   7.680   0.010
22704WAT     H268355   7.911   7.832  -0.016
22705WAT      O68356   2.651   6.585   8.203
22705WAT     H168357   2.667   6.518   8.275
22705WAT     H268358   2.736   6.632   8.182
22706WAT      O68359   4.495   4.341   7.615
22706WAT     H168360   4.513   4.317   7.520
22706WAT     H268361   4.572   4.394   7.651
22707WAT      O68362   8.034   3.358   7.496
22707WAT     H168363   8.051   3.308   7.411
22707WAT     H268364   7.977   3.437   7.477
22708WAT      O68365   8.483   3.847   0.362
22708WAT     H168366   8.452   3.877   0.453
22708WAT     H268367   8.506   3.926   0.307
22709WAT      O68368   1.263   7.520   1.662
22709WAT     H168369   1.319   7.595   1.695
22709WAT     H268370   1.182   7.510   1.720
22710WAT      O68371   2.793   5.851   2.274
22710WAT     H168372   2.815   5.810   2.363
22710WAT     H268373   2.840   5.939   2.266
22711WAT      O68374   6.097   7.211   5.126
22711WAT     H168375   6.148   7.227   5.041
22711WAT     H268376   6.159   7.216   5.203
22712WAT      O68377   0.729   6.992   1.986
22712WAT     H168378   0.741   6.894   1.966
22712WAT     H268379   0.816   7.031   2.014
22713WAT      O68380   2.243   9.264   5.405
22713WAT     H168381   2.256   9.363   5.393
22713WAT     H268382   2.230   9.221   5.315
22714WAT      O68383   1.609   4.595   2.236
22714WAT     H168384   1.606   4.572   2.138
22714WAT     H268385   1.538   4.545   2.284
22715WAT      O68386   9.616   8.656   0.825
22715WAT     H168387   9.537   8.712   0.851
22715WAT     H268388   9.589   8.591   0.754
22716WAT      O68389   6.450   4.051   3.478
22716WAT     H168390   6.491   3.960   3.484
22716WAT     H268391   6.518   4.114   3.439
22717WAT      O68392   5.955   2.229   5.485
22717WAT     H168393   6.012   2.311   5.486
22717WAT     H268394   6.004   2.155   5.438
22718WAT      O68395   8.454   7.943   3.467
22718WAT     H168396   8.367   7.927   3.421
22718WAT     H268397   8.468   8.041   3.479
22719WAT      O68398   8.581   9.157   8.337
22719WAT     H168399   8.527   9.121   8.261
22719WAT     H268400   8.584   9.257   8.331
22720WAT      O68401   4.973   7.450   1.346
22720WAT     H168402   4.966   7.428   1.443
22720WAT     H268403   4.945   7.544   1.330
22721WAT      O68404   6.452   5.659   8.638
22721WAT     H168405   6.388   5.595   8.681
22721WAT     H268406   6.526   5.681   8.701
22722WAT      O68407   7.121   6.547   8.001
22722WAT     H168408   7.062   6.468   7.991
22722WAT     H268409   7.066   6.628   8.023
22723WAT      O68410   5.764   9.344   0.987
22723WAT     H168411   5.668   9.352   0.957
22723WAT     H268412   5.768   9.349   1.087
22724WAT      O68413   2.793   6.030   6.207
22724WAT     H168414   2.781   5.970   6.286
22724WAT     H268415   2.849   6.109   6.233
22725WAT      O68416   3.623   2.093   5.991
22725WAT     H168417   3.567   2.016   6.019
22725WAT     H268418   3.584   2.135   5.910
22726WAT      O68419   3.493   8.944   4.828
22726WAT     H168420   3.403   8.977   4.859
22726WAT     H268421   3.565   8.988   4.882
22727WAT      O68422   5.195   6.886   3.318
22727WAT     H168423   5.170   6.970   3.366
22727WAT     H268424   5.290   6.894   3.285
22728WAT      O68425   0.098   1.889   4.306
22728WAT     H168426   0.096   1.791   4.285
22728WAT     H268427   0.187   1.914   4.343
22729WAT      O68428   7.165   0.284   1.373
22729WAT     H168429   7.144   0.341   1.294
22729WAT     H268430   7.144   0.188   1.351
22730WAT      O68431   6.693   3.242   2.180
22730WAT     H168432   6.762   3.230   2.251
22730WAT     H268433   6.733   3.291   2.102
22731WAT      O68434   2.164   4.146   2.863
22731WAT     H168435   2.074   4.104   2.864
22731WAT     H268436   2.234   4.074   2.870
22732WAT      O68437   0.089   8.420   0.409
22732WAT     H168438   0.058   8.385   0.320
22732WAT     H268439   0.154   8.494   0.396
22733WAT      O68440   2.392   0.797   3.564
22733WAT     H168441   2.422   0.862   3.494
22733WAT     H268442   2.472   0.753   3.604
22734WAT      O68443   5.574   5.018   5.525
22734WAT     H168444   5.562   5.024   5.624
22734WAT     H268445   5.585   5.109   5.486
22735WAT      O68446   0.295   7.944   8.799
22735WAT     H168447   0.235   7.925   8.877
22735WAT     H268448   0.353   7.864   8.781
22736WAT      O68449   5.653   4.947   6.413
22736WAT     H168450   5.613   5.000   6.487
22736WAT     H268451   5.648   5.000   6.328
22737WAT      O68452   9.525   4.282   3.926
22737WAT     H168453   9.603   4.242   3.878
22737WAT     H268454   9.529   4.257   4.023
22738WAT      O68455   7.776   7.902   2.665
22738WAT     H168456   7.847   7.845   2.623
22738WAT     H268457   7.714   7.844   2.718
22739WAT      O68458   7.790   1.965   4.024
22739WAT     H168459   7.886   1.935   4.024
22739WAT     H268460   7.778   2.036   4.094
22740WAT      O68461   8.665   4.232   9.398
22740WAT     H168462   8.611   4.316   9.396
22740WAT     H268463   8.611   4.157   9.360
22741WAT      O68464   3.871   9.309   8.464
22741WAT     H168465   3.964   9.315   8.428
22741WAT     H268466   3.872   9.261   8.551
22742WAT      O68467   7.085   6.145   3.343
22742WAT     H168468   7.023   6.151   3.421
22742WAT     H268469   7.130   6.234   3.329
22743WAT      O68470   9.386   8.360   9.791
22743WAT     H168471   9.426   8.451   9.779
22743WAT     H268472   9.443   8.292   9.744
22744WAT      O68473   0.641   7.906   1.092
22744WAT     H168474   0.705   7.889   1.017
22744WAT     H268475   0.615   8.003   1.091
22745WAT      O68476   5.722   1.681   4.336
22745WAT     H168477   5.673   1.603   4.298
22745WAT     H268478   5.680   1.766   4.302
22746WAT      O68479   2.290   6.837   8.564
22746WAT     H168480   2.356   6.781   8.614
22746WAT     H268481   2.336   6.918   8.526
22747WAT      O68482   6.324   6.847   0.704
22747WAT     H168483   6.331   6.810   0.611
22747WAT     H268484   6.399   6.911   0.720
22748WAT      O68485   5.345   5.699   6.692
22748WAT     H168486   5.293   5.623   6.731
22748WAT     H268487   5.283   5.762   6.646
22749WAT      O68488   4.593   4.676   0.177
22749WAT     H168489   4.526   4.672   0.252
22749WAT     H268490   4.557   4.735   0.104
22750WAT      O68491   5.946   8.810   6.792
22750WAT     H168492   5.960   8.792   6.695
22750WAT     H268493   5.891   8.893   6.804
22751WAT      O68494   3.984   7.159   6.118
22751WAT     H168495   4.008   7.171   6.215
22751WAT     H268496   4.059   7.115   6.070
22752WAT      O68497   3.016   4.309   6.904
22752WAT     H168498   2.925   4.317   6.945
22752WAT     H268499   3.007   4.299   6.805
22753WAT      O68500   6.471   3.122   4.365
22753WAT     H168501   6.569   3.136   4.360
22753WAT     H268502   6.428   3.154   4.280
22754WAT      O68503   2.942   5.420   0.147
22754WAT     H168504   3.030   5.436   0.192
22754WAT     H268505   2.908   5.507   0.110
22755WAT      O68506   0.550   2.257   3.529
22755WAT     H168507   0.477   2.214   3.582
22755WAT     H268508   0.615   2.188   3.498
22756WAT      O68509   1.270   2.210   6.484
22756WAT     H168510   1.317   2.189   6.570
22756WAT     H268511   1.202   2.139   6.465
22757WAT      O68512   2.902   3.646   9.150
22757WAT     H168513   2.931   3.706   9.225
22757WAT     H268514   2.982   3.599   9.113
22758WAT      O68515   4.961   2.695   3.982
22758WAT     H168516   4.966   2.793   4.005
22758WAT     H268517   4.940   2.685   3.885
22759WAT      O68518   0.455   8.654   8.041
22759WAT     H168519   0.472   8.703   7.956
22759WAT     H268520   0.524   8.679   8.109
22760WAT      O68521   4.126   4.899   6.696
22760WAT     H168522   4.181   4.865   6.619
22760WAT     H268523   4.132   4.835   6.772
22761WAT      O68524   8.390   9.779   1.197
22761WAT     H168525   8.345   9.844   1.136
22761WAT     H268526   8.453   9.827   1.257
22762WAT      O68527   0.899   2.034   7.220
22762WAT     H168528   0.869   2.007   7.128
22762WAT     H268529   0.819   2.053   7.276
22763WAT      O68530   5.738   3.687   7.445
22763WAT     H168531   5.639   3.700   7.450
22763WAT     H268532   5.781   3.728   7.526
22764WAT      O68533   6.248   6.534   6.946
22764WAT     H168534   6.259   6.521   7.044
22764WAT     H268535   6.151   6.530   6.922
22765WAT      O68536   4.673   1.029   1.560
22765WAT     H168537   4.686   1.027   1.461
22765WAT     H268538   4.702   0.943   1.600
22766WAT      O68539   0.106   7.459   1.736
22766WAT     H168540   0.103   7.365   1.702
22766WAT     H268541   0.079   7.460   1.832
22767WAT      O68542   5.858   1.940   5.582
22767WAT     H168543   5.917   2.021   5.587
22767WAT     H268544   5.781   1.959   5.520
22768WAT      O68545   3.802   3.736   8.425
22768WAT     H168546   3.751   3.791   8.492
22768WAT     H268547   3.778   3.640   8.437
22769WAT      O68548   6.713   2.953   3.570
22769WAT     H168549   6.778   2.953   3.494
22769WAT     H268550   6.738   2.881   3.635
22770WAT      O68551   6.811   7.229   7.873
22770WAT     H168552   6.726   7.271   7.903
22770WAT     H268553   6.791   7.143   7.825
22771WAT      O68554   2.067   1.330   4.404
22771WAT     H168555   2.087   1.388   4.483
22771WAT     H268556   2.087   1.235   4.427
22772WAT      O68557   0.997   2.877   6.888
22772WAT     H168558   0.938   2.920   6.820
22772WAT     H268559   1.001   2.936   6.970
22773WAT      O68560   5.552   3.088   0.781
22773WAT     H168561   5.596   3.107   0.694
22773WAT     H268562   5.603   3.131   0.856
22774WAT      O68563   4.484   6.427   1.534
22774WAT     H168564   4.561   6.388   1.484
22774WAT     H268565   4.510   6.516   1.571
22775WAT      O68566   7.781   1.967   8.896
22775WAT     H168567   7.800   1.942   8.801
22775WAT     H268568   7.736   1.890   8.942
22776WAT      O68569   8.173   6.356   1.916
22776WAT     H168570   8.181   6.446   1.872
22776WAT     H268571   8.089   6.353   1.970
22777WAT      O68572   3.441   9.087   1.456
22777WAT     H168573   3.524   9.080   1.400
22777WAT     H268574   3.412   8.996   1.484
22778WAT      O68575   1.189   1.479   1.681
22778WAT     H168576   1.246   1.475   1.762
22778WAT     H268577   1.246   1.493   1.600
22779WAT      O68578   2.515   3.182   2.535
22779WAT     H168579   2.473   3.263   2.575
22779WAT     H268580   2.543   3.202   2.441
22780WAT      O68581   4.774   8.512   3.373
22780WAT     H168582   4.845   8.481   3.435
22780WAT     H268583   4.793   8.476   3.281
22781WAT      O68584   6.823   3.742   4.870
22781WAT     H168585   6.922   3.755   4.864
22781WAT     H268586   6.777   3.821   4.829
22782WAT      O68587   8.538   7.528   9.363
22782WAT     H168588   8.501   7.473   9.288
22782WAT     H268589   8.466   7.589   9.397
22783WAT      O68590   4.231   6.008   2.326
22783WAT     H168591   4.307   6.032   2.266
22783WAT     H268592   4.262   6.012   2.422
22784WAT      O68593   2.111   1.858   3.326
22784WAT     H168594   2.132   1.804   3.244
22784WAT     H268595   2.038   1.923   3.306
22785WAT      O68596   2.233   6.749   1.938
22785WAT     H168597   2.193   6.658   1.927
22785WAT     H268598   2.331   6.740   1.951
22786WAT      O68599   4.368   9.262   2.310
22786WAT     H168600   4.304   9.245   2.235
22786WAT     H268601   4.370   9.360   2.329
22787WAT      O68602   4.211   0.042   7.822
22787WAT     H168603   4.177   0.105   7.753
22787WAT     H268604   4.248  -0.040   7.778
22788WAT      O68605   0.884   2.704   0.946
22788WAT     H168606   0.787   2.702   0.967
22788WAT     H268607   0.930   2.628   0.992
22789WAT      O68608   5.499   7.082   9.682
22789WAT     H168609   5.476   7.096   9.778
22789WAT     H268610   5.418   7.097   9.626
22790WAT      O68611   8.879   2.116   1.322
22790WAT     H168612   8.835   2.069   1.245
22790WAT     H268613   8.844   2.210   1.327
22791WAT      O68614   5.489   3.891   1.631
22791WAT     H168615   5.404   3.877   1.682
22791WAT     H268616   5.472   3.874   1.534
22792WAT      O68617   7.555   2.528   3.441
22792WAT     H168618   7.509   2.495   3.358
22792WAT     H268619   7.489   2.535   3.515
22793WAT      O68620   4.493   4.720   9.163
22793WAT     H168621   4.508   4.627   9.198
22793WAT     H268622   4.556   4.737   9.086
22794WAT      O68623   2.540   4.736   5.914
22794WAT     H168624   2.530   4.637   5.902
22794WAT     H268625   2.453   4.781   5.897
22795WAT      O68626   9.753   0.437   2.302
22795WAT     H168627   9.738   0.377   2.380
22795WAT     H268628   9.673   0.496   2.289
22796WAT      O68629   4.171   2.812   4.048
22796WAT     H168630   4.228   2.812   4.131
22796WAT     H268631   4.121   2.725   4.043
22797WAT      O68632   0.474   5.657   8.253
22797WAT     H168633   0.383   5.622   8.232
22797WAT     H268634   0.537   5.580   8.269
22798WAT      O68635   3.845   4.911   3.368
22798WAT     H168636   3.925   4.894   3.310
22798WAT     H268637   3.873   4.912   3.464
22799WAT      O68638   6.813   9.769   7.052
22799WAT     H168639   6.776   9.717   7.130
22799WAT     H268640   6.747   9.767   6.977
22800WAT      O68641   9.510   3.862   6.215
22800WAT     H168642   9.470   3.858   6.124
22800WAT     H268643   9.444   3.901   6.279
22801WAT      O68644   4.842   6.318   7.282
22801WAT     H168645   4.869   6.222   7.291
22801WAT     H268646   4.864   6.350   7.190
22802WAT      O68647   9.341   1.290   4.177
22802WAT     H168648   9.296   1.218   4.231
22802WAT     H268649   9.276   1.326   4.110
22803WAT      O68650   4.609   5.543   9.396
22803WAT     H168651   4.670   5.520   9.320
22803WAT     H268652   4.531   5.595   9.362
22804WAT      O68653   7.184   5.765   0.569
22804WAT     H168654   7.129   5.683   0.551
22804WAT     H268655   7.138   5.821   0.638
22805WAT      O68656   7.309   3.265   1.769
22805WAT     H168657   7.361   3.278   1.685
22805WAT     H268658   7.367   3.220   1.837
22806WAT      O68659   5.466   6.848   0.933
22806WAT     H168660   5.549   6.892   0.967
22806WAT     H268661   5.420   6.801   1.008
22807WAT      O68662   9.595   0.729   5.416
22807WAT     H168663   9.666   0.798   5.434
22807WAT     H268664   9.590   0.712   5.318
22808WAT      O68665   8.991   4.794   2.730
22808WAT     H168666   9.079   4.842   2.730
22808WAT     H268667   8.934   4.828   2.805
22809WAT      O68668   4.802   1.229   8.566
22809WAT     H168669   4.755   1.154   8.519
22809WAT     H268670   4.801   1.213   8.665
22810WAT      O68671   8.803   8.389   5.489
22810WAT     H168672   8.846   8.479   5.493
22810WAT     H268673   8.727   8.385   5.554
22811WAT      O68674   6.642   7.419   2.792
22811WAT     H168675   6.551   7.445   2.759
22811WAT     H268676   6.701   7.499   2.794
22812WAT      O68677   6.235   3.773   9.400
22812WAT     H168678   6.177   3.807   9.326
22812WAT     H268679   6.251   3.675   9.388
22813WAT      O68680   8.912   2.448   7.330
22813WAT     H168681   8.828   2.399   7.305
22813WAT     H268682   8.904   2.480   7.424
22814WAT      O68683   0.677   1.692   4.331
22814WAT     H168684   0.694   1.667   4.426
22814WAT     H268685   0.663   1.610   4.276
22815WAT      O68686   3.060   2.001   3.307
22815WAT     H168687   2.970   2.024   3.344
22815WAT     H268688   3.061   1.905   3.278
22816WAT      O68689   9.093   9.095   9.499
22816WAT     H168690   8.993   9.086   9.492
22816WAT     H268691   9.136   9.011   9.466
22817WAT      O68692   4.434   6.860   2.997
22817WAT     H168693   4.430   6.791   2.925
22817WAT     H268694   4.512   6.841   3.057
22818WAT      O68695   0.428   3.801   2.284
22818WAT     H168696   0.496   3.732   2.309
22818WAT     H268697   0.388   3.840   2.367
22819WAT      O68698   6.237   9.423   6.938
22819WAT     H168699   6.154   9.393   6.984
22819WAT     H268700   6.306   9.447   7.006
22820WAT      O68701   5.488   7.858   3.328
22820WAT     H168702   5.577   7.821   3.298
22820WAT     H268703   5.491   7.958   3.324
22821WAT      O68704   4.143   2.957   2.016
22821WAT     H168705   4.051   2.949   1.978
22821WAT     H268706   4.145   2.917   2.108
22822WAT      O68707   7.264   6.322   4.791
22822WAT     H168708   7.197   6.255   4.758
22822WAT     H268709   7.276   6.312   4.890
22823WAT      O68710   7.709   6.294   2.512
22823WAT     H168711   7.703   6.197   2.537
22823WAT     H268712   7.654   6.348   2.575
22824WAT      O68713   3.921   9.422   2.912
22824WAT     H168714   4.009   9.437   2.956
22824WAT     H268715   3.936   9.393   2.817
22825WAT      O68716   9.320   2.452   9.848
22825WAT     H168717   9.389   2.506   9.896
22825WAT     H268718   9.343   2.445   9.751
22826WAT      O68719   1.889   9.688   7.650
22826WAT     H168720   1.919   9.677   7.745
22826WAT     H268721   1.818   9.758   7.645
22827WAT      O68722   9.587   5.031   1.221
22827WAT     H168723   9.547   5.085   1.295
22827WAT     H268724   9.687   5.043   1.221
22828WAT      O68725   8.668   9.163   6.936
22828WAT     H168726   8.751   9.127   6.894
22828WAT     H268727   8.589   9.138   6.881
22829WAT      O68728   7.894   3.819   2.768
22829WAT     H168729   7.913   3.869   2.683
22829WAT     H268730   7.971   3.759   2.789
22830WAT      O68731   4.960   7.956   5.743
22830WAT     H168732   4.986   7.999   5.657
22830WAT     H268733   5.036   7.962   5.808
22831WAT      O68734   1.744   1.034   9.148
22831WAT     H168735   1.649   1.047   9.119
22831WAT     H268736   1.749   0.956   9.211
22832WAT      O68737   3.014   4.427   4.741
22832WAT     H168738   3.111   4.413   4.718
22832WAT     H268739   3.005   4.436   4.840
22833WAT      O68740   7.224   2.951   1.614
22833WAT     H168741   7.207   2.945   1.516
22833WAT     H268742   7.306   3.006   1.631
22834WAT      O68743   1.425   1.252   9.578
22834WAT     H168744   1.407   1.312   9.655
22834WAT     H268745   1.505   1.285   9.528
22835WAT      O68746   1.742   1.427   3.356
22835WAT     H168747   1.741   1.524   3.382
22835WAT     H268748   1.836   1.397   3.342
22836WAT      O68749   9.083   6.318   0.701
22836WAT     H168750   9.018   6.315   0.777
22836WAT     H268751   9.173   6.347   0.736
22837WAT      O68752   4.388   2.631   3.911
22837WAT     H168753   4.414   2.657   4.004
22837WAT     H268754   4.385   2.713   3.853
22838WAT      O68755   2.247   9.457   8.267
22838WAT     H168756   2.166   9.401   8.281
22838WAT     H268757   2.319   9.429   8.331
22839WAT      O68758   8.225   4.321   0.676
22839WAT     H168759   8.265   4.246   0.728
22839WAT     H268760   8.158   4.285   0.611
22840WAT      O68761   8.161   8.257   5.406
22840WAT     H168762   8.072   8.217   5.427
22840WAT     H268763   8.149   8.334   5.343
22841WAT      O68764   6.123   1.416   1.284
22841WAT     H168765   6.083   1.326   1.268
22841WAT     H268766   6.197   1.432   1.218
22842WAT      O68767   1.452   4.697   0.501
22842WAT     H168768   1.402   4.671   0.583
22842WAT     H268769   1.496   4.617   0.461
22843WAT      O68770   1.641   8.425   7.696
22843WAT     H168771   1.721   8.382   7.655
22843WAT     H268772   1.670   8.501   7.755
22844WAT      O68773   4.316   6.859   1.842
22844WAT     H168774   4.315   6.798   1.763
22844WAT     H268775   4.268   6.815   1.918
22845WAT      O68776   7.770   2.556   4.104
22845WAT     H168777   7.672   2.543   4.121
22845WAT     H268778   7.805   2.478   4.052
22846WAT      O68779   7.408   4.236   0.569
22846WAT     H168780   7.412   4.232   0.469
22846WAT     H268781   7.490   4.281   0.603
22847WAT      O68782   1.271   1.008   6.304
22847WAT     H168783   1.261   1.029   6.206
22847WAT     H268784   1.197   1.052   6.355
22848WAT      O68785   2.631   4.892   7.891
22848WAT     H168786   2.585   4.805   7.871
22848WAT     H268787   2.680   4.923   7.809
22849WAT      O68788   8.392   8.934   3.358
22849WAT     H168789   8.455   8.893   3.292
22849WAT     H268790   8.307   8.881   3.360
22850WAT      O68791   3.837   3.018   6.498
22850WAT     H168792   3.911   2.983   6.440
22850WAT     H268793   3.818   2.952   6.571
22851WAT      O68794   4.535   2.694   8.534
22851WAT     H168795   4.586   2.645   8.605
22851WAT     H268796   4.572   2.786   8.524
22852WAT      O68797   4.335   3.145   0.351
22852WAT     H168798   4.322   3.217   0.418
22852WAT     H268799   4.414   3.089   0.378
22853WAT      O68800   9.104   0.857   1.302
22853WAT     H168801   9.192   0.810   1.306
22853WAT     H268802   9.031   0.790   1.291
22854WAT      O68803   1.176   4.360   7.978
22854WAT     H168804   1.261   4.394   8.017
22854WAT     H268805   1.170   4.261   7.992
22855WAT      O68806   5.083   2.549   3.395
22855WAT     H168807   5.113   2.454   3.403
22855WAT     H268808   5.142   2.607   3.452
22856WAT      O68809   9.372   3.173   9.466
22856WAT     H168810   9.449   3.172   9.529
22856WAT     H268811   9.404   3.199   9.375
22857WAT      O68812   5.455   7.418   9.694
22857WAT     H168813   5.505   7.501   9.718
22857WAT     H268814   5.473   7.348   9.763
22858WAT      O68815   3.530   7.458   9.249
22858WAT     H168816   3.565   7.545   9.281
22858WAT     H268817   3.599   7.413   9.192
22859WAT      O68818   8.678   3.117   1.732
22859WAT     H168819   8.745   3.189   1.749
22859WAT     H268820   8.586   3.157   1.733
22860WAT      O68821   5.999   4.950   2.729
22860WAT     H168822   5.975   5.036   2.774
22860WAT     H268823   5.974   4.873   2.787
22861WAT      O68824   7.113   3.346   3.214
22861WAT     H168825   7.095   3.284   3.137
22861WAT     H268826   7.169   3.422   3.182
22862WAT      O68827   3.141   0.686   1.829
22862WAT     H168828   3.173   0.669   1.922
22862WAT     H268829   3.054   0.639   1.815
22863WAT      O68830   5.798   1.179   8.651
22863WAT     H168831   5.806   1.257   8.588
22863WAT     H268832   5.856   1.105   8.620
22864WAT      O68833   0.922   7.970   3.277
22864WAT     H168834   0.894   7.931   3.365
22864WAT     H268835   0.922   8.070   3.284
22865WAT      O68836   9.525   7.010   0.038
22865WAT     H168837   9.560   7.100   0.013
22865WAT     H268838   9.595   6.960   0.088
22866WAT      O68839   0.396   5.962   3.251
22866WAT     H168840   0.376   6.054   3.219
22866WAT     H268841   0.492   5.941   3.237
22867WAT      O68842   8.434   4.517   7.166
22867WAT     H168843   8.408   4.423   7.189
22867WAT     H268844   8.508   4.515   7.099
22868WAT      O68845   6.923   8.474   2.751
22868WAT     H168846   7.014   8.477   2.792
22868WAT     H268847   6.853   8.480   2.823
22869WAT      O68848   9.659   8.930   4.785
22869WAT     H168849   9.622   9.021   4.768
22869WAT     H268850   9.676   8.919   4.883
22870WAT      O68851   6.332   4.922   8.650
22870WAT     H168852   6.398   4.991   8.619
22870WAT     H268853   6.264   4.965   8.710
22871WAT      O68854   7.940   8.854   1.112
22871WAT     H168855   8.004   8.791   1.155
22871WAT     H268856   7.893   8.809   1.037
22872WAT      O68857   2.538   8.551   6.987
22872WAT     H168858   2.561   8.605   6.906
22872WAT     H268859   2.448   8.579   7.020
22873WAT      O68860   2.072   8.331   2.925
22873WAT     H168861   2.105   8.399   2.992
22873WAT     H268862   2.068   8.373   2.835
22874WAT      O68863   8.866   9.178   3.433
22874WAT     H168864   8.785   9.125   3.406
22874WAT     H268865   8.847   9.275   3.421
22875WAT      O68866   5.615   2.143   3.662
22875WAT     H168867   5.664   2.138   3.575
22875WAT     H268868   5.518   2.161   3.644
22876WAT      O68869   9.717   0.309   6.439
22876WAT     H168870   9.731   0.360   6.354
22876WAT     H268871   9.620   0.286   6.448
22877WAT      O68872   7.443   1.230   6.832
22877WAT     H168873   7.395   1.159   6.884
22877WAT     H268874   7.514   1.271   6.890
22878WAT      O68875   8.933   1.573   9.226
22878WAT     H168876   9.023   1.530   9.234
22878WAT     H268877   8.869   1.529   9.290
22879WAT      O68878   3.880   0.174   1.444
22879WAT     H168879   3.813   0.168   1.519
22879WAT     H268880   3.968   0.203   1.481
22880WAT      O68881   4.467   4.485   8.783
22880WAT     H168882   4.538   4.529   8.836
22880WAT     H268883   4.377   4.504   8.824
22881WAT      O68884   4.057   2.313   6.976
22881WAT     H168885   4.104   2.400   6.961
22881WAT     H268886   3.994   2.295   6.901
22882WAT      O68887   9.529   5.041   4.366
22882WAT     H168888   9.520   4.988   4.450
22882WAT     H268889   9.476   4.996   4.294
22883WAT      O68890   5.593   3.315   7.161
22883WAT     H168891   5.600   3.259   7.244
22883WAT     H268892   5.497   3.329   7.139
22884WAT      O68893   8.767   6.491   9.792
22884WAT     H168894   8.820   6.515   9.874
22884WAT     H268895   8.672   6.475   9.818
22885WAT      O68896   5.074   9.709   1.128
22885WAT     H168897   5.120   9.747   1.048
22885WAT     H268898   5.089   9.767   1.207
22886WAT      O68899   1.840   1.179   4.074
22886WAT     H168900   1.850   1.166   3.975
22886WAT     H268901   1.888   1.105   4.122
22887WAT      O68902   3.322   9.112   6.155
22887WAT     H168903   3.413   9.072   6.147
22887WAT     H268904   3.297   9.154   6.068
22888WAT      O68905   2.164   8.349   1.089
22888WAT     H168906   2.238   8.337   1.024
22888WAT     H268907   2.094   8.279   1.073
22889WAT      O68908   2.874   7.809   2.795
22889WAT     H168909   2.956   7.821   2.851
22889WAT     H268910   2.898   7.819   2.698
22890WAT      O68911   6.390   7.904   1.228
22890WAT     H168912   6.308   7.851   1.206
22890WAT     H268913   6.366   8.000   1.241
22891WAT      O68914   5.473   1.618   2.093
22891WAT     H168915   5.380   1.599   2.124
22891WAT     H268916   5.499   1.551   2.023
22892WAT      O68917   7.242   0.177   7.902
22892WAT     H168918   7.309   0.168   7.828
22892WAT     H268919   7.194   0.090   7.915
22893WAT      O68920   7.914   6.119   0.946
22893WAT     H168921   7.915   6.155   0.853
22893WAT     H268922   7.957   6.029   0.948
22894WAT      O68923   6.527   9.459   2.567
22894WAT     H168924   6.518   9.450   2.666
22894WAT     H268925   6.471   9.535   2.535
22895WAT      O68926   5.901   2.844   6.107
22895WAT     H168927   5.905   2.745   6.098
22895WAT     H268928   5.812   2.877   6.076
22896WAT      O68929   9.436   5.705   5.613
22896WAT     H168930   9.471   5.612   5.603
22896WAT     H268931   9.470   5.744   5.698
22897WAT      O68932   7.776   7.051   9.235
22897WAT     H168933   7.728   6.992   9.300
22897WAT     H268934   7.716   7.070   9.157
22898WAT      O68935   1.169   4.167   4.831
22898WAT     H168936   1.071   4.183   4.819
22898WAT     H268937   1.188   4.152   4.928
22899WAT      O68938   5.003   2.672   2.295
22899WAT     H168939   5.058   2.745   2.335
22899WAT     H268940   4.906   2.687   2.315
22900WAT      O68941   5.118   8.924   2.079
22900WAT     H168942   5.035   8.941   2.025
22900WAT     H268943   5.093   8.911   2.175
22901WAT      O68944   4.989   9.667   6.012
22901WAT     H168945   4.906   9.682   6.065
22901WAT     H268946   5.057   9.737   6.035
22902WAT      O68947   1.272   8.298   8.029
22902WAT     H168948   1.225   8.217   7.994
22902WAT     H268949   1.342   8.326   7.963
22903WAT      O68950   6.176   3.787   0.564
22903WAT     H168951   6.208   3.869   0.611
22903WAT     H268952   6.109   3.812   0.494
22904WAT      O68953   7.610   2.182   7.005
22904WAT     H168954   7.657   2.268   7.026
22904WAT     H268955   7.616   2.164   6.906
22905WAT      O68956   5.185   0.554   6.969
22905WAT     H168957   5.178   0.458   6.995
22905WAT     H268958   5.196   0.610   7.051
22906WAT      O68959   6.265   1.973   2.373
22906WAT     H168960   6.238   2.040   2.304
22906WAT     H268961   6.362   1.983   2.394
22907WAT      O68962   6.873   5.723   2.486
22907WAT     H168963   6.923   5.798   2.528
22907WAT     H268964   6.783   5.715   2.528
22908WAT      O68965   2.089   1.964   5.433
22908WAT     H168966   2.165   1.997   5.489
22908WAT     H268967   2.108   1.870   5.402
22909WAT      O68968   3.188   3.661   0.540
22909WAT     H168969   3.230   3.716   0.469
22909WAT     H268970   3.128   3.593   0.498
22910WAT      O68971   1.397   4.533   0.967
22910WAT     H168972   1.346   4.448   0.974
22910WAT     H268973   1.359   4.600   1.030
22911WAT      O68974   6.045   2.925   7.158
22911WAT     H168975   6.101   2.935   7.075
22911WAT     H268976   6.042   3.012   7.207
22912WAT      O68977   4.092   3.146   4.362
22912WAT     H168978   4.021   3.200   4.408
22912WAT     H268979   4.048   3.073   4.309
22913WAT      O68980   7.600   3.954   9.538
22913WAT     H168981   7.556   4.040   9.513
22913WAT     H268982   7.631   3.958   9.633
22914WAT      O68983   0.787   2.329   6.934
22914WAT     H168984   0.726   2.397   6.893
22914WAT     H268985   0.767   2.321   7.032
22915WAT      O68986   6.618   0.229   8.478
22915WAT     H168987   6.603   0.223   8.576
22915WAT     H268988   6.601   0.322   8.446
22916WAT      O68989   1.640   8.333   2.684
22916WAT     H168990   1.594   8.261   2.736
22916WAT     H268991   1.664   8.408   2.745
22917WAT      O68992   4.024   6.072   2.774
22917WAT     H168993   4.104   6.012   2.780
22917WAT     H268994   4.004   6.110   2.865
22918WAT      O68995   1.419   5.783   6.207
22918WAT     H168996   1.408   5.723   6.287
22918WAT     H268997   1.516   5.790   6.184
22919WAT      O68998   2.147   1.887   7.995
22919WAT     H168999   2.196   1.960   7.947
22919WAT     H269000   2.163   1.800   7.950
22920WAT      O69001   5.394   6.385   5.217
22920WAT     H169002   5.455   6.307   5.203
22920WAT     H269003   5.351   6.377   5.307
22921WAT      O69004   1.485   9.671   4.383
22921WAT     H169005   1.585   9.668   4.381
22921WAT     H269006   1.448   9.594   4.330
22922WAT      O69007   8.101   8.981   2.077
22922WAT     H169008   8.080   8.961   1.981
22922WAT     H269009   8.025   9.032   2.117
22923WAT      O69010   5.605   5.305   4.404
22923WAT     H169011   5.534   5.285   4.471
22923WAT     H269012   5.563   5.344   4.322
22924WAT      O69013   2.014   1.552   5.574
22924WAT     H169014   2.092   1.615   5.571
22924WAT     H269015   1.929   1.605   5.574
22925WAT      O69016   5.431   7.742   4.144
22925WAT     H169017   5.451   7.647   4.117
22925WAT     H269018   5.396   7.792   4.065
22926WAT      O69019   7.614   4.945   5.536
22926WAT     H169020   7.688   4.979   5.594
22926WAT     H269021   7.638   4.854   5.501
22927WAT      O69022   2.634   3.365   0.824
22927WAT     H169023   2.600   3.402   0.911
22927WAT     H269024   2.574   3.394   0.749
22928WAT      O69025   8.779   4.580   6.201
22928WAT     H169026   8.857   4.571   6.263
22928WAT     H269027   8.810   4.573   6.107
22929WAT      O69028   3.250   0.869   5.842
22929WAT     H169029   3.187   0.815   5.787
22929WAT     H269030   3.278   0.950   5.790
22930WAT      O69031   5.986   2.604   6.563
22930WAT     H169032   5.985   2.694   6.518
22930WAT     H269033   5.943   2.536   6.503
22931WAT      O69034   2.619   2.618   8.570
22931WAT     H169035   2.684   2.593   8.498
22931WAT     H269036   2.666   2.671   8.640
22932WAT      O69037   2.754   0.130   1.226
22932WAT     H169038   2.827   0.178   1.176
22932WAT     H269039   2.685   0.098   1.161
22933WAT      O69040   4.295   9.064   0.654
22933WAT     H169041   4.205   9.100   0.629
22933WAT     H269042   4.361   9.140   0.659
22934WAT      O69043   7.379   1.561   2.770
22934WAT     H169044   7.288   1.600   2.755
22934WAT     H269045   7.371   1.476   2.823
22935WAT      O69046   6.276   6.230   0.021
22935WAT     H169047   6.344   6.234  -0.052
22935WAT     H269048   6.308   6.282   0.100
22936WAT      O69049   7.628   2.941   1.614
22936WAT     H169050   7.586   3.029   1.590
22936WAT     H269051   7.649   2.940   1.712
22937WAT      O69052   0.341   9.123   1.001
22937WAT     H169053   0.328   9.075   0.914
22937WAT     H269054   0.439   9.142   1.013
22938WAT      O69055   7.057   6.204   9.561
22938WAT     H169056   7.136   6.265   9.554
22938WAT     H269057   7.040   6.184   9.658
22939WAT      O69058   0.606   5.596   5.063
22939WAT     H169059   0.657   5.517   5.029
22939WAT     H269060   0.642   5.679   5.021
22940WAT      O69061   6.554   2.023   8.929
22940WAT     H169062   6.528   1.931   8.959
22940WAT     H269063   6.641   2.048   8.971
22941WAT      O69064   2.183   4.578   0.509
22941WAT     H169065   2.230   4.612   0.427
22941WAT     H269066   2.113   4.512   0.483
22942WAT      O69067   5.094   6.197   8.871
22942WAT     H169068   5.090   6.296   8.884
22942WAT     H269069   5.051   6.151   8.949
22943WAT      O69070   6.252   5.200   2.976
22943WAT     H169071   6.290   5.239   3.060
22943WAT     H269072   6.277   5.103   2.970
22944WAT      O69073   0.300   2.929   9.078
22944WAT     H169074   0.371   2.923   9.007
22944WAT     H269075   0.341   2.913   9.167
22945WAT      O69076   1.760   6.132   5.789
22945WAT     H169077   1.841   6.105   5.842
22945WAT     H269078   1.678   6.115   5.843
22946WAT      O69079   3.783   5.205   5.749
22946WAT     H169080   3.792   5.296   5.707
22946WAT     H269081   3.764   5.138   5.678
22947WAT      O69082   4.158   2.082   5.774
22947WAT     H169083   4.214   2.000   5.764
22947WAT     H269084   4.104   2.075   5.858
22948WAT      O69085   3.449   4.599   9.340
22948WAT     H169086   3.393   4.647   9.408
22948WAT     H269087   3.448   4.501   9.360
22949WAT      O69088   2.993   8.505   3.226
22949WAT     H169089   3.084   8.542   3.245
22949WAT     H269090   2.988   8.472   3.132
22950WAT      O69091   0.891   7.979   8.496
22950WAT     H169092   0.859   7.916   8.425
22950WAT     H269093   0.897   8.071   8.459
22951WAT      O69094   8.201   6.821   0.682
22951WAT     H169095   8.213   6.728   0.645
22951WAT     H269096   8.188   6.885   0.607
22952WAT      O69097   5.248   8.716   0.300
22952WAT     H169098   5.234   8.808   0.263
22952WAT     H269099   5.166   8.661   0.284
22953WAT      O69100   8.639   6.983   3.218
22953WAT     H169101   8.730   6.944   3.233
22953WAT     H269102   8.570   6.911   3.223
22954WAT      O69103   7.973   0.760   7.159
22954WAT     H169104   7.974   0.856   7.131
22954WAT     H269105   7.879   0.732   7.179
22955WAT      O69106   8.533   3.202   2.237
22955WAT     H169107   8.468   3.266   2.278
22955WAT     H269108   8.603   3.178   2.305
22956WAT      O69109   2.804   8.747   4.740
22956WAT     H169110   2.828   8.655   4.770
22956WAT     H269111   2.704   8.757   4.738
22957WAT      O69112   7.545   8.598   0.782
22957WAT     H169113   7.481   8.675   0.772
22957WAT     H269114   7.620   8.608   0.717
22958WAT      O69115   7.127   9.574   6.069
22958WAT     H169116   7.119   9.653   6.008
22958WAT     H269117   7.192   9.594   6.142
22959WAT      O69118   9.192   2.957   2.797
22959WAT     H169119   9.245   2.905   2.864
22959WAT     H269120   9.202   2.916   2.707
22960WAT      O69121   0.531   6.872   3.621
22960WAT     H169122   0.433   6.891   3.620
22960WAT     H269123   0.555   6.828   3.707
22961WAT      O69124   1.058   4.450   7.765
22961WAT     H169125   1.126   4.427   7.836
22961WAT     H269126   0.966   4.433   7.801
22962WAT      O69127   1.646   4.549   8.631
22962WAT     H169128   1.559   4.500   8.644
22962WAT     H269129   1.692   4.557   8.719
22963WAT      O69130   6.586   3.769   8.602
22963WAT     H169131   6.618   3.839   8.666
22963WAT     H269132   6.505   3.723   8.640
22964WAT      O69133   6.743   0.684   4.438
22964WAT     H169134   6.677   0.643   4.376
22964WAT     H269135   6.772   0.773   4.403
22965WAT      O69136   3.297   5.045   0.145
22965WAT     H169137   3.327   5.050   0.050
22965WAT     H269138   3.348   5.111   0.199
22966WAT      O69139   2.284   6.131   6.249
22966WAT     H169140   2.251   6.048   6.293
22966WAT     H269141   2.376   6.115   6.213
22967WAT      O69142   1.580   3.223   5.499
22967WAT     H169143   1.547   3.249   5.590
22967WAT     H269144   1.657   3.159   5.509
22968WAT      O69145   4.709   2.123   9.257
22968WAT     H169146   4.740   2.032   9.284
22968WAT     H269147   4.615   2.118   9.222
22969WAT      O69148   7.258   5.925   3.393
22969WAT     H169149   7.239   5.839   3.346
22969WAT     H269150   7.180   5.987   3.382
22970WAT      O69151   8.785   5.053   3.700
22970WAT     H169152   8.867   5.027   3.752
22970WAT     H269153   8.811   5.071   3.605
22971WAT      O69154   6.802   3.127   8.828
22971WAT     H169155   6.742   3.139   8.749
22971WAT     H269156   6.840   3.215   8.855
22972WAT      O69157   5.536   4.707   7.380
22972WAT     H169158   5.528   4.686   7.282
22972WAT     H269159   5.531   4.806   7.393
22973WAT      O69160   0.279   1.667   3.736
22973WAT     H169161   0.342   1.688   3.661
22973WAT     H269162   0.286   1.569   3.759
22974WAT      O69163   0.908   1.072   0.572
22974WAT     H169164   0.917   1.139   0.499
22974WAT     H269165   0.883   1.118   0.657
22975WAT      O69166   9.113   3.872   1.323
22975WAT     H169167   9.084   3.964   1.349
22975WAT     H269168   9.191   3.878   1.260
22976WAT      O69169   0.208   6.642   8.414
22976WAT     H169170   0.306   6.625   8.415
22976WAT     H269171   0.160   6.558   8.440
22977WAT      O69172   8.044   4.312   5.341
22977WAT     H169173   7.987   4.230   5.335
22977WAT     H269174   8.005   4.376   5.407
22978WAT      O69175   3.895   4.990   2.904
22978WAT     H169176   3.984   5.018   2.869
22978WAT     H269177   3.825   5.052   2.870
22979WAT      O69178   8.438   3.562   7.234
22979WAT     H169179   8.517   3.584   7.290
22979WAT     H269180   8.361   3.534   7.292
22980WAT      O69181   3.524   8.399   0.095
22980WAT     H169182   3.582   8.393   0.176
22980WAT     H269183   3.440   8.347   0.111
22981WAT      O69184   9.024   3.191   0.739
22981WAT     H169185   8.978   3.222   0.822
22981WAT     H269186   9.051   3.271   0.684
22982WAT      O69187   1.747   6.164   0.763
22982WAT     H169188   1.830   6.130   0.809
22982WAT     H269189   1.697   6.086   0.724
22983WAT      O69190   8.699   0.280   2.100
22983WAT     H169191   8.646   0.358   2.133
22983WAT     H269192   8.744   0.235   2.177
22984WAT      O69193   4.491   8.237   8.524
22984WAT     H169194   4.467   8.333   8.507
22984WAT     H269195   4.448   8.206   8.609
22985WAT      O69196   0.159   7.585   5.141
22985WAT     H169197   0.166   7.661   5.205
22985WAT     H269198   0.250   7.553   5.117
22986WAT      O69199   4.690   4.768   7.423
22986WAT     H169200   4.705   4.676   7.458
22986WAT     H269201   4.623   4.765   7.349
22987WAT      O69202   4.242   4.094   0.056
22987WAT     H169203   4.269   4.051   0.142
22987WAT     H269204   4.206   4.185   0.074
22988WAT      O69205   5.440   2.149   7.869
22988WAT     H169206   5.372   2.095   7.917
22988WAT     H269207   5.473   2.223   7.929
22989WAT      O69208   8.371   7.948   1.506
22989WAT     H169209   8.419   7.870   1.467
22989WAT     H269210   8.281   7.956   1.464
22990WAT      O69211   5.951   6.379   7.127
22990WAT     H169212   6.037   6.332   7.147
22990WAT     H269213   5.959   6.427   7.040
22991WAT      O69214   7.590   9.250   6.878
22991WAT     H169215   7.493   9.231   6.867
22991WAT     H269216   7.611   9.259   6.976
22992WAT      O69217   5.940   5.537   6.916
22992WAT     H169218   5.889   5.481   6.850
22992WAT     H269219   6.017   5.485   6.953
22993WAT      O69220   7.215   6.511   3.581
22993WAT     H169221   7.245   6.518   3.676
22993WAT     H269222   7.261   6.580   3.526
22994WAT      O69223   5.558   5.686   1.280
22994WAT     H169224   5.639   5.739   1.256
22994WAT     H269225   5.563   5.657   1.376
22995WAT      O69226   8.087   3.722   6.696
22995WAT     H169227   8.003   3.768   6.668
22995WAT     H269228   8.068   3.664   6.775
22996WAT      O69229   0.044   8.139   8.953
22996WAT     H169230   0.032   8.142   9.052
22996WAT     H269231  -0.026   8.080   8.913
22997WAT      O69232   0.914   6.710   8.715
22997WAT     H169233   0.965   6.751   8.639
22997WAT     H269234   0.838   6.770   8.740
22998WAT      O69235   3.079   4.765   7.902
22998WAT     H169236   3.170   4.808   7.906
22998WAT     H269237   3.013   4.824   7.948
22999WAT      O69238   5.333   7.339   0.328
22999WAT     H169239   5.368   7.301   0.243
22999WAT     H269240   5.276   7.419   0.308
23000WAT      O69241   8.949   7.342   4.079
23000WAT     H169242   8.868   7.381   4.035
23000WAT     H269243   8.930   7.327   4.176
23001WAT      O69244   1.206   7.722   7.658
23001WAT     H169245   1.125   7.665   7.672
23001WAT     H269246   1.271   7.673   7.599
23002WAT      O69247   8.581   6.269   4.518
23002WAT     H169248   8.642   6.224   4.453
23002WAT     H269249   8.502   6.306   4.470
23003WAT      O69250   7.049   1.798   7.650
23003WAT     H169251   7.056   1.888   7.607
23003WAT     H269252   6.960   1.758   7.627
23004WAT      O69253   4.365   7.288   1.596
23004WAT     H169254   4.396   7.213   1.654
23004WAT     H269255   4.398   7.375   1.632
23005WAT      O69256   8.218   9.694   2.974
23005WAT     H169257   8.218   9.623   3.045
23005WAT     H269258   8.135   9.749   2.982
23006WAT      O69259   0.907   9.303   9.152
23006WAT     H169260   0.980   9.252   9.106
23006WAT     H269261   0.845   9.341   9.083
23007WAT      O69262   7.723   0.884   3.567
23007WAT     H169263   7.725   0.984   3.558
23007WAT     H269264   7.782   0.843   3.498
23008WAT      O69265   5.819   2.427   9.766
23008WAT     H169266   5.728   2.404   9.733
23008WAT     H269267   5.881   2.439   9.688
23009WAT      O69268   1.565   7.357   7.825
23009WAT     H169269   1.600   7.324   7.912
23009WAT     H269270   1.550   7.279   7.764
23010WAT      O69271   0.832   6.874   9.090
23010WAT     H169272   0.902   6.804   9.102
23010WAT     H269273   0.853   6.952   9.149
23011WAT      O69274   2.343   1.325   0.723
23011WAT     H169275   2.306   1.391   0.657
23011WAT     H269276   2.360   1.238   0.677
23012WAT      O69277   6.884   0.404   1.115
23012WAT     H169278   6.966   0.441   1.158
23012WAT     H269279   6.821   0.479   1.095
23013WAT      O69280   0.805   9.591   5.994
23013WAT     H169281   0.846   9.526   6.058
23013WAT     H269282   0.759   9.541   5.921
23014WAT      O69283   7.634   0.781   2.917
23014WAT     H169284   7.616   0.691   2.958
23014WAT     H269285   7.682   0.768   2.831
23015WAT      O69286   0.429   7.895   9.492
23015WAT     H169287   0.370   7.814   9.496
23015WAT     H269288   0.523   7.867   9.473
23016WAT      O69289   3.040   8.453   2.581
23016WAT     H169290   2.979   8.383   2.544
23016WAT     H269291   3.095   8.413   2.655
23017WAT      O69292   2.480   0.621   4.399
23017WAT     H169293   2.440   0.607   4.490
23017WAT     H269294   2.560   0.679   4.406
23018WAT      O69295   9.142   3.503   3.002
23018WAT     H169296   9.110   3.485   3.095
23018WAT     H269297   9.064   3.500   2.939
23019WAT      O69298   2.361   3.738   5.571
23019WAT     H169299   2.291   3.809   5.564
23019WAT     H269300   2.369   3.691   5.484
23020WAT      O69301   6.289   9.562   4.881
23020WAT     H169302   6.363   9.619   4.845
23020WAT     H269303   6.323   9.507   4.957
23021WAT      O69304   5.993   5.264   2.718
23021WAT     H169305   6.068   5.215   2.673
23021WAT     H269306   5.917   5.275   2.653
23022WAT      O69307   9.196   7.006   9.168
23022WAT     H169308   9.139   6.956   9.233
23022WAT     H269309   9.287   6.964   9.166
23023WAT      O69310   1.714   8.603   6.784
23023WAT     H169311   1.791   8.634   6.840
23023WAT     H269312   1.673   8.522   6.826
23024WAT      O69313   9.271   3.668   0.215
23024WAT     H169314   9.297   3.755   0.174
23024WAT     H269315   9.352   3.610   0.224
23025WAT      O69316   4.685   2.022   8.424
23025WAT     H169317   4.647   1.951   8.484
23025WAT     H269318   4.785   2.019   8.428
23026WAT      O69319   2.047   8.542   5.086
23026WAT     H169320   2.089   8.552   4.996
23026WAT     H269321   2.096   8.472   5.138
23027WAT      O69322   8.266   1.117   1.061
23027WAT     H169323   8.198   1.148   1.128
23027WAT     H269324   8.350   1.170   1.073
23028WAT      O69325   1.170   8.414   7.654
23028WAT     H169326   1.251   8.356   7.653
23028WAT     H269327   1.184   8.491   7.715
23029WAT      O69328   7.987   1.823   6.690
23029WAT     H169329   7.906   1.769   6.666
23029WAT     H269330   8.021   1.870   6.609
23030WAT      O69331   0.211   0.416   8.388
23030WAT     H169332   0.305   0.385   8.379
23030WAT     H269333   0.194   0.490   8.322
23031WAT      O69334   8.599   4.572   2.375
23031WAT     H169335   8.677   4.534   2.423
23031WAT     H269336   8.514   4.543   2.421
23032WAT      O69337   4.823   1.611   1.089
23032WAT     H169338   4.799   1.515   1.102
23032WAT     H269339   4.853   1.650   1.176
23033WAT      O69340   7.432   1.366   7.441
23033WAT     H169341   7.383   1.311   7.373
23033WAT     H269342   7.529   1.373   7.415
23034WAT      O69343   6.828   0.838   6.765
23034WAT     H169344   6.883   0.758   6.790
23034WAT     H269345   6.760   0.855   6.837
23035WAT      O69346   2.455   2.747   0.644
23035WAT     H169347   2.472   2.843   0.666
23035WAT     H269348   2.451   2.735   0.545
23036WAT      O69349   3.187   1.035   4.248
23036WAT     H169350   3.198   1.110   4.313
23036WAT     H269351   3.193   0.948   4.296
23037WAT      O69352   4.596   3.338   1.503
23037WAT     H169353   4.519   3.276   1.521
23037WAT     H269354   4.574   3.395   1.423
23038WAT      O69355   8.562   4.233   8.258
23038WAT     H169356   8.523   4.318   8.294
23038WAT     H269357   8.502   4.156   8.281
23039WAT      O69358   6.359   0.301   1.615
23039WAT     H169359   6.374   0.360   1.536
23039WAT     H269360   6.428   0.229   1.617
23040WAT      O69361   3.192   7.534   9.814
23040WAT     H169362   3.135   7.477   9.874
23040WAT     H269363   3.231   7.477   9.742
23041WAT      O69364   7.034   0.362   2.692
23041WAT     H169365   6.991   0.309   2.766
23041WAT     H269366   6.980   0.443   2.674
23042WAT      O69367   4.092   0.147   4.721
23042WAT     H169368   4.008   0.122   4.769
23042WAT     H269369   4.114   0.243   4.740
23043WAT      O69370   5.642   0.985   3.681
23043WAT     H169371   5.585   0.936   3.615
23043WAT     H269372   5.727   1.013   3.636
23044WAT      O69373   2.995   7.631   6.592
23044WAT     H169374   2.962   7.568   6.662
23044WAT     H269375   2.990   7.724   6.627
23045WAT      O69376   4.822   2.967   5.015
23045WAT     H169377   4.835   2.993   4.919
23045WAT     H269378   4.871   2.881   5.033
23046WAT      O69379   9.677   2.031   6.925
23046WAT     H169380   9.751   1.972   6.957
23046WAT     H269381   9.708   2.126   6.925
23047WAT      O69382   4.634   4.360   5.724
23047WAT     H169383   4.687   4.340   5.641
23047WAT     H269384   4.658   4.294   5.795
23048WAT      O69385   0.709   4.348   4.478
23048WAT     H169386   0.722   4.352   4.379
23048WAT     H269387   0.727   4.255   4.510
23049WAT      O69388   2.832   1.052   7.185
23049WAT     H169389   2.908   0.989   7.197
23049WAT     H269390   2.837   1.124   7.255
23050WAT      O69391   0.920   0.454   0.463
23050WAT     H169392   0.826   0.490   0.468
23050WAT     H269393   0.985   0.530   0.468
23051WAT      O69394   3.335   2.782   0.064
23051WAT     H169395   3.362   2.729  -0.017
23051WAT     H269396   3.415   2.797   0.122
23052WAT      O69397   6.074   6.185   6.401
23052WAT     H169398   6.171   6.201   6.420
23052WAT     H269399   6.062   6.095   6.361
23053WAT      O69400   5.029   3.507   2.773
23053WAT     H169401   5.035   3.419   2.726
23053WAT     H269402   4.962   3.565   2.727
23054WAT      O69403   4.145   0.585   0.754
23054WAT     H169404   4.240   0.558   0.740
23054WAT     H269405   4.095   0.508   0.794
23055WAT      O69406   0.046   9.159   5.935
23055WAT     H169407  -0.044   9.195   5.960
23055WAT     H269408   0.055   9.160   5.835
23056WAT      O69409   5.088   5.049   9.031
23056WAT     H169410   5.148   5.128   9.047
23056WAT     H269411   5.131   4.967   9.069
23057WAT      O69412   8.715   9.507   1.303
23057WAT     H169413   8.716   9.607   1.293
23057WAT     H269414   8.685   9.484   1.396
23058WAT      O69415   2.600   9.367   6.215
23058WAT     H169416   2.682   9.423   6.217
23058WAT     H269417   2.625   9.271   6.207
23059WAT      O69418   3.020   1.332   1.859
23059WAT     H169419   2.988   1.312   1.767
23059WAT     H269420   3.046   1.247   1.905
23060WAT      O69421   3.842   0.544   0.754
23060WAT     H169422   3.879   0.553   0.847
23060WAT     H269423   3.829   0.447   0.733
23061WAT      O69424   7.404   7.506   2.036
23061WAT     H169425   7.401   7.412   2.001
23061WAT     H269426   7.368   7.508   2.129
23062WAT      O69427   0.001   1.044   4.765
23062WAT     H169428  -0.060   1.070   4.690
23062WAT     H269429   0.066   1.119   4.782
23063WAT      O69430   5.434   5.407   8.653
23063WAT     H169431   5.383   5.360   8.582
23063WAT     H269432   5.515   5.450   8.613
23064WAT      O69433   6.849   8.735   5.265
23064WAT     H169434   6.787   8.694   5.198
23064WAT     H269435   6.804   8.810   5.312
23065WAT      O69436   6.380   1.463   4.920
23065WAT     H169437   6.440   1.516   4.860
23065WAT     H269438   6.431   1.387   4.960
23066WAT      O69439   5.842   0.630   9.531
23066WAT     H169440   5.789   0.632   9.616
23066WAT     H269441   5.925   0.576   9.546
23067WAT      O69442   8.587   5.492   5.181
23067WAT     H169443   8.543   5.416   5.228
23067WAT     H269444   8.645   5.456   5.107
23068WAT      O69445   8.328   4.825   1.255
23068WAT     H169446   8.359   4.920   1.264
23068WAT     H269447   8.231   4.823   1.232
23069WAT      O69448   7.659   2.577   0.743
23069WAT     H169449   7.718   2.521   0.801
23069WAT     H269450   7.695   2.670   0.738
23070WAT      O69451   3.881   2.784   8.191
23070WAT     H169452   3.813   2.852   8.167
23070WAT     H269453   3.839   2.715   8.251
23071WAT      O69454   9.247   3.793   8.124
23071WAT     H169455   9.316   3.865   8.115
23071WAT     H269456   9.233   3.772   8.221
23072WAT      O69457   3.541   2.878   9.451
23072WAT     H169458   3.469   2.852   9.387
23072WAT     H269459   3.626   2.892   9.400
23073WAT      O69460   3.722   2.591   4.268
23073WAT     H169461   3.711   2.512   4.208
23073WAT     H269462   3.815   2.592   4.305
23074WAT      O69463   1.245   5.271   5.025
23074WAT     H169464   1.342   5.258   5.044
23074WAT     H269465   1.230   5.277   4.927
23075WAT      O69466   6.722   7.602   7.716
23075WAT     H169467   6.648   7.581   7.652
23075WAT     H269468   6.758   7.693   7.698
23076WAT      O69469   2.546   2.411   2.251
23076WAT     H169470   2.608   2.362   2.190
23076WAT     H269471   2.558   2.510   2.237
23077WAT      O69472   1.146   4.949   5.634
23077WAT     H169473   1.231   4.897   5.629
23077WAT     H269474   1.130   4.997   5.548
23078WAT      O69475   9.491   9.532   8.486
23078WAT     H169476   9.523   9.611   8.434
23078WAT     H269477   9.569   9.479   8.517
23079WAT      O69478   7.149   2.662   8.417
23079WAT     H169479   7.055   2.627   8.419
23079WAT     H269480   7.213   2.586   8.414
23080WAT      O69481   9.851   5.833   2.326
23080WAT     H169482   9.814   5.900   2.391
23080WAT     H269483   9.792   5.829   2.246
23081WAT      O69484   9.395   2.313   8.990
23081WAT     H169485   9.443   2.230   9.018
23081WAT     H269486   9.306   2.288   8.951
23082WAT      O69487   0.772   6.509   6.555
23082WAT     H169488   0.820   6.494   6.641
23082WAT     H269489   0.819   6.458   6.482
23083WAT      O69490   2.028   9.129   0.212
23083WAT     H169491   2.048   9.047   0.265
23083WAT     H269492   2.113   9.168   0.177
23084WAT      O69493   4.714   5.547   0.359
23084WAT     H169494   4.722   5.473   0.426
23084WAT     H269495   4.697   5.508   0.268
23085WAT      O69496   6.166   6.626   4.137
23085WAT     H169497   6.146   6.616   4.039
23085WAT     H269498   6.236   6.696   4.150
23086WAT      O69499   3.626   9.148   8.880
23086WAT     H169500   3.691   9.192   8.941
23086WAT     H269501   3.597   9.061   8.919
23087WAT      O69502   0.055   4.173   1.754
23087WAT     H169503   0.052   4.235   1.832
23087WAT     H269504   0.059   4.227   1.670
23088WAT      O69505   9.808   5.754   0.411
23088WAT     H169506   9.785   5.851   0.407
23088WAT     H269507   9.815   5.725   0.506
23089WAT      O69508   6.819   1.554   8.695
23089WAT     H169509   6.873   1.630   8.661
23089WAT     H269510   6.815   1.482   8.626
23090WAT      O69511   4.036   9.185   3.362
23090WAT     H169512   3.950   9.222   3.398
23090WAT     H269513   4.015   9.106   3.304
23091WAT      O69514   1.055   3.767   0.420
23091WAT     H169515   0.989   3.779   0.494
23091WAT     H269516   1.010   3.727   0.341
23092WAT      O69517   9.041   0.042   5.704
23092WAT     H169518   8.976   0.116   5.691
23092WAT     H269519   9.003  -0.026   5.767
23093WAT      O69520   5.702   4.303   6.695
23093WAT     H169521   5.639   4.252   6.754
23093WAT     H269522   5.649   4.358   6.631
23094WAT      O69523   1.204   2.799   3.586
23094WAT     H169524   1.277   2.813   3.519
23094WAT     H269525   1.225   2.849   3.669
23095WAT      O69526   1.391   2.397   2.646
23095WAT     H169527   1.369   2.477   2.591
23095WAT     H269528   1.488   2.401   2.673
23096WAT      O69529   3.504   4.358   9.437
23096WAT     H169530   3.522   4.293   9.511
23096WAT     H269531   3.510   4.311   9.349
23097WAT      O69532   4.814   3.489   3.456
23097WAT     H169533   4.856   3.500   3.365
23097WAT     H269534   4.730   3.543   3.460
23098WAT      O69535   0.304   8.449   5.229
23098WAT     H169536   0.285   8.351   5.240
23098WAT     H269537   0.372   8.462   5.158
23099WAT      O69538   7.312   3.454   4.134
23099WAT     H169539   7.367   3.393   4.076
23099WAT     H269540   7.292   3.408   4.221
23100WAT      O69541   5.530   8.757   9.718
23100WAT     H169542   5.439   8.746   9.678
23100WAT     H269543   5.588   8.680   9.693
23101WAT      O69544   0.717   8.501   6.321
23101WAT     H169545   0.694   8.504   6.224
23101WAT     H269546   0.816   8.492   6.332
23102WAT      O69547   7.290   4.266   9.208
23102WAT     H169548   7.319   4.173   9.189
23102WAT     H269549   7.371   4.325   9.215
23103WAT      O69550   2.600   8.497   1.350
23103WAT     H169551   2.590   8.520   1.253
23103WAT     H269552   2.636   8.576   1.399
23104WAT      O69553   4.465   9.077   9.071
23104WAT     H169554   4.521   9.119   9.143
23104WAT     H269555   4.368   9.092   9.092
23105WAT      O69556   4.814   5.837   2.659
23105WAT     H169557   4.808   5.830   2.759
23105WAT     H269558   4.728   5.874   2.623
23106WAT      O69559   2.891   0.720   7.477
23106WAT     H169560   2.917   0.817   7.476
23106WAT     H269561   2.810   0.708   7.535
23107WAT      O69562   0.358   4.484   1.489
23107WAT     H169563   0.338   4.434   1.405
23107WAT     H269564   0.363   4.582   1.470
23108WAT      O69565   1.568   0.869   1.390
23108WAT     H169566   1.659   0.909   1.402
23108WAT     H269567   1.576   0.780   1.345
23109WAT      O69568   3.417   6.792   5.325
23109WAT     H169569   3.489   6.859   5.307
23109WAT     H269570   3.456   6.700   5.321
23110WAT      O69571   5.383   8.696   5.675
23110WAT     H169572   5.342   8.617   5.721
23110WAT     H269573   5.368   8.688   5.577
23111WAT      O69574   5.611   8.044   9.288
23111WAT     H169575   5.592   8.125   9.343
23111WAT     H269576   5.526   8.010   9.249
23112WAT      O69577   2.617   6.367   3.158
23112WAT     H169578   2.518   6.375   3.167
23112WAT     H269579   2.639   6.296   3.091
23113WAT      O69580   8.286   5.762   1.535
23113WAT     H169581   8.304   5.675   1.491
23113WAT     H269582   8.314   5.837   1.475
23114WAT      O69583   5.399   7.391   5.988
23114WAT     H169584   5.485   7.363   5.943
23114WAT     H269585   5.385   7.489   5.975
23115WAT      O69586   6.058   1.180   1.189
23115WAT     H169587   5.961   1.159   1.206
23115WAT     H269588   6.086   1.139   1.102
23116WAT      O69589   9.635   2.792   9.089
23116WAT     H169590   9.551   2.846   9.101
23116WAT     H269591   9.653   2.740   9.172
23117WAT      O69592   7.326   8.141   8.030
23117WAT     H169593   7.363   8.195   7.954
23117WAT     H269594   7.271   8.067   7.994
23118WAT      O69595   4.171   1.039   7.533
23118WAT     H169596   4.225   0.959   7.557
23118WAT     H269597   4.082   1.034   7.578
23119WAT      O69598   5.679   7.044   1.449
23119WAT     H169599   5.618   6.977   1.493
23119WAT     H269600   5.636   7.078   1.366
23120WAT      O69601   7.172   3.292   2.786
23120WAT     H169602   7.149   3.382   2.823
23120WAT     H269603   7.164   3.294   2.687
23121WAT      O69604   0.276   3.442   1.343
23121WAT     H169605   0.197   3.395   1.304
23121WAT     H269606   0.360   3.399   1.312
23122WAT      O69607   4.121   0.548   1.201
23122WAT     H169608   4.208   0.538   1.151
23122WAT     H269609   4.134   0.519   1.296
23123WAT      O69610   1.683   4.747   6.896
23123WAT     H169611   1.749   4.804   6.849
23123WAT     H269612   1.590   4.774   6.870
23124WAT      O69613   7.330   9.605   1.374
23124WAT     H169614   7.288   9.577   1.287
23124WAT     H269615   7.297   9.697   1.398
23125WAT      O69616   9.017   0.543   3.877
23125WAT     H169617   8.988   0.637   3.859
23125WAT     H269618   9.082   0.514   3.806
23126WAT      O69619   0.243   6.129   8.363
23126WAT     H169620   0.287   6.105   8.450
23126WAT     H269621   0.312   6.134   8.291
23127WAT      O69622   3.267   0.485   3.663
23127WAT     H169623   3.305   0.400   3.698
23127WAT     H269624   3.202   0.522   3.730
23128WAT      O69625   7.746   7.681   7.668
23128WAT     H169626   7.791   7.704   7.755
23128WAT     H269627   7.761   7.585   7.647
23129WAT      O69628   8.956   5.783   7.793
23129WAT     H169629   8.942   5.686   7.813
23129WAT     H269630   8.982   5.794   7.697
23130WAT      O69631   8.488   4.747   5.969
23130WAT     H169632   8.564   4.689   5.938
23130WAT     H269633   8.496   4.837   5.926
23131WAT      O69634   9.216   8.772   7.148
23131WAT     H169635   9.189   8.721   7.229
23131WAT     H269636   9.316   8.768   7.137
23132WAT      O69637   5.308   9.596   8.023
23132WAT     H169638   5.215   9.594   8.059
23132WAT     H269639   5.350   9.506   8.032
23133WAT      O69640   6.581   0.297   6.124
23133WAT     H169641   6.551   0.213   6.080
23133WAT     H269642   6.524   0.314   6.205
23134WAT      O69643   9.520   1.424   1.880
23134WAT     H169644   9.594   1.431   1.814
23134WAT     H269645   9.556   1.436   1.972
23135WAT      O69646   2.063   2.138   9.459
23135WAT     H169647   2.104   2.218   9.503
23135WAT     H269648   1.969   2.126   9.493
23136WAT      O69649   1.768   9.166   2.081
23136WAT     H169650   1.840   9.097   2.084
23136WAT     H269651   1.728   9.175   2.173
23137WAT      O69652   4.875   7.053   8.694
23137WAT     H169653   4.922   7.005   8.768
23137WAT     H269654   4.801   7.108   8.731
23138WAT      O69655   5.306   4.647   9.280
23138WAT     H169656   5.368   4.717   9.317
23138WAT     H269657   5.244   4.617   9.352
23139WAT      O69658   3.980   1.626   1.750
23139WAT     H169659   4.048   1.692   1.718
23139WAT     H269660   3.925   1.595   1.673
23140WAT      O69661   7.473   5.364   4.787
23140WAT     H169662   7.531   5.395   4.862
23140WAT     H269663   7.437   5.273   4.808
23141WAT      O69664   9.321   0.438   6.673
23141WAT     H169665   9.387   0.435   6.748
23141WAT     H269666   9.345   0.514   6.612
23142WAT      O69667   6.331   1.382   1.891
23142WAT     H169668   6.248   1.364   1.945
23142WAT     H269669   6.403   1.319   1.919
23143WAT      O69670   2.758   5.134   8.890
23143WAT     H169671   2.757   5.050   8.945
23143WAT     H269672   2.716   5.208   8.942
23144WAT      O69673   3.281   9.300   1.170
23144WAT     H169674   3.267   9.202   1.176
23144WAT     H269675   3.194   9.348   1.178
23145WAT      O69676   6.559   9.214   0.156
23145WAT     H169677   6.598   9.222   0.065
23145WAT     H269678   6.624   9.251   0.223
23146WAT      O69679   7.294   7.785   4.102
23146WAT     H169680   7.387   7.786   4.140
23146WAT     H269681   7.228   7.791   4.176
23147WAT      O69682   1.228   7.126   9.746
23147WAT     H169683   1.257   7.201   9.686
23147WAT     H269684   1.298   7.112   9.817
23148WAT      O69685   2.988   0.478   8.224
23148WAT     H169686   3.077   0.431   8.223
23148WAT     H269687   2.974   0.520   8.314
23149WAT      O69688   1.222   4.210   1.912
23149WAT     H169689   1.216   4.303   1.950
23149WAT     H269690   1.317   4.180   1.912
23150WAT      O69691   0.429   2.099   9.815
23150WAT     H169692   0.527   2.110   9.797
23150WAT     H269693   0.416   2.034   9.890
23151WAT      O69694   4.003   4.374   2.757
23151WAT     H169695   4.073   4.330   2.700
23151WAT     H269696   4.009   4.473   2.747
23152WAT      O69697   2.081   3.711   5.241
23152WAT     H169698   2.037   3.716   5.152
23152WAT     H269699   2.095   3.804   5.277
23153WAT      O69700   1.592   1.715   1.643
23153WAT     H169701   1.654   1.756   1.710
23153WAT     H269702   1.637   1.637   1.599
23154WAT      O69703   5.786   3.926   3.103
23154WAT     H169704   5.797   4.025   3.092
23154WAT     H269705   5.865   3.879   3.063
23155WAT      O69706   7.453   7.608   2.564
23155WAT     H169707   7.483   7.513   2.557
23155WAT     H269708   7.485   7.660   2.485
23156WAT      O69709   3.549   6.249   0.668
23156WAT     H169710   3.569   6.329   0.612
23156WAT     H269711   3.450   6.234   0.671
23157WAT      O69712   5.866   1.085   3.571
23157WAT     H169713   5.910   1.010   3.521
23157WAT     H269714   5.936   1.150   3.601
23158WAT      O69715   4.684   3.119   0.877
23158WAT     H169716   4.695   3.205   0.827
23158WAT     H269717   4.606   3.068   0.840
23159WAT      O69718   8.798   3.607   6.927
23159WAT     H169719   8.742   3.690   6.930
23159WAT     H269720   8.771   3.551   6.849
23160WAT      O69721   5.554   4.011   8.419
23160WAT     H169722   5.527   4.018   8.323
23160WAT     H269723   5.525   4.093   8.468
23161WAT      O69724   9.392   3.699   7.643
23161WAT     H169725   9.382   3.621   7.581
23161WAT     H269726   9.352   3.677   7.732
23162WAT      O69727   0.498   6.541   2.328
23162WAT     H169728   0.490   6.641   2.335
23162WAT     H269729   0.593   6.517   2.306
23163WAT      O69730   9.394   6.666   2.933
23163WAT     H169731   9.469   6.645   2.996
23163WAT     H269732   9.338   6.584   2.920
23164WAT      O69733   6.447   7.413   8.877
23164WAT     H169734   6.383   7.390   8.804
23164WAT     H269735   6.397   7.456   8.952
23165WAT      O69736   5.373   4.971   9.752
23165WAT     H169737   5.313   5.029   9.696
23165WAT     H269738   5.468   4.986   9.726
23166WAT      O69739   6.160   1.824   0.740
23166WAT     H169740   6.081   1.849   0.797
23166WAT     H269741   6.138   1.841   0.644
23167WAT      O69742   6.897   4.781   0.144
23167WAT     H169743   6.890   4.797   0.046
23167WAT     H269744   6.988   4.744   0.166
23168WAT      O69745   6.948   5.812   2.213
23168WAT     H169746   6.918   5.757   2.292
23168WAT     H269747   7.047   5.822   2.215
23169WAT      O69748   5.883   2.628   2.628
23169WAT     H169749   5.923   2.676   2.707
23169WAT     H269750   5.871   2.692   2.553
23170WAT      O69751   4.978   0.794   9.181
23170WAT     H169752   4.954   0.702   9.212
23170WAT     H269753   4.930   0.862   9.237
23171WAT      O69754   2.356   6.413   7.335
23171WAT     H169755   2.350   6.509   7.307
23171WAT     H269756   2.452   6.385   7.340
23172WAT      O69757   1.708   4.354   8.126
23172WAT     H169758   1.725   4.290   8.202
23172WAT     H269759   1.676   4.303   8.046
23173WAT      O69760   4.501   6.375   7.638
23173WAT     H169761   4.409   6.343   7.662
23173WAT     H269762   4.543   6.417   7.719
23174WAT      O69763   3.497   5.984   4.965
23174WAT     H169764   3.567   5.962   4.897
23174WAT     H269765   3.477   6.082   4.962
23175WAT      O69766   1.490   9.087   7.567
23175WAT     H169767   1.457   9.179   7.588
23175WAT     H269768   1.493   9.074   7.468
23176WAT      O69769   6.067   7.110   8.670
23176WAT     H169770   6.036   7.195   8.628
23176WAT     H269771   6.134   7.066   8.610
23177WAT      O69772   9.239   3.553   7.816
23177WAT     H169773   9.161   3.524   7.871
23177WAT     H269774   9.299   3.475   7.799
23178WAT      O69775   3.804   3.072   1.642
23178WAT     H169776   3.735   3.022   1.589
23178WAT     H269777   3.774   3.167   1.655
23179WAT      O69778   3.873   0.656   6.900
23179WAT     H169779   3.886   0.701   6.812
23179WAT     H269780   3.949   0.593   6.917
23180WAT      O69781   0.271   8.769   7.841
23180WAT     H169782   0.194   8.730   7.892
23180WAT     H269783   0.257   8.867   7.830
23181WAT      O69784   1.317   9.550   8.994
23181WAT     H169785   1.275   9.525   9.081
23181WAT     H269786   1.280   9.638   8.963
23182WAT      O69787   6.484   7.887   7.696
23182WAT     H169788   6.530   7.798   7.703
23182WAT     H269789   6.389   7.873   7.669
23183WAT      O69790   3.977   0.031   3.112
23183WAT     H169791   3.934   0.008   3.024
23183WAT     H269792   3.977  -0.049   3.172
23184WAT      O69793   8.475   5.024   8.931
23184WAT     H169794   8.484   5.119   8.962
23184WAT     H269795   8.489   5.020   8.832
23185WAT      O69796   2.629   8.373   3.041
23185WAT     H169797   2.665   8.385   2.948
23185WAT     H269798   2.673   8.295   3.085
23186WAT      O69799   7.287   2.667   1.406
23186WAT     H169800   7.261   2.756   1.369
23186WAT     H269801   7.217   2.599   1.382
23187WAT      O69802   9.356   1.993   4.042
23187WAT     H169803   9.377   2.034   4.131
23187WAT     H269804   9.340   1.895   4.054
23188WAT      O69805   6.850   5.278   0.901
23188WAT     H169806   6.869   5.180   0.897
23188WAT     H269807   6.864   5.318   0.810
23189WAT      O69808   8.777   0.904   9.437
23189WAT     H169809   8.854   0.844   9.417
23189WAT     H269810   8.706   0.892   9.368
23190WAT      O69811   3.452   4.362   4.908
23190WAT     H169812   3.537   4.402   4.941
23190WAT     H269813   3.426   4.286   4.967
23191WAT      O69814   3.892   9.107   7.187
23191WAT     H169815   3.858   9.168   7.115
23191WAT     H269816   3.986   9.080   7.166
23192WAT      O69817   0.876   7.557   4.985
23192WAT     H169818   0.946   7.627   4.974
23192WAT     H269819   0.873   7.528   5.081
23193WAT      O69820   6.991   4.575   2.452
23193WAT     H169821   7.053   4.502   2.481
23193WAT     H269822   7.038   4.634   2.387
23194WAT      O69823   7.145   7.213   8.286
23194WAT     H169824   7.063   7.268   8.298
23194WAT     H269825   7.161   7.198   8.188
23195WAT      O69826   6.038   7.685   7.811
23195WAT     H169827   5.996   7.776   7.804
23195WAT     H269828   6.116   7.689   7.873
23196WAT      O69829   6.372   0.918   0.463
23196WAT     H169830   6.321   1.002   0.482
23196WAT     H269831   6.446   0.938   0.399
23197WAT      O69832   3.587   7.173   1.384
23197WAT     H169833   3.582   7.080   1.420
23197WAT     H269834   3.532   7.234   1.441
23198WAT      O69835   5.027   8.199   2.840
23198WAT     H169836   5.024   8.185   2.741
23198WAT     H269837   5.101   8.262   2.862
23199WAT      O69838   9.357   7.816   4.281
23199WAT     H169839   9.412   7.887   4.237
23199WAT     H269840   9.350   7.835   4.379
23200WAT      O69841   2.236   0.683   2.516
23200WAT     H169842   2.310   0.722   2.571
23200WAT     H269843   2.168   0.754   2.496
23201WAT      O69844   5.615   9.831   9.172
23201WAT     H169845   5.585   9.752   9.118
23201WAT     H269846   5.715   9.838   9.168
23202WAT      O69847   1.961   8.145   2.100
23202WAT     H169848   1.910   8.144   2.187
23202WAT     H269849   2.058   8.158   2.118
23203WAT      O69850   8.850   3.697   5.151
23203WAT     H169851   8.852   3.622   5.217
23203WAT     H269852   8.791   3.673   5.075
23204WAT      O69853   3.956   8.757   9.081
23204WAT     H169854   4.047   8.785   9.051
23204WAT     H269855   3.953   8.754   9.181
23205WAT      O69856   3.570   3.953   7.046
23205WAT     H169857   3.584   4.006   6.962
23205WAT     H269858   3.589   3.856   7.027
23206WAT      O69859   0.161   0.013   5.616
23206WAT     H169860   0.235  -0.036   5.661
23206WAT     H269861   0.198   0.092   5.567
23207WAT      O69862   6.540   3.661   5.133
23207WAT     H169863   6.612   3.662   5.063
23207WAT     H269864   6.508   3.568   5.147
23208WAT      O69865   0.071   0.903   4.313
23208WAT     H169866  -0.026   0.912   4.338
23208WAT     H269867   0.128   0.927   4.391
23209WAT      O69868   5.845   0.434   9.822
23209WAT     H169869   5.869   0.460   9.916
23209WAT     H269870   5.926   0.444   9.764
23210WAT      O69871   8.187   6.436   1.509
23210WAT     H169872   8.115   6.415   1.443
23210WAT     H269873   8.187   6.367   1.581
23211WAT      O69874   9.649   5.793   2.165
23211WAT     H169875   9.600   5.717   2.208
23211WAT     H269876   9.588   5.841   2.103
23212WAT      O69877   7.313   7.493   2.307
23212WAT     H169878   7.383   7.451   2.364
23212WAT     H269879   7.239   7.427   2.291
23213WAT      O69880   6.561   7.294   3.241
23213WAT     H169881   6.554   7.278   3.143
23213WAT     H269882   6.657   7.286   3.269
23214WAT      O69883   3.757   1.872   3.012
23214WAT     H169884   3.747   1.971   2.995
23214WAT     H269885   3.765   1.855   3.110
23215WAT      O69886   9.451   0.181   5.271
23215WAT     H169887   9.482   0.161   5.178
23215WAT     H269888   9.351   0.182   5.273
23216WAT      O69889   6.665   3.262   2.862
23216WAT     H169890   6.678   3.195   2.935
23216WAT     H269891   6.670   3.355   2.900
23217WAT      O69892   2.999   9.162   1.040
23217WAT     H169893   2.981   9.065   1.028
23217WAT     H269894   3.014   9.182   1.137
23218WAT      O69895   8.657   7.839   9.417
23218WAT     H169896   8.557   7.833   9.412
23218WAT     H269897   8.698   7.758   9.376
23219WAT      O69898   7.624   0.434   6.804
23219WAT     H169899   7.663   0.371   6.870
23219WAT     H269900   7.630   0.528   6.839
23220WAT      O69901   4.262   3.891   0.263
23220WAT     H169902   4.357   3.878   0.290
23220WAT     H269903   4.218   3.802   0.252
23221WAT      O69904   8.204   0.584   1.007
23221WAT     H169905   8.213   0.640   1.089
23221WAT     H269906   8.148   0.504   1.027
23222WAT      O69907   8.076   1.919   1.811
23222WAT     H169908   8.138   1.977   1.864
23222WAT     H269909   8.127   1.873   1.739
23223WAT      O69910   5.415   2.181   2.811
23223WAT     H169911   5.508   2.217   2.801
23223WAT     H269912   5.393   2.123   2.732
23224WAT      O69913   8.384   2.725   0.310
23224WAT     H169914   8.382   2.660   0.233
23224WAT     H269915   8.474   2.767   0.316
23225WAT      O69916   5.244   4.989   6.066
23225WAT     H169917   5.174   4.991   5.994
23225WAT     H269918   5.298   5.072   6.061
23226WAT      O69919   6.136   5.667   3.022
23226WAT     H169920   6.230   5.640   3.002
23226WAT     H269921   6.090   5.692   2.937
23227WAT      O69922   2.844   1.784   5.039
23227WAT     H169923   2.923   1.735   5.074
23227WAT     H269924   2.875   1.865   4.989
23228WAT      O69925   6.264   7.129   0.342
23228WAT     H169926   6.217   7.193   0.282
23228WAT     H269927   6.207   7.109   0.421
23229WAT      O69928   4.199   7.444   4.358
23229WAT     H169929   4.123   7.443   4.293
23229WAT     H269930   4.281   7.406   4.313
23230WAT      O69931   0.592   3.771   1.957
23230WAT     H169932   0.647   3.743   2.035
23230WAT     H269933   0.630   3.732   1.873
23231WAT      O69934   3.115   2.492   7.811
23231WAT     H169935   3.175   2.421   7.773
23231WAT     H269936   3.162   2.540   7.885
23232WAT      O69937   4.281   8.211   9.263
23232WAT     H169938   4.255   8.140   9.197
23232WAT     H269939   4.298   8.168   9.352
23233WAT      O69940   4.461   0.588   6.202
23233WAT     H169941   4.430   0.661   6.141
23233WAT     H269942   4.505   0.516   6.148
23234WAT      O69943   5.595   5.777   6.717
23234WAT     H169944   5.504   5.744   6.693
23234WAT     H269945   5.608   5.769   6.816
23235WAT      O69946   6.445   8.344   4.980
23235WAT     H169947   6.472   8.335   4.884
23235WAT     H269948   6.524   8.375   5.033
23236WAT      O69949   7.401   5.272   1.210
23236WAT     H169950   7.319   5.308   1.254
23236WAT     H269951   7.471   5.344   1.206
23237WAT      O69952   6.956   9.433   3.218
23237WAT     H169953   6.862   9.459   3.238
23237WAT     H269954   6.962   9.395   3.126
23238WAT      O69955   8.834   7.764   0.558
23238WAT     H169956   8.870   7.691   0.500
23238WAT     H269957   8.906   7.832   0.575
23239WAT      O69958   1.443   3.213   1.410
23239WAT     H169959   1.397   3.278   1.350
23239WAT     H269960   1.375   3.161   1.462
23240WAT      O69961   5.477   3.659   9.061
23240WAT     H169962   5.453   3.630   9.153
23240WAT     H269963   5.412   3.619   8.996
23241WAT      O69964   4.924   7.163   6.045
23241WAT     H169965   5.010   7.201   6.011
23241WAT     H269966   4.848   7.213   6.005
23242WAT      O69967   2.362   8.417   2.680
23242WAT     H169968   2.380   8.320   2.670
23242WAT     H269969   2.263   8.432   2.693
23243WAT      O69970   8.189   9.237   4.413
23243WAT     H169971   8.092   9.257   4.395
23243WAT     H269972   8.202   9.138   4.419
23244WAT      O69973   0.569   6.036   6.247
23244WAT     H169974   0.663   6.030   6.278
23244WAT     H269975   0.562   6.104   6.174
23245WAT      O69976   0.305   4.845   4.523
23245WAT     H169977   0.298   4.876   4.428
23245WAT     H269978   0.311   4.924   4.583
23246WAT      O69979   5.447   2.653   0.956
23246WAT     H169980   5.381   2.585   0.988
23246WAT     H269981   5.518   2.667   1.025
23247WAT      O69982   7.824   4.692   7.471
23247WAT     H169983   7.871   4.778   7.489
23247WAT     H269984   7.779   4.660   7.554
23248WAT      O69985   1.589   8.732   9.840
23248WAT     H169986   1.610   8.662   9.908
23248WAT     H269987   1.537   8.691   9.765
23249WAT      O69988   0.118   2.732   4.982
23249WAT     H169989   0.125   2.721   5.081
23249WAT     H269990   0.105   2.643   4.939
23250WAT      O69991   8.120   6.052   8.062
23250WAT     H169992   8.162   5.986   8.124
23250WAT     H269993   8.037   6.090   8.104
23251WAT      O69994   4.648   9.795   9.048
23251WAT     H169995   4.565   9.838   9.013
23251WAT     H269996   4.624   9.728   9.118
23252WAT      O69997   4.414   2.262   9.022
23252WAT     H169998   4.490   2.234   8.962
23252WAT     H269999   4.347   2.314   8.968
23253WAT      O70000   5.171   8.762   7.019
23253WAT     H170001   5.255   8.776   7.072
23253WAT     H270002   5.189   8.699   6.944
23254WAT      O70003   0.754   1.982   5.874
23254WAT     H170004   0.788   1.995   5.781
23254WAT     H270005   0.722   2.069   5.911
23255WAT      O70006   5.156   3.762   0.668
23255WAT     H170007   5.095   3.729   0.739
23255WAT     H270008   5.115   3.746   0.578
23256WAT      O70009   2.058   4.378   6.084
23256WAT     H170010   1.975   4.366   6.139
23256WAT     H270011   2.111   4.294   6.084
23257WAT      O70012   3.639   4.197   1.892
23257WAT     H170013   3.612   4.238   1.979
23257WAT     H270014   3.678   4.267   1.833
23258WAT      O70015   2.370   5.843   8.385
23258WAT     H170016   2.280   5.864   8.346
23258WAT     H270017   2.419   5.780   8.325
23259WAT      O70018   7.916   4.435   4.696
23259WAT     H170019   7.987   4.504   4.685
23259WAT     H270020   7.908   4.382   4.612
23260WAT      O70021   1.463   9.288   2.251
23260WAT     H170022   1.454   9.373   2.304
23260WAT     H270023   1.482   9.212   2.314
23261WAT      O70024   6.465   5.221   0.490
23261WAT     H170025   6.538   5.274   0.448
23261WAT     H270026   6.478   5.124   0.468
23262WAT      O70027   5.675   7.599   0.302
23262WAT     H170028   5.757   7.584   0.247
23262WAT     H270029   5.594   7.587   0.245
23263WAT      O70030   4.236   3.965   6.187
23263WAT     H170031   4.221   3.867   6.173
23263WAT     H270032   4.333   3.982   6.204
23264WAT      O70033   5.473   2.901   8.115
23264WAT     H170034   5.566   2.864   8.107
23264WAT     H270035   5.456   2.924   8.210
23265WAT      O70036   2.280   0.568   9.740
23265WAT     H170037   2.304   0.512   9.819
23265WAT     H270038   2.306   0.663   9.757
23266WAT      O70039   5.520   1.565   3.807
23266WAT     H170040   5.485   1.530   3.721
23266WAT     H270041   5.584   1.640   3.789
23267WAT      O70042   5.850   0.975   0.918
23267WAT     H170043   5.856   0.913   0.996
23267WAT     H270044   5.920   0.951   0.851
23268WAT      O70045   1.162   2.991   0.292
23268WAT     H170046   1.216   2.944   0.222
23268WAT     H270047   1.128   3.078   0.256
23269WAT      O70048   6.909   9.427   9.372
23269WAT     H170049   6.895   9.329   9.357
23269WAT     H270050   6.842   9.479   9.319
23270WAT      O70051   9.076   2.232   5.994
23270WAT     H170052   9.033   2.247   6.083
23270WAT     H270053   9.006   2.229   5.923
23271WAT      O70054   9.043   5.383   7.585
23271WAT     H170055   9.072   5.411   7.676
23271WAT     H270056   8.973   5.446   7.551
23272WAT      O70057   6.611   4.215   5.321
23272WAT     H170058   6.658   4.133   5.354
23272WAT     H270059   6.652   4.244   5.234
23273WAT      O70060   3.873   5.530   8.331
23273WAT     H170061   3.813   5.562   8.404
23273WAT     H270062   3.893   5.606   8.269
23274WAT      O70063   3.445   0.244   4.211
23274WAT     H170064   3.371   0.178   4.195
23274WAT     H270065   3.412   0.317   4.271
23275WAT      O70066   9.057   6.160   8.653
23275WAT     H170067   9.155   6.143   8.661
23275WAT     H270068   9.011   6.129   8.736
23276WAT      O70069   4.351   0.255   1.725
23276WAT     H170070   4.376   0.175   1.670
23276WAT     H270071   4.431   0.313   1.738
23277WAT      O70072   9.728   8.329   3.574
23277WAT     H170073   9.664   8.391   3.619
23277WAT     H270074   9.791   8.382   3.517
23278WAT      O70075   2.083   0.145   1.555
23278WAT     H170076   2.046   0.169   1.466
23278WAT     H270077   2.017   0.169   1.626
23279WAT      O70078   7.903   7.063   1.155
23279WAT     H170079   7.931   6.970   1.182
23279WAT     H270080   7.811   7.081   1.190
23280WAT      O70081   8.067   0.806   5.364
23280WAT     H170082   8.021   0.858   5.292
23280WAT     H270083   8.035   0.712   5.363
23281WAT      O70084   1.003   7.840   2.078
23281WAT     H170085   0.950   7.889   2.009
23281WAT     H270086   0.950   7.762   2.111
23282WAT      O70087   8.689   0.026   4.003
23282WAT     H170088   8.786   0.001   4.005
23282WAT     H270089   8.669   0.073   3.917
23283WAT      O70090   5.553   0.420   2.946
23283WAT     H170091   5.571   0.504   2.896
23283WAT     H270092   5.636   0.366   2.953
23284WAT      O70093   8.344   4.389   1.421
23284WAT     H170094   8.410   4.315   1.407
23284WAT     H270095   8.268   4.379   1.357
23285WAT      O70096   6.251   1.214   9.004
23285WAT     H170097   6.166   1.266   9.007
23285WAT     H270098   6.329   1.277   9.002
23286WAT      O70099   8.262   5.910   0.275
23286WAT     H170100   8.341   5.928   0.335
23286WAT     H270101   8.195   5.984   0.286
23287WAT      O70102   0.412   3.247   4.132
23287WAT     H170103   0.391   3.211   4.041
23287WAT     H270104   0.356   3.328   4.150
23288WAT      O70105   5.094   9.184   3.022
23288WAT     H170106   5.125   9.259   3.080
23288WAT     H270107   5.094   9.099   3.075
23289WAT      O70108   0.864   3.959   0.006
23289WAT     H170109   0.952   3.925  -0.026
23289WAT     H270110   0.878   4.022   0.082
23290WAT      O70111   9.244   1.881   0.357
23290WAT     H170112   9.159   1.829   0.362
23290WAT     H270113   9.316   1.833   0.406
23291WAT      O70114   6.763   7.050   9.277
23291WAT     H170115   6.740   7.063   9.181
23291WAT     H270116   6.842   6.989   9.284
23292WAT      O70117   3.063   6.809   4.295
23292WAT     H170118   3.073   6.727   4.239
23292WAT     H270119   3.148   6.827   4.344
23293WAT      O70120   7.293   1.196   7.253
23293WAT     H170121   7.207   1.235   7.220
23293WAT     H270122   7.325   1.126   7.189
23294WAT      O70123   3.464   3.657   5.477
23294WAT     H170124   3.426   3.747   5.496
23294WAT     H270125   3.464   3.641   5.378
23295WAT      O70126   5.842   7.010   4.639
23295WAT     H170127   5.747   6.982   4.657
23295WAT     H270128   5.848   7.049   4.547
23296WAT      O70129   1.851   3.779   2.078
23296WAT     H170130   1.801   3.856   2.118
23296WAT     H270131   1.921   3.748   2.143
23297WAT      O70132   0.503   7.054   0.542
23297WAT     H170133   0.409   7.044   0.511
23297WAT     H270134   0.504   7.068   0.641
23298WAT      O70135   9.169   5.605   3.790
23298WAT     H170136   9.070   5.602   3.802
23298WAT     H270137   9.206   5.685   3.837
23299WAT      O70138   4.274   3.009   7.559
23299WAT     H170139   4.372   3.026   7.568
23299WAT     H270140   4.224   3.086   7.600
23300WAT      O70141   4.729   5.170   8.797
23300WAT     H170142   4.704   5.163   8.700
23300WAT     H270143   4.817   5.125   8.812
23301WAT      O70144   0.553   3.971   8.149
23301WAT     H170145   0.470   4.027   8.141
23301WAT     H270146   0.625   4.024   8.192
23302WAT      O70147   7.983   0.814   8.502
23302WAT     H170148   8.072   0.838   8.463
23302WAT     H270149   7.912   0.822   8.432
23303WAT      O70150   0.982   2.718   3.200
23303WAT     H170151   1.007   2.622   3.209
23303WAT     H270152   0.986   2.762   3.290
23304WAT      O70153   8.685   1.934   4.924
23304WAT     H170154   8.752   1.870   4.887
23304WAT     H270155   8.669   2.007   4.858
23305WAT      O70156   6.536   9.713   0.656
23305WAT     H170157   6.477   9.640   0.620
23305WAT     H270158   6.568   9.688   0.748
23306WAT      O70159   2.317   2.751   5.372
23306WAT     H170160   2.347   2.792   5.458
23306WAT     H270161   2.227   2.709   5.384
23307WAT      O70162   0.351   7.701   2.819
23307WAT     H170163   0.340   7.791   2.861
23307WAT     H270164   0.327   7.706   2.722
23308WAT      O70165   2.893   9.437   6.242
23308WAT     H170166   2.971   9.476   6.290
23308WAT     H270167   2.882   9.341   6.267
23309WAT      O70168   2.453   3.435   2.187
23309WAT     H170169   2.551   3.423   2.203
23309WAT     H270170   2.407   3.347   2.192
23310WAT      O70171   7.764   7.455   1.529
23310WAT     H170172   7.806   7.441   1.619
23310WAT     H270173   7.720   7.544   1.527
23311WAT      O70174   0.316   3.713   6.734
23311WAT     H170175   0.269   3.728   6.821
23311WAT     H270176   0.257   3.660   6.673
23312WAT      O70177   8.717   0.394   8.793
23312WAT     H170178   8.624   0.431   8.784
23312WAT     H270179   8.729   0.355   8.884
23313WAT      O70180   4.534   8.817   8.983
23313WAT     H170181   4.541   8.903   9.032
23313WAT     H270182   4.498   8.746   9.044
23314WAT      O70183   8.966   3.653   4.216
23314WAT     H170184   8.897   3.721   4.192
23314WAT     H270185   9.057   3.692   4.206
23315WAT      O70186   6.469   3.557   8.299
23315WAT     H170187   6.393   3.572   8.235
23315WAT     H270188   6.504   3.645   8.331
23316WAT      O70189   2.954   5.718   0.624
23316WAT     H170190   2.994   5.677   0.542
23316WAT     H270191   2.855   5.704   0.624
23317WAT      O70192   1.329   3.554   2.313
23317WAT     H170193   1.262   3.481   2.306
23317WAT     H270194   1.386   3.539   2.394
23318WAT      O70195   8.123   7.905   4.300
23318WAT     H170196   8.066   7.954   4.366
23318WAT     H270197   8.148   7.967   4.226
23319WAT      O70198   1.318   6.017   1.870
23319WAT     H170199   1.410   6.020   1.831
23319WAT     H270200   1.305   6.094   1.931
23320WAT      O70201   4.103   6.424   5.496
23320WAT     H170202   4.087   6.396   5.402
23320WAT     H270203   4.023   6.470   5.532
23321WAT      O70204   5.297   4.829   6.477
23321WAT     H170205   5.247   4.821   6.391
23321WAT     H270206   5.383   4.777   6.471
23322WAT      O70207   0.314   9.640   6.745
23322WAT     H170208   0.351   9.697   6.671
23322WAT     H270209   0.238   9.688   6.788
23323WAT      O70210   7.349   9.264   1.161
23323WAT     H170211   7.296   9.181   1.175
23323WAT     H270212   7.387   9.295   1.248
23324WAT      O70213   2.343   8.454   6.615
23324WAT     H170214   2.368   8.358   6.600
23324WAT     H270215   2.317   8.496   6.528
23325WAT      O70216   0.796   4.088   0.943
23325WAT     H170217   0.781   3.989   0.945
23325WAT     H270218   0.726   4.131   0.887
23326WAT      O70219   0.234   4.732   1.414
23326WAT     H170220   0.276   4.800   1.474
23326WAT     H270221   0.253   4.756   1.319
23327WAT      O70222   2.861   8.271   2.485
23327WAT     H170223   2.909   8.244   2.402
23327WAT     H270224   2.819   8.190   2.527
23328WAT      O70225   5.666   3.550   2.415
23328WAT     H170226   5.655   3.641   2.374
23328WAT     H270227   5.601   3.540   2.490
23329WAT      O70228   4.387   6.925   9.870
23329WAT     H170229   4.346   6.914   9.960
23329WAT     H270230   4.430   6.839   9.842
23330WAT      O70231   1.397   2.860   3.417
23330WAT     H170232   1.410   2.958   3.405
23330WAT     H270233   1.477   2.820   3.462
23331WAT      O70234   4.330   8.171   0.467
23331WAT     H170235   4.236   8.138   0.464
23331WAT     H270236   4.358   8.199   0.375
23332WAT      O70237   8.282   6.937   4.951
23332WAT     H170238   8.355   6.946   4.884
23332WAT     H270239   8.289   7.010   5.019
23333WAT      O70240   3.534   2.537   3.323
23333WAT     H170241   3.617   2.533   3.268
23333WAT     H270242   3.505   2.444   3.348
23334WAT      O70243   4.188   8.913   5.865
23334WAT     H170244   4.171   8.837   5.802
23334WAT     H270245   4.239   8.879   5.944
23335WAT      O70246   9.841   7.186   4.464
23335WAT     H170247   9.941   7.186   4.457
23335WAT     H270248   9.808   7.092   4.464
23336WAT      O70249   4.035   4.314   1.709
23336WAT     H170250   4.083   4.294   1.795
23336WAT     H270251   4.078   4.393   1.665
23337WAT      O70252   0.566   5.231   1.901
23337WAT     H170253   0.550   5.246   1.999
23337WAT     H270254   0.581   5.134   1.884
23338WAT      O70255   5.905   6.092   8.039
23338WAT     H170256   5.888   6.007   8.090
23338WAT     H270257   5.856   6.089   7.952
23339WAT      O70258   6.289   2.314   5.585
23339WAT     H170259   6.288   2.285   5.681
23339WAT     H270260   6.353   2.389   5.574
23340WAT      O70261   7.203   5.994   0.154
23340WAT     H170262   7.168   5.917   0.207
23340WAT     H270263   7.237   6.064   0.217
23341WAT      O70264   0.923   4.961   8.140
23341WAT     H170265   0.995   5.027   8.161
23341WAT     H270266   0.911   4.954   8.041
23342WAT      O70267   5.220   2.662   9.416
23342WAT     H170268   5.262   2.617   9.338
23342WAT     H270269   5.206   2.595   9.490
23343WAT      O70270   2.169   6.054   3.301
23343WAT     H170271   2.218   6.127   3.255
23343WAT     H270272   2.226   5.971   3.301
23344WAT      O70273   4.253   4.578   5.554
23344WAT     H170274   4.193   4.498   5.553
23344WAT     H270275   4.215   4.648   5.494
23345WAT      O70276   5.475   0.259   0.075
23345WAT     H170277   5.474   0.175   0.130
23345WAT     H270278   5.520   0.332   0.125
23346WAT      O70279   1.036   5.675   6.339
23346WAT     H170280   1.090   5.607   6.290
23346WAT     H270281   1.016   5.752   6.277
23347WAT      O70282   2.544   3.627   7.547
23347WAT     H170283   2.459   3.648   7.499
23347WAT     H270284   2.535   3.650   7.643
23348WAT      O70285   3.852   2.007   1.785
23348WAT     H170286   3.808   2.058   1.859
23348WAT     H270287   3.950   2.026   1.785
23349WAT      O70288   5.332   2.814   8.624
23349WAT     H170289   5.349   2.717   8.639
23349WAT     H270290   5.236   2.828   8.604
23350WAT      O70291   9.669   5.167   4.804
23350WAT     H170292   9.759   5.124   4.811
23350WAT     H270293   9.628   5.145   4.715
23351WAT      O70294   1.893   3.008   6.618
23351WAT     H170295   1.953   2.946   6.569
23351WAT     H270296   1.799   2.997   6.586
23352WAT      O70297   2.966   6.714   3.482
23352WAT     H170298   3.005   6.787   3.538
23352WAT     H270299   2.869   6.732   3.466
23353WAT      O70300   8.326   5.250   1.209
23353WAT     H170301   8.298   5.189   1.284
23353WAT     H270302   8.417   5.223   1.176
23354WAT      O70303   2.534   4.428   3.625
23354WAT     H170304   2.443   4.464   3.642
23354WAT     H270305   2.529   4.359   3.552
23355WAT      O70306   7.810   2.181   4.212
23355WAT     H170307   7.838   2.196   4.307
23355WAT     H270308   7.874   2.229   4.151
23356WAT      O70309   9.554   3.550   6.726
23356WAT     H170310   9.627   3.489   6.757
23356WAT     H270311   9.512   3.594   6.805
23357WAT      O70312   6.406   1.215   1.165
23357WAT     H170313   6.375   1.308   1.143
23357WAT     H270314   6.438   1.211   1.259
23358WAT      O70315   8.077   7.309   4.537
23358WAT     H170316   8.173   7.317   4.512
23358WAT     H270317   8.061   7.221   4.582
23359WAT      O70318   6.691   6.096   0.341
23359WAT     H170319   6.676   6.195   0.339
23359WAT     H270320   6.616   6.049   0.296
23360WAT      O70321   1.258   6.264   8.230
23360WAT     H170322   1.327   6.282   8.160
23360WAT     H270323   1.237   6.349   8.279
23361WAT      O70324   0.618   1.084   7.788
23361WAT     H170325   0.604   1.177   7.753
23361WAT     H270326   0.674   1.087   7.871
23362WAT      O70327   4.317   2.630   7.389
23362WAT     H170328   4.381   2.649   7.315
23362WAT     H270329   4.231   2.680   7.373
23363WAT      O70330   0.266   1.938   7.830
23363WAT     H170331   0.275   2.037   7.841
23363WAT     H270332   0.171   1.916   7.806
23364WAT      O70333   8.186   9.258   1.913
23364WAT     H170334   8.271   9.217   1.882
23364WAT     H270335   8.137   9.194   1.972
23365WAT      O70336   5.789   7.856   8.812
23365WAT     H170337   5.726   7.836   8.737
23365WAT     H270338   5.811   7.772   8.861
23366WAT      O70339   5.282   1.409   9.190
23366WAT     H170340   5.274   1.365   9.101
23366WAT     H270341   5.221   1.364   9.255
23367WAT      O70342   3.828   4.423   6.250
23367WAT     H170343   3.830   4.463   6.341
23367WAT     H270344   3.918   4.386   6.227
23368WAT      O70345   9.057   7.783   1.212
23368WAT     H170346   9.148   7.747   1.192
23368WAT     H270347   9.003   7.786   1.128
23369WAT      O70348   8.356   0.548   0.144
23369WAT     H170349   8.361   0.565   0.242
23369WAT     H270350   8.261   0.557   0.113
23370WAT      O70351   1.122   2.776   5.534
23370WAT     H170352   1.146   2.682   5.507
23370WAT     H270353   1.206   2.827   5.554
23371WAT      O70354   0.160   6.285   9.727
23371WAT     H170355   0.110   6.211   9.683
23371WAT     H270356   0.138   6.286   9.825
23372WAT      O70357   4.096   0.144   3.590
23372WAT     H170358   4.076   0.187   3.502
23372WAT     H270359   4.127   0.050   3.575
23373WAT      O70360   1.096   7.852   0.193
23373WAT     H170361   1.022   7.919   0.189
23373WAT     H270362   1.118   7.822   0.100
23374WAT      O70363   5.763   5.362   6.134
23374WAT     H170364   5.763   5.364   6.034
23374WAT     H270365   5.760   5.455   6.170
23375WAT      O70366   0.191   7.504   6.411
23375WAT     H170367   0.205   7.405   6.419
23375WAT     H270368   0.093   7.523   6.407
23376WAT      O70369   5.731   7.694   5.450
23376WAT     H170370   5.720   7.599   5.477
23376WAT     H270371   5.641   7.738   5.444
23377WAT      O70372   8.312   6.629   6.367
23377WAT     H170373   8.294   6.541   6.411
23377WAT     H270374   8.308   6.618   6.268
23378WAT      O70375   1.443   0.318   2.449
23378WAT     H170376   1.494   0.376   2.512
23378WAT     H270377   1.432   0.227   2.488
23379WAT      O70378   8.820   8.703   3.549
23379WAT     H170379   8.843   8.750   3.464
23379WAT     H270380   8.727   8.729   3.577
23380WAT      O70381   6.981   3.206   5.604
23380WAT     H170382   6.881   3.208   5.593
23380WAT     H270383   7.023   3.177   5.518
23381WAT      O70384   7.259   4.550   2.704
23381WAT     H170385   7.343   4.604   2.702
23381WAT     H270386   7.245   4.508   2.614
23382WAT      O70387   6.895   5.543   4.938
23382WAT     H170388   6.942   5.455   4.941
23382WAT     H270389   6.813   5.535   4.881
23383WAT      O70390   4.404   5.669   1.840
23383WAT     H170391   4.501   5.668   1.817
23383WAT     H270392   4.352   5.626   1.767
23384WAT      O70393   8.071   0.384   6.141
23384WAT     H170394   8.029   0.307   6.094
23384WAT     H270395   8.076   0.365   6.239
23385WAT      O70396   3.980   8.404   8.416
23385WAT     H170397   3.989   8.463   8.496
23385WAT     H270398   4.018   8.314   8.436
23386WAT      O70399   7.517   7.437   7.410
23386WAT     H170400   7.513   7.524   7.459
23386WAT     H270401   7.515   7.454   7.312
23387WAT      O70402   7.917   9.649   6.115
23387WAT     H170403   7.939   9.675   6.021
23387WAT     H270404   7.912   9.731   6.172
23388WAT      O70405   5.224   1.859   5.538
23388WAT     H170406   5.161   1.921   5.585
23388WAT     H270407   5.230   1.885   5.441
23389WAT      O70408   1.246   1.871   0.177
23389WAT     H170409   1.161   1.822   0.199
23389WAT     H270410   1.250   1.955   0.231
23390WAT      O70411   9.266   5.908   7.283
23390WAT     H170412   9.283   5.969   7.206
23390WAT     H270413   9.313   5.943   7.364
23391WAT      O70414   8.761   7.721   5.856
23391WAT     H170415   8.689   7.746   5.920
23391WAT     H270416   8.729   7.736   5.762
23392WAT      O70417   1.424   0.490   5.541
23392WAT     H170418   1.485   0.567   5.523
23392WAT     H270419   1.455   0.441   5.623
23393WAT      O70420   4.710   2.067   8.045
23393WAT     H170421   4.711   2.058   7.945
23393WAT     H270422   4.616   2.056   8.078
23394WAT      O70423   2.099   3.586   3.084
23394WAT     H170424   2.080   3.604   2.987
23394WAT     H270425   2.058   3.658   3.140
23395WAT      O70426   6.619   6.734   4.910
23395WAT     H170427   6.540   6.683   4.947
23395WAT     H270428   6.673   6.770   4.986
23396WAT      O70429   8.332   4.023   3.785
23396WAT     H170430   8.429   4.007   3.802
23396WAT     H270431   8.310   4.119   3.807
23397WAT      O70432   9.539   5.303   0.071
23397WAT     H170433   9.611   5.292   0.002
23397WAT     H270434   9.510   5.213   0.103
23398WAT      O70435   6.332   4.192   4.554
23398WAT     H170436   6.365   4.100   4.532
23398WAT     H270437   6.256   4.216   4.494
23399WAT      O70438   1.707   7.326   3.651
23399WAT     H170439   1.770   7.257   3.688
23399WAT     H270440   1.616   7.285   3.640
23400WAT      O70441   1.338   8.039   0.182
23400WAT     H170442   1.260   8.073   0.233
23400WAT     H270443   1.363   7.949   0.215
23401WAT      O70444   2.821   0.226   5.673
23401WAT     H170445   2.748   0.279   5.629
23401WAT     H270446   2.781   0.159   5.735
23402WAT      O70447   5.260   4.201   2.677
23402WAT     H170448   5.185   4.200   2.743
23402WAT     H270449   5.347   4.210   2.725
23403WAT      O70450   0.611   2.063   6.329
23403WAT     H170451   0.562   1.982   6.296
23403WAT     H270452   0.545   2.133   6.356
23404WAT      O70453   7.217   7.927   0.440
23404WAT     H170454   7.262   7.909   0.353
23404WAT     H270455   7.273   7.889   0.514
23405WAT      O70456   2.757   0.351   0.057
23405WAT     H170457   2.789   0.360   0.152
23405WAT     H270458   2.670   0.302   0.056
23406WAT      O70459   2.239   1.483   5.813
23406WAT     H170460   2.291   1.499   5.730
23406WAT     H270461   2.299   1.442   5.882
23407WAT      O70462   0.983   8.856   4.952
23407WAT     H170463   0.937   8.882   5.037
23407WAT     H270464   0.916   8.826   4.885
23408WAT      O70465   8.815   8.728   8.706
23408WAT     H170466   8.841   8.644   8.753
23408WAT     H270467   8.742   8.774   8.758
23409WAT      O70468   1.894   6.448   1.268
23409WAT     H170469   1.866   6.357   1.239
23409WAT     H270470   1.936   6.496   1.191
23410WAT      O70471   2.646   4.519   2.107
23410WAT     H170472   2.642   4.542   2.010
23410WAT     H270473   2.741   4.516   2.137
23411WAT      O70474   9.610   1.265   9.760
23411WAT     H170475   9.618   1.329   9.683
23411WAT     H270476   9.527   1.210   9.749
23412WAT      O70477   5.628   6.037   1.221
23412WAT     H170478   5.668   5.987   1.144
23412WAT     H270479   5.539   5.999   1.243
23413WAT      O70480   9.318   0.239   5.750
23413WAT     H170481   9.246   0.170   5.738
23413WAT     H270482   9.406   0.193   5.763
23414WAT      O70483   8.462   9.444   8.010
23414WAT     H170484   8.407   9.460   8.092
23414WAT     H270485   8.491   9.531   7.971
23415WAT      O70486   3.197   7.814   1.020
23415WAT     H170487   3.202   7.847   1.114
23415WAT     H270488   3.152   7.725   1.018
23416WAT      O70489   1.002   1.979   1.078
23416WAT     H170490   1.086   1.997   1.128
23416WAT     H270491   0.940   2.057   1.088
23417WAT      O70492   3.236   1.475   0.865
23417WAT     H170493   3.139   1.492   0.883
23417WAT     H270494   3.246   1.384   0.823
23418WAT      O70495   0.012   6.761   1.896
23418WAT     H170496   0.105   6.775   1.863
23418WAT     H270497   0.014   6.731   1.991
23419WAT      O70498   8.929   3.035   7.110
23419WAT     H170499   8.991   3.111   7.089
23419WAT     H270500   8.841   3.072   7.140
23420WAT      O70501   7.500   1.240   2.604
23420WAT     H170502   7.518   1.142   2.604
23420WAT     H270503   7.402   1.257   2.596
23421WAT      O70504   5.582   3.566   8.474
23421WAT     H170505   5.632   3.519   8.402
23421WAT     H270506   5.484   3.548   8.465
23422WAT      O70507   9.227   0.384   0.588
23422WAT     H170508   9.206   0.294   0.549
23422WAT     H270509   9.325   0.391   0.603
23423WAT      O70510   4.257   2.061   0.658
23423WAT     H170511   4.324   2.009   0.710
23423WAT     H270512   4.233   2.144   0.707
23424WAT      O70513   1.814   1.823   9.437
23424WAT     H170514   1.715   1.809   9.426
23424WAT     H270515   1.830   1.905   9.491
23425WAT      O70516   1.143   8.771   1.449
23425WAT     H170517   1.107   8.805   1.535
23425WAT     H270518   1.238   8.800   1.438
23426WAT      O70519   2.105   7.514   8.517
23426WAT     H170520   2.183   7.547   8.570
23426WAT     H270521   2.113   7.415   8.505
23427WAT      O70522   4.024   3.923   7.942
23427WAT     H170523   3.972   4.004   7.914
23427WAT     H270524   4.103   3.951   7.996
23428WAT      O70525   9.876   6.496   2.869
23428WAT     H170526   9.837   6.587   2.878
23428WAT     H270527   9.915   6.485   2.777
23429WAT      O70528   2.276   1.368   9.647
23429WAT     H170529   2.236   1.292   9.595
23429WAT     H270530   2.260   1.454   9.599
23430WAT      O70531   2.459   9.714   1.328
23430WAT     H170532   2.437   9.616   1.322
23430WAT     H270533   2.376   9.767   1.309
23431WAT      O70534   8.111   2.868   1.618
23431WAT     H170535   8.159   2.821   1.544
23431WAT     H270536   8.171   2.939   1.657
23432WAT      O70537   9.745   1.161   4.251
23432WAT     H170538   9.704   1.085   4.200
23432WAT     H270539   9.672   1.213   4.296
23433WAT      O70540   9.252   2.200   3.574
23433WAT     H170541   9.327   2.146   3.535
23433WAT     H270542   9.205   2.145   3.644
23434WAT      O70543   2.843   5.207   2.254
23434WAT     H170544   2.833   5.214   2.353
23434WAT     H270545   2.768   5.153   2.217
23435WAT      O70546   2.007   2.334   8.164
23435WAT     H170547   2.095   2.370   8.195
23435WAT     H270548   1.935   2.401   8.179
23436WAT      O70549   0.790   2.967   2.234
23436WAT     H170550   0.792   3.065   2.257
23436WAT     H270551   0.861   2.919   2.285
23437WAT      O70552   3.745   6.719   7.124
23437WAT     H170553   3.740   6.745   7.220
23437WAT     H270554   3.785   6.628   7.116
23438WAT      O70555   3.090   4.880   1.603
23438WAT     H170556   3.032   4.952   1.642
23438WAT     H270557   3.084   4.798   1.661
23439WAT      O70558   5.751   6.336   0.452
23439WAT     H170559   5.790   6.361   0.363
23439WAT     H270560   5.675   6.397   0.474
23440WAT      O70561   7.832   8.778   6.838
23440WAT     H170562   7.770   8.781   6.761
23440WAT     H270563   7.851   8.872   6.869
23441WAT      O70564   1.773   4.539   3.749
23441WAT     H170565   1.737   4.490   3.829
23441WAT     H270566   1.699   4.587   3.702
23442WAT      O70567   5.501   7.483   2.919
23442WAT     H170568   5.512   7.495   2.820
23442WAT     H270569   5.513   7.571   2.965
23443WAT      O70570   3.966   3.770   0.170
23443WAT     H170571   4.038   3.701   0.178
23443WAT     H270572   3.989   3.834   0.097
23444WAT      O70573   5.471   0.614   3.593
23444WAT     H170574   5.517   0.598   3.505
23444WAT     H270575   5.396   0.549   3.604
23445WAT      O70576   5.162   9.143   3.364
23445WAT     H170577   5.079   9.148   3.308
23445WAT     H270578   5.137   9.138   3.461
23446WAT      O70579   9.169   6.894   3.017
23446WAT     H170580   9.141   6.832   2.944
23446WAT     H270581   9.202   6.979   2.976
23447WAT      O70582   6.131   0.125   1.647
23447WAT     H170583   6.044   0.169   1.669
23447WAT     H270584   6.203   0.195   1.637
23448WAT      O70585   7.880   5.074   8.559
23448WAT     H170586   7.831   5.154   8.591
23448WAT     H270587   7.950   5.101   8.493
23449WAT      O70588   5.049   7.951   2.973
23449WAT     H170589   4.971   7.951   3.036
23449WAT     H270590   5.048   8.034   2.919
23450WAT      O70591   3.574   8.243   4.905
23450WAT     H170592   3.642   8.182   4.864
23450WAT     H270593   3.607   8.337   4.900
23451WAT      O70594   5.969   7.992   3.246
23451WAT     H170595   5.916   8.069   3.212
23451WAT     H270596   6.005   8.013   3.337
23452WAT      O70597   3.048   2.083   1.396
23452WAT     H170598   3.099   2.166   1.417
23452WAT     H270599   2.974   2.104   1.332
23453WAT      O70600   1.349   4.149   2.679
23453WAT     H170601   1.316   4.241   2.662
23453WAT     H270602   1.448   4.145   2.662
23454WAT      O70603   4.547   0.639   6.894
23454WAT     H170604   4.476   0.597   6.951
23454WAT     H270605   4.633   0.641   6.944
23455WAT      O70606   5.706   2.255   2.378
23455WAT     H170607   5.634   2.188   2.396
23455WAT     H270608   5.699   2.287   2.284
23456WAT      O70609   6.786   3.815   7.314
23456WAT     H170610   6.880   3.786   7.330
23456WAT     H270611   6.783   3.879   7.237
23457WAT      O70612   1.617   1.564   4.614
23457WAT     H170613   1.593   1.577   4.518
23457WAT     H270614   1.636   1.653   4.655
23458WAT      O70615   2.127   0.165   6.940
23458WAT     H170616   2.204   0.112   6.975
23458WAT     H270617   2.103   0.236   7.007
23459WAT      O70618   5.527   3.781   0.872
23459WAT     H170619   5.518   3.846   0.796
23459WAT     H270620   5.439   3.775   0.921
23460WAT      O70621   4.310   8.228   7.187
23460WAT     H170622   4.289   8.206   7.283
23460WAT     H270623   4.245   8.296   7.154
23461WAT      O70624   1.357   6.776   1.842
23461WAT     H170625   1.339   6.874   1.830
23461WAT     H270626   1.322   6.747   1.931
23462WAT      O70627   9.478   3.291   1.931
23462WAT     H170628   9.402   3.356   1.942
23462WAT     H270629   9.554   3.320   1.989
23463WAT      O70630   8.688   4.217   8.030
23463WAT     H170631   8.655   4.138   7.977
23463WAT     H270632   8.639   4.223   8.116
23464WAT      O70633   1.046   5.967   1.157
23464WAT     H170634   1.103   5.884   1.151
23464WAT     H270635   0.972   5.962   1.091
23465WAT      O70636   7.866   8.171   4.714
23465WAT     H170637   7.853   8.072   4.717
23465WAT     H270638   7.807   8.214   4.783
23466WAT      O70639   0.111   0.744   2.964
23466WAT     H170640   0.045   0.797   3.017
23466WAT     H270641   0.160   0.682   3.025
23467WAT      O70642   9.336   9.442   5.484
23467WAT     H170643   9.330   9.383   5.565
23467WAT     H270644   9.244   9.464   5.453
23468WAT      O70645   2.745   5.357   6.629
23468WAT     H170646   2.766   5.330   6.535
23468WAT     H270647   2.755   5.278   6.689
23469WAT      O70648   9.014   3.811   0.855
23469WAT     H170649   9.032   3.881   0.925
23469WAT     H270650   8.930   3.834   0.807
23470WAT      O70651   6.958   5.804   7.233
23470WAT     H170652   7.056   5.822   7.227
23470WAT     H270653   6.941   5.739   7.307
23471WAT      O70654   3.316   7.537   4.397
23471WAT     H170655   3.218   7.552   4.395
23471WAT     H270656   3.358   7.601   4.462
23472WAT      O70657   3.729   7.726   7.118
23472WAT     H170658   3.735   7.815   7.072
23472WAT     H270659   3.633   7.703   7.132
23473WAT      O70660   9.025   8.674   1.841
23473WAT     H170661   9.022   8.598   1.776
23473WAT     H270662   8.949   8.666   1.905
23474WAT      O70663   1.197   6.965   3.272
23474WAT     H170664   1.122   6.962   3.206
23474WAT     H270665   1.216   6.872   3.305
23475WAT      O70666   9.737   0.740   3.332
23475WAT     H170667   9.806   0.672   3.357
23475WAT     H270668   9.647   0.697   3.326
23476WAT      O70669   0.254   7.076   0.423
23476WAT     H170670   0.239   7.010   0.349
23476WAT     H270671   0.166   7.116   0.450
23477WAT      O70672   4.170   8.240   8.048
23477WAT     H170673   4.160   8.328   8.002
23477WAT     H270674   4.228   8.251   8.129
23478WAT      O70675   9.528   7.124   8.984
23478WAT     H170676   9.500   7.092   9.074
23478WAT     H270677   9.448   7.148   8.930
23479WAT      O70678   5.006   0.031   4.909
23479WAT     H170679   5.048   0.055   4.996
23479WAT     H270680   4.907   0.040   4.915
23480WAT      O70681   7.861   3.530   1.006
23480WAT     H170682   7.763   3.545   1.014
23480WAT     H270683   7.879   3.434   0.984
23481WAT      O70684   5.304   5.579   7.066
23481WAT     H170685   5.230   5.512   7.075
23481WAT     H270686   5.391   5.537   7.092
23482WAT      O70687   4.217   6.532   0.762
23482WAT     H170688   4.166   6.590   0.700
23482WAT     H270689   4.167   6.521   0.848
23483WAT      O70690   8.944   3.513   2.831
23483WAT     H170691   8.893   3.437   2.872
23483WAT     H270692   8.918   3.522   2.735
23484WAT      O70693   3.943   0.567   3.488
23484WAT     H170694   3.900   0.515   3.414
23484WAT     H270695   3.872   0.601   3.550
23485WAT      O70696   1.850   1.223   1.406
23485WAT     H170697   1.917   1.223   1.333
23485WAT     H270698   1.758   1.235   1.368
23486WAT      O70699   7.167   8.153   3.088
23486WAT     H170700   7.159   8.249   3.114
23486WAT     H270701   7.088   8.126   3.033
23487WAT      O70702   7.487   1.592   6.919
23487WAT     H170703   7.585   1.603   6.935
23487WAT     H270704   7.468   1.598   6.821
23488WAT      O70705   7.632   0.389   9.068
23488WAT     H170706   7.589   0.464   9.017
23488WAT     H270707   7.692   0.428   9.138
23489WAT      O70708   7.050   6.167   6.276
23489WAT     H170709   7.055   6.096   6.346
23489WAT     H270710   7.019   6.253   6.317
23490WAT      O70711   1.532   5.962   7.111
23490WAT     H170712   1.609   5.904   7.140
23490WAT     H270713   1.552   6.057   7.133
23491WAT      O70714   0.523   4.756   7.943
23491WAT     H170715   0.429   4.725   7.935
23491WAT     H270716   0.537   4.799   8.032
23492WAT      O70717   1.001   5.364   2.104
23492WAT     H170718   1.000   5.325   2.196
23492WAT     H270719   0.911   5.402   2.083
23493WAT      O70720   1.306   9.526   1.878
23493WAT     H170721   1.318   9.625   1.881
23493WAT     H270722   1.378   9.481   1.932
23494WAT      O70723   5.757   5.329   2.060
23494WAT     H170724   5.795   5.249   2.106
23494WAT     H270725   5.689   5.372   2.119
23495WAT      O70726   5.561   2.507   2.061
23495WAT     H170727   5.470   2.472   2.085
23495WAT     H270728   5.554   2.566   1.981
23496WAT      O70729   5.848   4.187   4.540
23496WAT     H170730   5.768   4.138   4.575
23496WAT     H270731   5.926   4.125   4.534
23497WAT      O70732   4.220   7.317   8.710
23497WAT     H170733   4.157   7.384   8.672
23497WAT     H270734   4.313   7.354   8.709
23498WAT      O70735   1.171   2.004   3.152
23498WAT     H170736   1.256   1.957   3.128
23498WAT     H270737   1.173   2.032   3.248
23499WAT      O70738   9.725   0.640   4.802
23499WAT     H170739   9.694   0.558   4.851
23499WAT     H270740   9.766   0.704   4.867
23500WAT      O70741   7.089   3.022   7.441
23500WAT     H170742   7.039   2.960   7.502
23500WAT     H270743   7.184   3.027   7.470
23501WAT      O70744   3.256   6.851   3.998
23501WAT     H170745   3.264   6.944   4.035
23501WAT     H270746   3.171   6.843   3.946
23502WAT      O70747   6.099   4.119   3.165
23502WAT     H170748   6.153   4.041   3.194
23502WAT     H270749   6.016   4.125   3.220
23503WAT      O70750   0.145   8.476   1.239
23503WAT     H170751   0.083   8.415   1.289
23503WAT     H270752   0.094   8.523   1.167
23504WAT      O70753   2.021   2.248   6.425
23504WAT     H170754   2.030   2.264   6.326
23504WAT     H270755   2.009   2.336   6.472
23505WAT      O70756   3.390   6.751   1.327
23505WAT     H170757   3.445   6.668   1.320
23505WAT     H270758   3.314   6.748   1.262
23506WAT      O70759   6.576   5.394   8.607
23506WAT     H170760   6.580   5.493   8.618
23506WAT     H270761   6.642   5.365   8.538
23507WAT      O70762   7.648   3.578   4.757
23507WAT     H170763   7.681   3.665   4.720
23507WAT     H270764   7.549   3.575   4.753
23508WAT      O70765   7.902   6.390   2.334
23508WAT     H170766   7.818   6.354   2.374
23508WAT     H270767   7.944   6.456   2.396
23509WAT      O70768   7.322   8.943   0.226
23509WAT     H170769   7.257   8.941   0.302
23509WAT     H270770   7.403   8.995   0.253
23510WAT      O70771   3.010   3.025   6.068
23510WAT     H170772   3.088   3.084   6.045
23510WAT     H270773   2.985   3.039   6.164
23511WAT      O70774   3.182   7.088   0.134
23511WAT     H170775   3.157   7.085   0.231
23511WAT     H270776   3.280   7.070   0.124
23512WAT      O70777   8.511   9.421   4.638
23512WAT     H170778   8.510   9.468   4.726
23512WAT     H270779   8.553   9.331   4.650
23513WAT      O70780   2.710   9.058   7.361
23513WAT     H170781   2.684   9.075   7.456
23513WAT     H270782   2.635   9.014   7.313
23514WAT      O70783   4.830   5.300   3.469
23514WAT     H170784   4.929   5.293   3.459
23514WAT     H270785   4.793   5.210   3.496
23515WAT      O70786   0.181   0.543   1.235
23515WAT     H170787   0.268   0.554   1.186
23515WAT     H270788   0.169   0.447   1.261
23516WAT      O70789   8.197   9.569   8.469
23516WAT     H170790   8.172   9.665   8.454
23516WAT     H270791   8.288   9.565   8.510
23517WAT      O70792   3.148   6.947   7.393
23517WAT     H170793   3.182   6.853   7.404
23517WAT     H270794   3.064   6.957   7.447
23518WAT      O70795   9.160   4.657   4.197
23518WAT     H170796   9.135   4.741   4.244
23518WAT     H270797   9.137   4.579   4.256
23519WAT      O70798   2.421   7.038   0.542
23519WAT     H170799   2.485   7.051   0.466
23519WAT     H270800   2.433   6.946   0.580
23520WAT      O70801   6.416   5.773   2.621
23520WAT     H170802   6.342   5.753   2.558
23520WAT     H270803   6.420   5.871   2.639
23521WAT      O70804   1.428   8.684   0.480
23521WAT     H170805   1.504   8.652   0.538
23521WAT     H270806   1.436   8.783   0.468
23522WAT      O70807   3.741   0.508   4.327
23522WAT     H170808   3.674   0.555   4.269
23522WAT     H270809   3.701   0.491   4.417
23523WAT      O70810   4.674   3.367   5.583
23523WAT     H170811   4.608   3.397   5.515
23523WAT     H270812   4.637   3.290   5.635
23524WAT      O70813   4.918   9.004   1.925
23524WAT     H170814   4.985   9.076   1.907
23524WAT     H270815   4.898   8.955   1.841
23525WAT      O70816   3.914   5.521   0.233
23525WAT     H170817   3.965   5.557   0.311
23525WAT     H270818   3.911   5.421   0.239
23526WAT      O70819   7.399   9.804   2.407
23526WAT     H170820   7.347   9.870   2.352
23526WAT     H270821   7.389   9.828   2.504
23527WAT      O70822   7.657   9.423   0.494
23527WAT     H170823   7.729   9.458   0.554
23527WAT     H270824   7.678   9.329   0.468
23528WAT      O70825   7.920   7.688   0.602
23528WAT     H170826   7.994   7.752   0.582
23528WAT     H270827   7.955   7.610   0.654
23529WAT      O70828   7.830   4.860   9.284
23529WAT     H170829   7.896   4.915   9.234
23529WAT     H270830   7.761   4.825   9.220
23530WAT      O70831   4.736   9.279   0.560
23530WAT     H170832   4.793   9.349   0.517
23530WAT     H270833   4.652   9.267   0.507
23531WAT      O70834   8.010   4.199   2.060
23531WAT     H170835   8.085   4.148   2.019
23531WAT     H270836   7.944   4.135   2.100
23532WAT      O70837   0.484   1.922   3.069
23532WAT     H170838   0.552   1.992   3.090
23532WAT     H270839   0.400   1.967   3.038
23533WAT      O70840   6.254   3.720   4.840
23533WAT     H170841   6.342   3.679   4.816
23533WAT     H270842   6.266   3.780   4.919
23534WAT      O70843   2.828   0.137   8.901
23534WAT     H170844   2.730   0.123   8.894
23534WAT     H270845   2.871   0.117   8.813
23535WAT      O70846   6.778   9.470   8.197
23535WAT     H170847   6.744   9.492   8.105
23535WAT     H270848   6.859   9.412   8.189
23536WAT      O70849   8.033   8.181   2.060
23536WAT     H170850   8.107   8.119   2.036
23536WAT     H270851   7.950   8.128   2.079
23537WAT      O70852   4.019   4.912   3.143
23537WAT     H170853   4.104   4.964   3.152
23537WAT     H270854   3.976   4.934   3.056
23538WAT      O70855   5.504   4.434   3.239
23538WAT     H170856   5.444   4.496   3.288
23538WAT     H270857   5.478   4.339   3.258
23539WAT      O70858   0.661   6.850   9.416
23539WAT     H170859   0.643   6.939   9.376
23539WAT     H270860   0.594   6.830   9.487
23540WAT      O70861   8.809   1.493   1.143
23540WAT     H170862   8.865   1.468   1.064
23540WAT     H270863   8.841   1.580   1.181
23541WAT      O70864   5.662   9.527   9.113
23541WAT     H170865   5.758   9.531   9.085
23541WAT     H270866   5.656   9.545   9.211
23542WAT      O70867   8.342   1.950   5.299
23542WAT     H170868   8.413   1.998   5.350
23542WAT     H270869   8.252   1.975   5.336
23543WAT      O70870   8.994   7.652   4.076
23543WAT     H170871   8.997   7.635   4.175
23543WAT     H270872   8.906   7.623   4.040
23544WAT      O70873   7.366   2.124   5.513
23544WAT     H170874   7.372   2.117   5.413
23544WAT     H270875   7.421   2.202   5.544
23545WAT      O70876   8.414   7.071   1.874
23545WAT     H170877   8.508   7.098   1.850
23545WAT     H270878   8.351   7.145   1.851
23546WAT      O70879   4.084   1.508   4.924
23546WAT     H170880   4.091   1.579   4.994
23546WAT     H270881   4.024   1.434   4.956
23547WAT      O70882   4.930   9.200   8.603
23547WAT     H170883   4.972   9.244   8.682
23547WAT     H270884   4.991   9.129   8.568
23548WAT      O70885   6.568   5.349   0.896
23548WAT     H170886   6.521   5.307   0.974
23548WAT     H270887   6.665   5.361   0.918
23549WAT      O70888   8.096   4.867   2.627
23549WAT     H170889   8.082   4.956   2.671
23549WAT     H270890   8.011   4.813   2.634
23550WAT      O70891   4.592   5.891   2.501
23550WAT     H170892   4.528   5.956   2.542
23550WAT     H270893   4.643   5.936   2.428
23551WAT      O70894   3.188   2.937   2.393
23551WAT     H170895   3.170   2.981   2.305
23551WAT     H270896   3.195   3.007   2.464
23552WAT      O70897   7.297   7.606   6.124
23552WAT     H170898   7.365   7.565   6.185
23552WAT     H270899   7.273   7.697   6.158
23553WAT      O70900   0.496   1.135   7.376
23553WAT     H170901   0.448   1.066   7.430
23553WAT     H270902   0.545   1.091   7.301
23554WAT      O70903   5.794   7.788   6.857
23554WAT     H170904   5.767   7.734   6.777
23554WAT     H270905   5.717   7.792   6.921
23555WAT      O70906   1.336   8.614   1.745
23555WAT     H170907   1.374   8.656   1.662
23555WAT     H270908   1.394   8.538   1.774
23556WAT      O70909   5.542   4.421   7.774
23556WAT     H170910   5.619   4.484   7.765
23556WAT     H270911   5.480   4.433   7.696
23557WAT      O70912   5.256   6.177   3.655
23557WAT     H170913   5.248   6.155   3.558
23557WAT     H270914   5.233   6.096   3.709
23558WAT      O70915   9.840   0.897   5.407
23558WAT     H170916   9.916   0.961   5.399
23558WAT     H270917   9.872   0.805   5.386
23559WAT      O70918   6.583   3.233   1.297
23559WAT     H170919   6.603   3.264   1.390
23559WAT     H270920   6.528   3.302   1.250
23560WAT      O70921   1.477   8.786   7.732
23560WAT     H170922   1.467   8.885   7.737
23560WAT     H270923   1.420   8.751   7.657
23561WAT      O70924   5.697   8.950   7.209
23561WAT     H170925   5.598   8.954   7.221
23561WAT     H270926   5.742   9.002   7.281
23562WAT      O70927   1.374   8.329   3.960
23562WAT     H170928   1.386   8.422   3.925
23562WAT     H270929   1.276   8.309   3.969
23563WAT      O70930   4.061   6.047   7.322
23563WAT     H170931   4.041   5.953   7.350
23563WAT     H270932   4.155   6.070   7.350
23564WAT      O70933   3.256   2.191   1.588
23564WAT     H170934   3.206   2.261   1.639
23564WAT     H270935   3.330   2.233   1.536
23565WAT      O70936   9.099   2.024   2.861
23565WAT     H170937   9.148   2.098   2.907
23565WAT     H270938   9.158   1.943   2.857
23566WAT      O70939   8.962   2.169   6.921
23566WAT     H170940   8.997   2.076   6.930
23566WAT     H270941   9.030   2.234   6.955
23567WAT      O70942   5.085   0.155   7.681
23567WAT     H170943   5.042   0.093   7.747
23567WAT     H270944   5.066   0.124   7.588
23568WAT      O70945   8.840   6.479   7.981
23568WAT     H170946   8.904   6.555   7.991
23568WAT     H270947   8.805   6.454   8.071
23569WAT      O70948   9.564   8.389   1.709
23569WAT     H170949   9.509   8.470   1.728
23569WAT     H270950   9.506   8.308   1.710
23570WAT      O70951   0.405   4.945   6.856
23570WAT     H170952   0.364   4.870   6.804
23570WAT     H270953   0.338   5.017   6.871
23571WAT      O70954   5.352   0.013   8.241
23571WAT     H170955   5.404   0.080   8.294
23571WAT     H270956   5.400  -0.074   8.240
23572WAT      O70957   5.853   3.553   4.647
23572WAT     H170958   5.864   3.609   4.565
23572WAT     H270959   5.759   3.557   4.678
23573WAT      O70960   9.278   8.130   6.902
23573WAT     H170961   9.225   8.056   6.944
23573WAT     H270962   9.302   8.198   6.970
23574WAT      O70963   3.161   6.001   7.312
23574WAT     H170964   3.199   5.963   7.228
23574WAT     H270965   3.084   6.061   7.290
23575WAT      O70966   3.988   3.770   8.214
23575WAT     H170967   3.903   3.744   8.259
23575WAT     H270968   3.983   3.865   8.183
23576WAT      O70969   3.942   6.429   4.392
23576WAT     H170970   3.929   6.354   4.458
23576WAT     H270971   3.960   6.514   4.441
23577WAT      O70972   0.025   6.530   3.174
23577WAT     H170973   0.055   6.437   3.192
23577WAT     H270974   0.104   6.591   3.165
23578WAT      O70975   8.195   2.504   9.862
23578WAT     H170976   8.207   2.449   9.779
23578WAT     H270977   8.282   2.509   9.912
23579WAT      O70978   7.571   6.154   5.843
23579WAT     H170979   7.475   6.143   5.870
23579WAT     H270980   7.627   6.089   5.894
23580WAT      O70981   5.256   4.908   8.206
23580WAT     H170982   5.238   4.843   8.279
23580WAT     H270983   5.354   4.923   8.198
23581WAT      O70984   0.087   8.027   6.771
23581WAT     H170985   0.150   7.951   6.753
23581WAT     H270986   0.130   8.092   6.834
23582WAT      O70987   3.767   9.843   0.738
23582WAT     H170988   3.681   9.808   0.701
23582WAT     H270989   3.843   9.812   0.680
23583WAT      O70990   4.030   6.079   1.462
23583WAT     H170991   3.995   5.985   1.452
23583WAT     H270992   4.129   6.077   1.477
23584WAT      O70993   9.110   6.622   0.947
23584WAT     H170994   9.125   6.688   0.874
23584WAT     H270995   9.193   6.569   0.963
23585WAT      O70996   9.713   2.972   4.026
23585WAT     H170997   9.663   2.934   3.948
23585WAT     H270998   9.810   2.980   4.004
23586WAT      O70999   9.783   8.384   5.854
23586WAT     H171000   9.866   8.423   5.892
23586WAT     H271001   9.713   8.376   5.925
23587WAT      O71002   2.845   1.545   5.733
23587WAT     H171003   2.897   1.463   5.709
23587WAT     H271004   2.847   1.558   5.832
23588WAT      O71005   5.531   6.273   5.888
23588WAT     H171006   5.539   6.372   5.899
23588WAT     H271007   5.449   6.240   5.935
23589WAT      O71008   8.739   7.489   1.706
23589WAT     H171009   8.697   7.566   1.658
23589WAT     H271010   8.812   7.450   1.650
23590WAT      O71011   3.044   4.666   9.222
23590WAT     H171012   3.123   4.685   9.164
23590WAT     H271013   3.069   4.601   9.293
23591WAT      O71014   5.389   2.523   9.264
23591WAT     H171015   5.428   2.486   9.348
23591WAT     H271016   5.383   2.451   9.195
23592WAT      O71017   0.838   0.211   3.485
23592WAT     H171018   0.785   0.287   3.448
23592WAT     H271019   0.935   0.236   3.485
23593WAT      O71020   7.503   7.911   5.372
23593WAT     H171021   7.404   7.899   5.368
23593WAT     H271022   7.536   7.886   5.463
23594WAT      O71023   6.770   0.302   6.366
23594WAT     H171024   6.718   0.335   6.287
23594WAT     H271025   6.837   0.371   6.393
23595WAT      O71026   6.557   3.794   3.423
23595WAT     H171027   6.608   3.709   3.411
23595WAT     H271028   6.467   3.774   3.462
23596WAT      O71029   4.156   0.640   4.639
23596WAT     H171030   4.246   0.676   4.616
23596WAT     H271031   4.090   0.664   4.567
23597WAT      O71032   4.966   1.008   9.347
23597WAT     H171033   4.901   1.084   9.339
23597WAT     H271034   5.057   1.044   9.367
23598WAT      O71035   0.220   5.797   8.904
23598WAT     H171036   0.242   5.798   8.806
23598WAT     H271037   0.125   5.766   8.916
23599WAT      O71038   7.199   2.458   0.923
23599WAT     H171039   7.206   2.463   0.824
23599WAT     H271040   7.290   2.455   0.963
23600WAT      O71041   3.298   5.989   4.034
23600WAT     H171042   3.277   6.070   3.979
23600WAT     H271043   3.268   5.907   3.985
23601WAT      O71044   9.764   4.186   7.492
23601WAT     H171045   9.755   4.282   7.469
23601WAT     H271046   9.730   4.170   7.585
23602WAT      O71047   6.932   6.382   9.880
23602WAT     H171048   6.910   6.396   9.977
23602WAT     H271049   6.970   6.290   9.868
23603WAT      O71050   0.117   6.280   0.121
23603WAT     H171051   0.082   6.312   0.209
23603WAT     H271052   0.214   6.259   0.130
23604WAT      O71053   6.296   2.863   8.203
23604WAT     H171054   6.346   2.840   8.286
23604WAT     H271055   6.352   2.923   8.146
23605WAT      O71056   4.939   2.447   5.746
23605WAT     H171057   5.026   2.400   5.734
23605WAT     H271058   4.947   2.513   5.820
23606WAT      O71059   9.726   4.683   5.276
23606WAT     H171060   9.756   4.590   5.254
23606WAT     H271061   9.626   4.687   5.275
23607WAT      O71062   8.673   0.289   7.980
23607WAT     H171063   8.743   0.288   8.051
23607WAT     H271064   8.615   0.208   7.988
23608WAT      O71065   2.046   7.705   2.629
23608WAT     H171066   2.077   7.700   2.534
23608WAT     H271067   1.947   7.717   2.632
23609WAT      O71068   1.965   9.367   8.468
23609WAT     H171069   2.024   9.441   8.502
23609WAT     H271070   1.870   9.390   8.488
23610WAT      O71071   2.015   7.721   8.211
23610WAT     H171072   1.959   7.695   8.290
23610WAT     H271073   2.105   7.752   8.243
23611WAT      O71074   0.210   5.909   2.179
23611WAT     H171075   0.136   5.900   2.246
23611WAT     H271076   0.290   5.950   2.222
23612WAT      O71077   4.733   6.963   6.208
23612WAT     H171078   4.747   7.015   6.124
23612WAT     H271079   4.796   6.995   6.279
23613WAT      O71080   0.920   3.457   2.820
23613WAT     H171081   0.841   3.467   2.881
23613WAT     H271082   0.906   3.379   2.759
23614WAT      O71083   3.562   5.269   8.197
23614WAT     H171084   3.472   5.286   8.155
23614WAT     H271085   3.561   5.179   8.242
23615WAT      O71086   9.113   6.886   0.327
23615WAT     H171087   9.051   6.829   0.381
23615WAT     H271088   9.096   6.871   0.230
23616WAT      O71089   9.521   5.482   4.141
23616WAT     H171090   9.477   5.566   4.174
23616WAT     H271091   9.467   5.403   4.167
23617WAT      O71092   8.399   6.353   2.640
23617WAT     H171093   8.336   6.333   2.565
23617WAT     H271094   8.446   6.269   2.667
23618WAT      O71095   1.724   7.081   0.377
23618WAT     H171096   1.638   7.069   0.426
23618WAT     H271097   1.746   6.998   0.325
23619WAT      O71098   3.176   4.224   8.258
23619WAT     H171099   3.127   4.199   8.341
23619WAT     H271100   3.199   4.142   8.206
23620WAT      O71101   0.543   3.792   4.303
23620WAT     H171102   0.613   3.721   4.294
23620WAT     H271103   0.547   3.852   4.223
23621WAT      O71104   7.540   1.410   3.032
23621WAT     H171105   7.446   1.398   3.001
23621WAT     H271106   7.541   1.423   3.131
23622WAT      O71107   6.436   2.771   8.425
23622WAT     H171108   6.485   2.686   8.403
23622WAT     H271109   6.411   2.769   8.522
23623WAT      O71110   0.269  -0.003   1.956
23623WAT     H171111   0.311   0.087   1.947
23623WAT     H271112   0.204  -0.017   1.881
23624WAT      O71113   7.533   1.381   5.870
23624WAT     H171114   7.510   1.448   5.799
23624WAT     H271115   7.508   1.418   5.959
23625WAT      O71116   1.160   2.457   0.308
23625WAT     H171117   1.165   2.545   0.355
23625WAT     H271118   1.166   2.383   0.375
23626WAT      O71119   1.003   5.115   5.056
23626WAT     H171120   0.979   5.072   5.144
23626WAT     H271121   1.085   5.171   5.068
23627WAT      O71122   9.813   0.291   8.730
23627WAT     H171123   9.744   0.221   8.710
23627WAT     H271124   9.775   0.357   8.795
23628WAT      O71125   5.837   8.165   9.534
23628WAT     H171126   5.869   8.127   9.620
23628WAT     H271127   5.737   8.173   9.535
23629WAT      O71128   2.493   1.475   3.293
23629WAT     H171129   2.411   1.497   3.346
23629WAT     H271130   2.525   1.557   3.246
23630WAT      O71131   7.652   5.717   8.129
23630WAT     H171132   7.741   5.750   8.096
23630WAT     H271133   7.619   5.644   8.069
23631WAT      O71134   0.371   8.503   6.448
23631WAT     H171135   0.345   8.437   6.378
23631WAT     H271136   0.386   8.592   6.406
23632WAT      O71137   5.239   8.480   4.365
23632WAT     H171138   5.163   8.435   4.411
23632WAT     H271139   5.315   8.492   4.429
23633WAT      O71140   1.546   3.818   1.597
23633WAT     H171141   1.644   3.802   1.607
23633WAT     H271142   1.505   3.742   1.547
23634WAT      O71143   2.946   6.518   7.919
23634WAT     H171144   2.864   6.547   7.870
23634WAT     H271145   2.944   6.419   7.932
23635WAT      O71146   7.538   7.322   1.848
23635WAT     H171147   7.508   7.368   1.764
23635WAT     H271148   7.553   7.225   1.828
23636WAT      O71149   7.835   2.167   7.987
23636WAT     H171150   7.760   2.145   8.050
23636WAT     H271151   7.805   2.148   7.893
23637WAT      O71152   0.370   6.593   0.658
23637WAT     H171153   0.455   6.566   0.612
23637WAT     H271154   0.344   6.685   0.629
23638WAT      O71155   7.457   6.845   0.022
23638WAT     H171156   7.482   6.905  -0.054
23638WAT     H271157   7.533   6.785   0.044
23639WAT      O71158   4.325   8.895   4.243
23639WAT     H171159   4.316   8.986   4.201
23639WAT     H271160   4.263   8.831   4.198
23640WAT      O71161   7.228   1.257   2.575
23640WAT     H171162   7.179   1.277   2.659
23640WAT     H271163   7.187   1.177   2.530
23641WAT      O71164   6.474   6.561   2.165
23641WAT     H171165   6.499   6.614   2.084
23641WAT     H271166   6.421   6.481   2.138
23642WAT      O71167   9.278   4.201   7.623
23642WAT     H171168   9.234   4.143   7.555
23642WAT     H271169   9.227   4.286   7.632
23643WAT      O71170   1.504   1.633   2.335
23643WAT     H171171   1.517   1.556   2.397
23643WAT     H271172   1.487   1.716   2.388
23644WAT      O71173   8.630   0.797   8.545
23644WAT     H171174   8.660   0.851   8.623
23644WAT     H271175   8.583   0.714   8.579
23645WAT      O71176   9.694   0.129   0.723
23645WAT     H171177   9.704   0.222   0.759
23645WAT     H271178   9.619   0.128   0.656
23646WAT      O71179   8.208   8.956   9.427
23646WAT     H171180   8.254   8.961   9.516
23646WAT     H271181   8.148   8.876   9.426
23647WAT      O71182   1.638   7.012   5.778
23647WAT     H171183   1.704   7.082   5.750
23647WAT     H271184   1.562   7.056   5.826
23648WAT      O71185   8.375   3.576   0.496
23648WAT     H171186   8.388   3.477   0.494
23648WAT     H271187   8.416   3.616   0.414
23649WAT      O71188   6.704   7.041   9.016
23649WAT     H171189   6.762   7.041   8.935
23649WAT     H271190   6.650   6.957   9.019
23650WAT      O71191   9.613   7.374   4.119
23650WAT     H171192   9.638   7.470   4.135
23650WAT     H271193   9.595   7.330   4.207
23651WAT      O71194   2.196   9.041   2.265
23651WAT     H171195   2.279   9.019   2.318
23651WAT     H271196   2.187   8.977   2.189
23652WAT      O71197   3.537   0.244   5.858
23652WAT     H171198   3.498   0.334   5.877
23652WAT     H271199   3.492   0.205   5.778
23653WAT      O71200   5.250   3.734   8.520
23653WAT     H171201   5.286   3.782   8.440
23653WAT     H271202   5.312   3.748   8.598
23654WAT      O71203   5.286   8.828   0.979
23654WAT     H171204   5.217   8.892   0.943
23654WAT     H271205   5.331   8.870   1.058
23655WAT      O71206   7.624   0.885   4.922
23655WAT     H171207   7.614   0.788   4.943
23655WAT     H271208   7.671   0.931   4.997
23656WAT      O71209   3.052   0.784   5.670
23656WAT     H171210   3.102   0.736   5.598
23656WAT     H271211   2.965   0.738   5.685
23657WAT      O71212   1.324   7.307   4.729
23657WAT     H171213   1.314   7.232   4.795
23657WAT     H271214   1.235   7.344   4.707
23658WAT      O71215   7.325   8.052   6.438
23658WAT     H171216   7.359   7.977   6.495
23658WAT     H271217   7.227   8.041   6.424
23659WAT      O71218   2.276   9.228   0.135
23659WAT     H171219   2.311   9.322   0.143
23659WAT     H271220   2.349   9.163   0.153
23660WAT      O71221   4.176   7.901   7.277
23660WAT     H171222   4.218   7.940   7.195
23660WAT     H271223   4.246   7.883   7.346
23661WAT      O71224   6.795   5.620   1.315
23661WAT     H171225   6.762   5.535   1.357
23661WAT     H271226   6.890   5.609   1.286
23662WAT      O71227   6.709   2.917   1.095
23662WAT     H171228   6.646   2.861   1.149
23662WAT     H271229   6.673   2.929   1.003
23663WAT      O71230   6.760   9.408   2.238
23663WAT     H171231   6.677   9.408   2.182
23663WAT     H271232   6.740   9.364   2.326
23664WAT      O71233   8.004   1.675   3.546
23664WAT     H171234   7.917   1.724   3.559
23664WAT     H271235   8.034   1.686   3.451
23665WAT      O71236   8.518   9.658   6.406
23665WAT     H171237   8.505   9.625   6.500
23665WAT     H271238   8.522   9.580   6.344
23666WAT      O71239   2.947   2.821   0.326
23666WAT     H171240   2.878   2.893   0.318
23666WAT     H271241   2.929   2.750   0.257
23667WAT      O71242   1.351   0.563   2.969
23667WAT     H171243   1.404   0.638   3.007
23667WAT     H271244   1.407   0.512   2.903
23668WAT      O71245   2.064   2.615   0.320
23668WAT     H171246   2.107   2.699   0.287
23668WAT     H271247   2.133   2.556   0.361
23669WAT      O71248   2.465   4.745   2.722
23669WAT     H171249   2.497   4.740   2.817
23669WAT     H271250   2.497   4.830   2.681
23670WAT      O71251   5.903   3.799   0.406
23670WAT     H171252   5.858   3.764   0.324
23670WAT     H271253   5.926   3.895   0.393
23671WAT      O71254   6.035   0.903   6.960
23671WAT     H171255   5.970   0.978   6.949
23671WAT     H271256   6.080   0.911   7.050
23672WAT      O71257   1.760   7.770   4.604
23672WAT     H171258   1.675   7.781   4.552
23672WAT     H271259   1.838   7.782   4.542
23673WAT      O71260   0.406   4.081   0.969
23673WAT     H171261   0.422   4.040   0.880
23673WAT     H271262   0.312   4.115   0.975
23674WAT      O71263   2.486   0.691   4.888
23674WAT     H171264   2.558   0.637   4.846
23674WAT     H271265   2.525   0.771   4.932
23675WAT      O71266   0.360   3.253   9.844
23675WAT     H171267   0.404   3.308   9.773
23675WAT     H271268   0.430   3.207   9.899
23676WAT      O71269   6.323   4.963   5.027
23676WAT     H171270   6.376   4.886   5.064
23676WAT     H271271   6.305   4.947   4.930
23677WAT      O71272   7.692   8.709   3.367
23677WAT     H171273   7.718   8.803   3.391
23677WAT     H271274   7.772   8.663   3.327
23678WAT      O71275   6.612   4.833   2.212
23678WAT     H171276   6.625   4.752   2.154
23678WAT     H271277   6.564   4.806   2.296
23679WAT      O71278   6.483   4.621   1.661
23679WAT     H171279   6.507   4.615   1.564
23679WAT     H271280   6.384   4.624   1.671
23680WAT      O71281   9.306   3.821   2.058
23680WAT     H171282   9.328   3.919   2.061
23680WAT     H271283   9.293   3.793   1.963
23681WAT      O71284   1.341   9.788   2.323
23681WAT     H171285   1.364   9.824   2.232
23681WAT     H271286   1.395   9.705   2.340
23682WAT      O71287   0.013   1.101   2.979
23682WAT     H171288   0.110   1.125   2.984
23682WAT     H271289  -0.010   1.040   3.055
23683WAT      O71290   3.664   5.293   4.664
23683WAT     H171291   3.719   5.214   4.689
23683WAT     H271292   3.689   5.371   4.722
23684WAT      O71293   8.566   0.778   2.644
23684WAT     H171294   8.537   0.720   2.720
23684WAT     H271295   8.485   0.808   2.593
23685WAT      O71296   6.727   2.235   9.127
23685WAT     H171297   6.706   2.307   9.061
23685WAT     H271298   6.807   2.262   9.181
23686WAT      O71299   5.522   5.105   3.935
23686WAT     H171300   5.597   5.168   3.956
23686WAT     H271301   5.488   5.125   3.843
23687WAT      O71302   1.362   5.162   6.790
23687WAT     H171303   1.394   5.224   6.861
23687WAT     H271304   1.289   5.205   6.738
23688WAT      O71305   9.309   8.630   9.545
23688WAT     H171306   9.265   8.673   9.467
23688WAT     H271307   9.314   8.695   9.621
23689WAT      O71308   3.262   7.311   8.187
23689WAT     H171309   3.210   7.347   8.109
23689WAT     H271310   3.200   7.269   8.252
23690WAT      O71311   4.711   0.032   8.417
23690WAT     H171312   4.736   0.045   8.513
23690WAT     H271313   4.612   0.032   8.407
23691WAT      O71314   9.521   4.464   5.739
23691WAT     H171315   9.487   4.498   5.651
23691WAT     H271316   9.506   4.534   5.809
23692WAT      O71317   5.050   3.714   0.979
23692WAT     H171318   4.983   3.746   1.047
23692WAT     H271319   5.035   3.616   0.962
23693WAT      O71320   3.166   7.583   5.670
23693WAT     H171321   3.222   7.565   5.751
23693WAT     H271322   3.207   7.537   5.591
23694WAT      O71323   6.059   5.072   6.196
23694WAT     H171324   6.127   5.009   6.233
23694WAT     H271325   6.013   5.030   6.118
23695WAT      O71326   0.791   7.186   7.157
23695WAT     H171327   0.818   7.267   7.106
23695WAT     H271328   0.774   7.110   7.094
23696WAT      O71329   9.027   3.819   6.034
23696WAT     H171330   9.074   3.741   6.075
23696WAT     H271331   9.075   3.904   6.060
23697WAT      O71332   8.438   2.754   7.733
23697WAT     H171333   8.466   2.835   7.784
23697WAT     H271334   8.497   2.744   7.652
23698WAT      O71335   0.460   0.568   7.447
23698WAT     H171336   0.449   0.475   7.410
23698WAT     H271337   0.407   0.578   7.531
23699WAT      O71338   2.660   9.171   5.468
23699WAT     H171339   2.578   9.169   5.525
23699WAT     H271340   2.704   9.260   5.476
23700WAT      O71341   0.608   1.036   3.609
23700WAT     H171342   0.565   0.956   3.566
23700WAT     H271343   0.698   1.010   3.643
23701WAT      O71344   2.643   9.073   3.853
23701WAT     H171345   2.566   9.113   3.903
23701WAT     H271346   2.714   9.142   3.841
23702WAT      O71347   1.149   5.719   1.227
23702WAT     H171348   1.217   5.752   1.293
23702WAT     H271349   1.058   5.718   1.269
23703WAT      O71350   3.101   7.338   2.589
23703WAT     H171351   3.082   7.436   2.581
23703WAT     H271352   3.033   7.296   2.648
23704WAT      O71353   3.344   0.895   5.361
23704WAT     H171354   3.285   0.942   5.427
23704WAT     H271355   3.416   0.846   5.410
23705WAT      O71356   4.537   2.274   2.029
23705WAT     H171357   4.581   2.240   2.113
23705WAT     H271358   4.439   2.257   2.034
23706WAT      O71359   1.459   2.340   5.234
23706WAT     H171360   1.554   2.362   5.211
23706WAT     H271361   1.412   2.423   5.262
23707WAT      O71362   7.243   9.125   4.436
23707WAT     H171363   7.145   9.121   4.421
23707WAT     H271364   7.271   9.221   4.450
23708WAT      O71365   0.236   7.425   2.045
23708WAT     H171366   0.183   7.343   2.066
23708WAT     H271367   0.178   7.506   2.058
23709WAT      O71368   7.705   7.123   3.383
23709WAT     H171369   7.676   7.174   3.464
23709WAT     H271370   7.625   7.097   3.330
23710WAT      O71371   1.197   7.627   6.118
23710WAT     H171372   1.234   7.689   6.187
23710WAT     H271373   1.244   7.539   6.124
23711WAT      O71374   1.109   1.163   6.448
23711WAT     H171375   1.088   1.249   6.402
23711WAT     H271376   1.029   1.133   6.500
23712WAT      O71377   2.454   9.779   2.220
23712WAT     H171378   2.549   9.790   2.249
23712WAT     H271379   2.452   9.730   2.133
23713WAT      O71380   8.080   2.654   0.674
23713WAT     H171381   7.984   2.681   0.663
23713WAT     H271382   8.115   2.617   0.588
23714WAT      O71383   8.830   9.321   0.385
23714WAT     H171384   8.796   9.393   0.324
23714WAT     H271385   8.754   9.260   0.410
23715WAT      O71386   6.299   5.232   4.976
23715WAT     H171387   6.325   5.144   5.015
23715WAT     H271388   6.313   5.230   4.877
23716WAT      O71389   2.686   8.160   8.862
23716WAT     H171390   2.704   8.254   8.834
23716WAT     H271391   2.741   8.098   8.805
23717WAT      O71392   5.764   3.480   7.063
23717WAT     H171393   5.804   3.458   6.974
23717WAT     H271394   5.690   3.416   7.083
23718WAT      O71395   4.212   2.236   3.465
23718WAT     H171396   4.247   2.144   3.481
23718WAT     H271397   4.164   2.269   3.547
23719WAT      O71398   7.756   2.909   7.872
23719WAT     H171399   7.718   2.880   7.784
23719WAT     H271400   7.778   2.829   7.928
23720WAT      O71401   4.376   0.287   6.308
23720WAT     H171402   4.432   0.363   6.274
23720WAT     H271403   4.324   0.248   6.232
23721WAT      O71404   9.707   5.166   3.743
23721WAT     H171405   9.645   5.198   3.671
23721WAT     H271406   9.784   5.118   3.701
23722WAT      O71407   3.264   9.220   2.836
23722WAT     H171408   3.347   9.223   2.780
23722WAT     H271409   3.219   9.132   2.825
23723WAT      O71410  -0.004   9.122   5.426
23723WAT     H171411  -0.009   9.063   5.345
23723WAT     H271412   0.084   9.169   5.426
23724WAT      O71413   0.808   4.774   3.228
23724WAT     H171414   0.903   4.747   3.211
23724WAT     H271415   0.803   4.825   3.313
23725WAT      O71416   6.241   6.621   1.371
23725WAT     H171417   6.268   6.658   1.460
23725WAT     H271418   6.171   6.680   1.330
23726WAT      O71419   5.113   5.174   4.390
23726WAT     H171420   5.115   5.255   4.448
23726WAT     H271421   5.156   5.098   4.438
23727WAT      O71422   1.744   1.586   2.145
23727WAT     H171423   1.748   1.670   2.198
23727WAT     H271424   1.685   1.520   2.192
23728WAT      O71425   6.919   7.672   7.087
23728WAT     H171426   6.927   7.573   7.100
23728WAT     H271427   6.829   7.703   7.118
23729WAT      O71428   2.710   4.315   7.513
23729WAT     H171429   2.668   4.396   7.554
23729WAT     H271430   2.661   4.233   7.544
23730WAT      O71431   0.396   8.687   3.819
23730WAT     H171432   0.402   8.616   3.889
23730WAT     H271433   0.418   8.647   3.730
23731WAT      O71434   9.663   0.265   2.095
23731WAT     H171435   9.578   0.266   2.147
23731WAT     H271436   9.727   0.330   2.136
23732WAT      O71437   2.087   2.909   3.426
23732WAT     H171438   2.140   2.869   3.500
23732WAT     H271439   2.041   2.992   3.460
23733WAT      O71440   9.455   9.778   7.627
23733WAT     H171441   9.512   9.792   7.546
23733WAT     H271442   9.501   9.818   7.707
23734WAT      O71443   2.925   4.458   2.074
23734WAT     H171444   3.001   4.399   2.102
23734WAT     H271445   2.847   4.402   2.047
23735WAT      O71446   5.421   3.815   1.364
23735WAT     H171447   5.436   3.884   1.294
23735WAT     H271448   5.337   3.765   1.344
23736WAT      O71449   4.991   2.328   9.579
23736WAT     H171450   4.908   2.381   9.561
23736WAT     H271451   5.008   2.265   9.503
23737WAT      O71452   0.296   7.025   3.609
23737WAT     H171453   0.325   7.120   3.601
23737WAT     H271454   0.252   7.011   3.698
23738WAT      O71455   7.821   3.415   5.396
23738WAT     H171456   7.839   3.340   5.331
23738WAT     H271457   7.903   3.434   5.449
23739WAT      O71458   6.716   3.570   4.109
23739WAT     H171459   6.769   3.646   4.071
23739WAT     H271460   6.629   3.562   4.059
23740WAT      O71461   7.089   6.490   3.924
23740WAT     H171462   7.173   6.538   3.899
23740WAT     H271463   7.031   6.551   3.978
23741WAT      O71464   2.117   0.339   0.173
23741WAT     H171465   2.051   0.413   0.184
23741WAT     H271466   2.096   0.287   0.090
23742WAT      O71467   7.551   4.489   1.215
23742WAT     H171468   7.620   4.428   1.255
23742WAT     H271469   7.533   4.565   1.277
23743WAT      O71470   2.175   9.526   8.012
23743WAT     H171471   2.183   9.530   8.112
23743WAT     H271472   2.146   9.434   7.985
23744WAT      O71473   1.426   8.339   3.588
23744WAT     H171474   1.337   8.365   3.625
23744WAT     H271475   1.482   8.298   3.660
23745WAT      O71476   7.747   2.716   7.212
23745WAT     H171477   7.712   2.724   7.118
23745WAT     H271478   7.775   2.806   7.245
23746WAT      O71479   4.644   6.388   8.349
23746WAT     H171480   4.568   6.440   8.386
23746WAT     H271481   4.652   6.301   8.398
23747WAT      O71482   4.417   3.914   7.499
23747WAT     H171483   4.370   3.976   7.436
23747WAT     H271484   4.459   3.967   7.573
23748WAT      O71485   0.853   8.271   3.901
23748WAT     H171486   0.860   8.192   3.841
23748WAT     H271487   0.940   8.285   3.949
23749WAT      O71488   3.064   1.986   0.481
23749WAT     H171489   3.134   1.954   0.417
23749WAT     H271490   3.010   1.909   0.513
23750WAT      O71491   8.842   4.384   9.270
23750WAT     H171492   8.784   4.336   9.337
23750WAT     H271493   8.815   4.357   9.178
23751WAT      O71494   2.871   5.306   5.409
23751WAT     H171495   2.886   5.217   5.366
23751WAT     H271496   2.926   5.375   5.362
23752WAT      O71497   1.372   9.136   0.264
23752WAT     H171498   1.425   9.221   0.258
23752WAT     H271499   1.361   9.097   0.173
23753WAT      O71500   4.235   0.927   7.991
23753WAT     H171501   4.139   0.914   8.015
23753WAT     H271502   4.242   0.949   7.893
23754WAT      O71503   3.048   8.159   3.062
23754WAT     H171504   3.033   8.237   3.002
23754WAT     H271505   3.146   8.139   3.069
23755WAT      O71506   5.424   7.363   7.357
23755WAT     H171507   5.395   7.313   7.439
23755WAT     H271508   5.394   7.313   7.275
23756WAT      O71509   5.516   8.022   1.023
23756WAT     H171510   5.566   8.069   0.951
23756WAT     H271511   5.543   8.057   1.112
23757WAT      O71512   9.002   0.442   5.390
23757WAT     H171513   9.069   0.416   5.320
23757WAT     H271514   8.910   0.419   5.359
23758WAT      O71515   7.686   6.811   1.067
23758WAT     H171516   7.743   6.883   1.105
23758WAT     H271517   7.744   6.738   1.031
23759WAT      O71518   7.486   6.912   0.302
23759WAT     H171519   7.461   6.929   0.207
23759WAT     H271520   7.479   6.997   0.354
23760WAT      O71521   9.175   4.643   7.869
23760WAT     H171522   9.077   4.662   7.874
23760WAT     H271523   9.219   4.712   7.812
23761WAT      O71524   3.592   2.340   1.598
23761WAT     H171525   3.682   2.383   1.595
23761WAT     H271526   3.562   2.334   1.693
23762WAT      O71527   2.038   8.083   5.327
23762WAT     H171528   2.092   8.005   5.361
23762WAT     H271529   1.985   8.055   5.247
23763WAT      O71530   7.570   3.147   9.270
23763WAT     H171531   7.545   3.220   9.333
23763WAT     H271532   7.666   3.122   9.284
23764WAT      O71533   3.075   0.291   1.770
23764WAT     H171534   3.145   0.347   1.726
23764WAT     H271535   3.010   0.259   1.701
23765WAT      O71536   7.764   1.242   6.758
23765WAT     H171537   7.724   1.152   6.775
23765WAT     H271538   7.788   1.286   6.845
23766WAT      O71539   6.425   6.158   3.029
23766WAT     H171540   6.339   6.121   2.992
23766WAT     H271541   6.494   6.086   3.032
23767WAT      O71542   7.777   8.116   8.613
23767WAT     H171543   7.710   8.086   8.545
23767WAT     H271544   7.869   8.105   8.575
23768WAT      O71545   6.438   0.478   2.610
23768WAT     H171546   6.509   0.409   2.594
23768WAT     H271547   6.479   0.569   2.610
23769WAT      O71548   7.860   5.431   1.872
23769WAT     H171549   7.906   5.343   1.862
23769WAT     H271550   7.787   5.423   1.939
23770WAT      O71551   3.159   6.259   9.854
23770WAT     H171552   3.138   6.354   9.874
23770WAT     H271553   3.107   6.229   9.775
23771WAT      O71554   9.716   1.844   7.446
23771WAT     H171555   9.679   1.778   7.511
23771WAT     H271556   9.655   1.853   7.368
23772WAT      O71557   1.781   4.660   0.424
23772WAT     H171558   1.764   4.697   0.515
23772WAT     H271559   1.702   4.605   0.396
23773WAT      O71560   9.177   5.927   4.137
23773WAT     H171561   9.190   5.903   4.041
23773WAT     H271562   9.244   5.996   4.164
23774WAT      O71563   7.801   8.202   9.340
23774WAT     H171564   7.750   8.287   9.335
23774WAT     H271565   7.823   8.181   9.435
23775WAT      O71566   0.276   7.100   9.868
23775WAT     H171567   0.240   7.157   9.942
23775WAT     H271568   0.375   7.092   9.878
23776WAT      O71569   1.495   8.495   8.019
23776WAT     H171570   1.530   8.478   8.111
23776WAT     H271571   1.554   8.560   7.972
23777WAT      O71572   2.841   3.928   8.124
23777WAT     H171573   2.830   4.018   8.083
23777WAT     H271574   2.915   3.879   8.079
23778WAT      O71575   8.503   0.412   4.518
23778WAT     H171576   8.490   0.365   4.605
23778WAT     H271577   8.576   0.366   4.466
23779WAT      O71578   8.455   5.322   1.897
23779WAT     H171579   8.436   5.249   1.832
23779WAT     H271580   8.369   5.363   1.927
23780WAT      O71581   8.197   7.566   6.526
23780WAT     H171582   8.138   7.595   6.450
23780WAT     H271583   8.162   7.604   6.612
23781WAT      O71584   2.735   0.675   7.021
23781WAT     H171585   2.672   0.604   6.991
23781WAT     H271586   2.785   0.644   7.103
23782WAT      O71587   4.293   1.094   5.777
23782WAT     H171588   4.384   1.087   5.737
23782WAT     H271589   4.230   1.136   5.712
23783WAT      O71590   3.457   4.979   8.695
23783WAT     H171591   3.358   4.977   8.708
23783WAT     H271592   3.502   4.960   8.781
23784WAT      O71593   4.934   4.462   7.085
23784WAT     H171594   4.902   4.557   7.084
23784WAT     H271595   4.989   4.445   7.003
23785WAT      O71596   4.930   3.124   7.326
23785WAT     H171597   4.925   3.210   7.376
23785WAT     H271598   5.005   3.068   7.362
23786WAT      O71599   2.826   6.787   6.460
23786WAT     H171600   2.903   6.762   6.402
23786WAT     H271601   2.741   6.777   6.409
23787WAT      O71602   9.649   7.428   2.369
23787WAT     H171603   9.714   7.470   2.432
23787WAT     H271604   9.623   7.338   2.402
23788WAT      O71605   6.866   0.905   3.417
23788WAT     H171606   6.816   0.901   3.503
23788WAT     H271607   6.957   0.865   3.429
23789WAT      O71608   9.013   2.522   7.851
23789WAT     H171609   8.967   2.481   7.930
23789WAT     H271610   8.985   2.474   7.767
23790WAT      O71611   6.520   2.476   5.561
23790WAT     H171612   6.566   2.535   5.627
23790WAT     H271613   6.479   2.532   5.489
23791WAT      O71614   9.858   6.064   0.065
23791WAT     H171615   9.906   5.988   0.109
23791WAT     H271616   9.899   6.151   0.094
23792WAT      O71617   7.854   8.506   6.611
23792WAT     H171618   7.777   8.442   6.611
23792WAT     H271619   7.820   8.600   6.619
23793WAT      O71620   3.230   0.770   1.007
23793WAT     H171621   3.138   0.735   0.990
23793WAT     H271622   3.270   0.800   0.920
23794WAT      O71623   7.760   5.579   9.366
23794WAT     H171624   7.684   5.528   9.327
23794WAT     H271625   7.754   5.675   9.337
23795WAT      O71626   4.645   9.804   1.713
23795WAT     H171627   4.635   9.706   1.729
23795WAT     H271628   4.588   9.831   1.636
23796WAT      O71629   8.063   3.764   8.173
23796WAT     H171630   7.984   3.714   8.208
23796WAT     H271631   8.091   3.726   8.085
23797WAT      O71632   6.584   4.743   3.659
23797WAT     H171633   6.513   4.757   3.728
23797WAT     H271634   6.671   4.723   3.704
23798WAT      O71635   8.845   9.461   9.494
23798WAT     H171636   8.832   9.397   9.569
23798WAT     H271637   8.928   9.514   9.509
23799WAT      O71638   4.924   8.362   5.450
23799WAT     H171639   4.978   8.415   5.515
23799WAT     H271640   4.916   8.413   5.365
23800WAT      O71641   6.123   6.646   6.297
23800WAT     H171642   6.128   6.549   6.274
23800WAT     H271643   6.168   6.699   6.225
23801WAT      O71644   8.602   3.059   0.896
23801WAT     H171645   8.678   2.995   0.908
23801WAT     H271646   8.546   3.031   0.818
23802WAT      O71647   1.280   6.001   7.796
23802WAT     H171648   1.219   6.062   7.847
23802WAT     H271649   1.338   6.055   7.735
23803WAT      O71650   8.896   1.001   5.180
23803WAT     H171651   8.943   1.017   5.093
23803WAT     H271652   8.962   0.968   5.248
23804WAT      O71653   3.758   1.800   3.284
23804WAT     H171654   3.844   1.792   3.334
23804WAT     H271655   3.692   1.734   3.320
23805WAT      O71656   3.878   8.319   5.022
23805WAT     H171657   3.878   8.301   5.121
23805WAT     H271658   3.911   8.238   4.973
23806WAT      O71659   1.340   1.075   3.006
23806WAT     H171660   1.283   1.022   2.945
23806WAT     H271661   1.420   1.021   3.033
23807WAT      O71662   3.096   6.046   2.110
23807WAT     H171663   3.117   5.948   2.113
23807WAT     H271664   3.063   6.075   2.200
23808WAT      O71665   7.421   4.207   9.594
23808WAT     H171666   7.382   4.143   9.661
23808WAT     H271667   7.347   4.258   9.551
23809WAT      O71668   4.913   2.617   3.721
23809WAT     H171669   4.997   2.565   3.709
23809WAT     H271670   4.896   2.672   3.639
23810WAT      O71671   1.517   4.446   4.371
23810WAT     H171672   1.561   4.362   4.339
23810WAT     H271673   1.587   4.512   4.399
23811WAT      O71674   1.287   2.580   7.371
23811WAT     H171675   1.273   2.670   7.413
23811WAT     H271676   1.213   2.562   7.306
23812WAT      O71677   1.108   8.064   7.911
23812WAT     H171678   1.174   8.030   7.978
23812WAT     H271679   1.024   8.091   7.958
23813WAT      O71680   4.224   0.498   5.910
23813WAT     H171681   4.277   0.436   5.851
23813WAT     H271682   4.276   0.582   5.925
23814WAT      O71683   3.539   6.796   4.299
23814WAT     H171684   3.627   6.766   4.335
23814WAT     H271685   3.548   6.890   4.265
23815WAT      O71686   7.995   2.062   8.303
23815WAT     H171687   7.958   2.127   8.369
23815WAT     H271688   8.055   2.110   8.239
23816WAT      O71689   2.881   6.351   8.250
23816WAT     H171690   2.872   6.337   8.152
23816WAT     H271691   2.800   6.313   8.296
23817WAT      O71692   6.602   5.922   8.474
23817WAT     H171693   6.635   5.995   8.414
23817WAT     H271694   6.679   5.873   8.514
23818WAT      O71695   9.624   0.818   2.986
23818WAT     H171696   9.602   0.816   2.889
23818WAT     H271697   9.540   0.831   3.039
23819WAT      O71698   6.156   7.185   6.724
23819WAT     H171699   6.218   7.207   6.800
23819WAT     H271700   6.116   7.094   6.739
23820WAT      O71701   2.964   1.672   9.692
23820WAT     H171702   3.048   1.618   9.689
23820WAT     H271703   2.957   1.729   9.610
23821WAT      O71704   0.352   9.247   6.563
23821WAT     H171705   0.419   9.306   6.518
23821WAT     H271706   0.268   9.244   6.508
23822WAT      O71707   3.546   3.976   0.897
23822WAT     H171708   3.552   3.914   0.819
23822WAT     H271709   3.453   3.972   0.935
23823WAT      O71710   4.703   8.246   1.645
23823WAT     H171711   4.739   8.242   1.552
23823WAT     H271712   4.765   8.300   1.703
23824WAT      O71713   5.989   4.467   0.115
23824WAT     H171714   6.005   4.442   0.020
23824WAT     H271715   6.061   4.428   0.172
23825WAT      O71716   9.169   4.848   2.282
23825WAT     H171717   9.090   4.787   2.285
23825WAT     H271718   9.147   4.934   2.327
23826WAT      O71719   5.302   2.719   3.485
23826WAT     H171720   5.384   2.711   3.428
23826WAT     H271721   5.291   2.814   3.514
23827WAT      O71722   5.060   5.904   7.661
23827WAT     H171723   5.115   5.954   7.594
23827WAT     H271724   5.020   5.969   7.725
23828WAT      O71725   0.530   5.633   9.750
23828WAT     H171726   0.440   5.673   9.736
23828WAT     H271727   0.522   5.534   9.757
23829WAT      O71728   0.554   4.865   1.270
23829WAT     H171729   0.557   4.920   1.353
23829WAT     H271730   0.647   4.852   1.235
23830WAT      O71731   0.766   5.253   4.983
23830WAT     H171732   0.783   5.259   4.884
23830WAT     H271733   0.847   5.215   5.028
23831WAT      O71734   4.832   8.752   4.425
23831WAT     H171735   4.820   8.844   4.461
23831WAT     H271736   4.840   8.756   4.325
23832WAT      O71737   8.207   9.036   8.485
23832WAT     H171738   8.172   9.077   8.569
23832WAT     H271739   8.195   9.101   8.409
23833WAT      O71740   3.065   3.121   3.714
23833WAT     H171741   3.010   3.170   3.781
23833WAT     H271742   3.142   3.178   3.686
23834WAT      O71743   0.930   4.331   2.243
23834WAT     H171744   0.974   4.288   2.321
23834WAT     H271745   0.830   4.323   2.252
23835WAT      O71746   1.429   0.322   3.871
23835WAT     H171747   1.382   0.384   3.808
23835WAT     H271748   1.362   0.278   3.931
23836WAT      O71749   7.783   7.368   3.951
23836WAT     H171750   7.782   7.467   3.939
23836WAT     H271751   7.868   7.341   3.997
23837WAT      O71752   2.844   7.800   6.167
23837WAT     H171753   2.900   7.866   6.216
23837WAT     H271754   2.800   7.738   6.233
23838WAT      O71755   9.371   3.354   8.767
23838WAT     H171756   9.421   3.415   8.706
23838WAT     H271757   9.275   3.349   8.739
23839WAT      O71758   5.871   1.360   5.176
23839WAT     H171759   5.808   1.329   5.248
23839WAT     H271760   5.932   1.286   5.150
23840WAT      O71761   0.771   2.295   1.611
23840WAT     H171762   0.763   2.363   1.538
23840WAT     H271763   0.731   2.209   1.581
23841WAT      O71764   3.487   0.680   1.619
23841WAT     H171765   3.397   0.691   1.576
23841WAT     H271766   3.490   0.594   1.669
23842WAT      O71767   8.257   9.310   3.747
23842WAT     H171768   8.324   9.311   3.822
23842WAT     H271769   8.187   9.379   3.764
23843WAT      O71770   0.506   3.120   7.557
23843WAT     H171771   0.522   3.081   7.467
23843WAT     H271772   0.434   3.189   7.552
23844WAT      O71773   9.708   2.417   7.365
23844WAT     H171774   9.759   2.338   7.331
23844WAT     H271775   9.761   2.462   7.437
23845WAT      O71776   2.240   7.367   8.984
23845WAT     H171777   2.287   7.347   8.898
23845WAT     H271778   2.142   7.349   8.974
23846WAT      O71779   9.498   1.632   2.254
23846WAT     H171780   9.469   1.720   2.217
23846WAT     H271781   9.541   1.578   2.182
23847WAT      O71782   5.621   7.846   8.599
23847WAT     H171783   5.582   7.937   8.586
23847WAT     H271784   5.554   7.787   8.644
23848WAT      O71785   0.937   0.069   3.095
23848WAT     H171786   0.972  -0.017   3.058
23848WAT     H271787   0.842   0.057   3.124
23849WAT      O71788   7.895   1.334   9.639
23849WAT     H171789   7.847   1.260   9.592
23849WAT     H271790   7.887   1.418   9.586
23850WAT      O71791   1.788   5.363   3.731
23850WAT     H171792   1.723   5.407   3.792
23850WAT     H271793   1.785   5.407   3.641
23851WAT      O71794   2.270   3.591   2.546
23851WAT     H171795   2.174   3.582   2.519
23851WAT     H271796   2.313   3.661   2.490
23852WAT      O71797   1.345   3.688   4.342
23852WAT     H171798   1.301   3.766   4.297
23852WAT     H271799   1.441   3.684   4.315
23853WAT      O71800   8.844   3.875   8.094
23853WAT     H171801   8.847   3.853   8.192
23853WAT     H271802   8.915   3.942   8.073
23854WAT      O71803   1.377   8.903   1.372
23854WAT     H171804   1.348   8.983   1.424
23854WAT     H271805   1.352   8.914   1.276
23855WAT      O71806   4.740   1.385   6.868
23855WAT     H171807   4.683   1.310   6.835
23855WAT     H271808   4.723   1.466   6.813
23856WAT      O71809   8.382   1.664   4.749
23856WAT     H171810   8.412   1.692   4.840
23856WAT     H271811   8.417   1.572   4.730
23857WAT      O71812   0.234   6.711   0.037
23857WAT     H171813   0.165   6.680  -0.028
23857WAT     H271814   0.305   6.761  -0.012
23858WAT      O71815   8.975   5.504   6.424
23858WAT     H171816   8.895   5.461   6.382
23858WAT     H271817   8.946   5.572   6.491
23859WAT      O71818   2.441   1.257   4.373
23859WAT     H171819   2.435   1.164   4.336
23859WAT     H271820   2.380   1.318   4.322
23860WAT      O71821   9.495   4.279   0.120
23860WAT     H171822   9.466   4.346   0.051
23860WAT     H271823   9.469   4.313   0.211
23861WAT      O71824   3.549   5.709   8.382
23861WAT     H171825   3.612   5.681   8.454
23861WAT     H271826   3.547   5.809   8.376
23862WAT      O71827   7.650   7.638   5.753
23862WAT     H171828   7.648   7.730   5.712
23862WAT     H271829   7.557   7.601   5.756
23863WAT      O71830   1.018   3.026   6.393
23863WAT     H171831   0.974   2.980   6.470
23863WAT     H271832   0.953   3.087   6.349
23864WAT      O71833   4.849   7.745   1.330
23864WAT     H171834   4.870   7.835   1.293
23864WAT     H271835   4.757   7.718   1.302
23865WAT      O71836   7.071   5.384   8.456
23865WAT     H171837   7.130   5.304   8.458
23865WAT     H271838   6.977   5.356   8.476
23866WAT      O71839   8.961   0.570   8.454
23866WAT     H171840   9.035   0.588   8.389
23866WAT     H271841   8.969   0.477   8.489
23867WAT      O71842   9.812   8.111   2.656
23867WAT     H171843   9.889   8.156   2.702
23867WAT     H271844   9.754   8.066   2.724
23868WAT      O71845   1.969   1.087   9.671
23868WAT     H171846   2.049   1.074   9.730
23868WAT     H271847   1.979   1.172   9.619
23869WAT      O71848   4.345   8.839   7.384
23869WAT     H171849   4.318   8.797   7.298
23869WAT     H271850   4.264   8.853   7.441
23870WAT      O71851   4.066   5.937   6.882
23870WAT     H171852   4.120   5.897   6.956
23870WAT     H271853   4.064   6.037   6.893
23871WAT      O71854   3.470   7.569   0.073
23871WAT     H171855   3.384   7.533   0.038
23871WAT     H271856   3.502   7.643   0.013
23872WAT      O71857   3.729   6.707   2.536
23872WAT     H171858   3.818   6.708   2.581
23872WAT     H271859   3.683   6.794   2.550
23873WAT      O71860   0.683   6.822   0.287
23873WAT     H171861   0.640   6.807   0.376
23873WAT     H271862   0.684   6.920   0.267
23874WAT      O71863   5.352   8.834   7.857
23874WAT     H171864   5.261   8.809   7.825
23874WAT     H271865   5.345   8.900   7.932
23875WAT      O71866   9.662   9.278   5.332
23875WAT     H171867   9.572   9.248   5.300
23875WAT     H271868   9.716   9.199   5.359
23876WAT      O71869   2.818   9.364   5.579
23876WAT     H171870   2.902   9.311   5.570
23876WAT     H271871   2.793   9.371   5.676
23877WAT      O71872   8.662   1.583   2.646
23877WAT     H171873   8.641   1.637   2.728
23877WAT     H271874   8.691   1.491   2.673
23878WAT      O71875   2.728   1.301   4.172
23878WAT     H171876   2.641   1.252   4.179
23878WAT     H271877   2.759   1.327   4.264
23879WAT      O71878   9.095   4.903   4.850
23879WAT     H171879   9.056   4.871   4.763
23879WAT     H271880   9.168   4.969   4.831
23880WAT      O71881   7.077   1.568   4.961
23880WAT     H171882   7.157   1.627   4.971
23880WAT     H271883   7.009   1.614   4.905
23881WAT      O71884   5.448   1.414   9.402
23881WAT     H171885   5.382   1.420   9.327
23881WAT     H271886   5.403   1.435   9.489
23882WAT      O71887   0.755   5.811   1.234
23882WAT     H171888   0.781   5.860   1.151
23882WAT     H271889   0.656   5.818   1.247
23883WAT      O71890   6.485   5.921   1.030
23883WAT     H171891   6.559   5.921   1.098
23883WAT     H271892   6.517   5.965   0.946
23884WAT      O71893   8.470   9.178   8.574
23884WAT     H171894   8.504   9.171   8.481
23884WAT     H271895   8.438   9.088   8.606
23885WAT      O71896   1.192   4.754   1.200
23885WAT     H171897   1.157   4.661   1.204
23885WAT     H271898   1.121   4.815   1.164
23886WAT      O71899   8.337   1.133   9.810
23886WAT     H171900   8.342   1.043   9.854
23886WAT     H271901   8.242   1.154   9.787
23887WAT      O71902   5.769   4.779   5.584
23887WAT     H171903   5.721   4.866   5.570
23887WAT     H271904   5.865   4.790   5.559
23888WAT      O71905   8.030   5.938   4.689
23888WAT     H171906   7.997   5.844   4.682
23888WAT     H271907   7.961   6.000   4.652
23889WAT      O71908   2.737   7.759   3.825
23889WAT     H171909   2.718   7.661   3.822
23889WAT     H271910   2.654   7.809   3.800
23890WAT      O71911   4.730   0.652   8.445
23890WAT     H171912   4.818   0.672   8.488
23890WAT     H271913   4.661   0.715   8.480
23891WAT      O71914   4.924   5.212   4.196
23891WAT     H171915   4.999   5.173   4.249
23891WAT     H271916   4.961   5.268   4.121
23892WAT      O71917   1.427   5.188   2.173
23892WAT     H171918   1.338   5.190   2.217
23892WAT     H271919   1.499   5.181   2.242
23893WAT      O71920   1.803   9.470   2.315
23893WAT     H171921   1.757   9.457   2.403
23893WAT     H271922   1.757   9.543   2.264
23894WAT      O71923   9.043   1.011   4.947
23894WAT     H171924   9.140   1.015   4.970
23894WAT     H271925   9.030   0.949   4.870
23895WAT      O71926   4.870   0.270   0.562
23895WAT     H171927   4.823   0.202   0.618
23895WAT     H271928   4.871   0.358   0.610
23896WAT      O71929   5.029   7.773   8.281
23896WAT     H171930   4.980   7.859   8.268
23896WAT     H271931   5.121   7.792   8.315
23897WAT      O71932   5.325   7.715   7.949
23897WAT     H171933   5.342   7.806   7.986
23897WAT     H271934   5.377   7.703   7.864
23898WAT      O71935   6.371   3.659   1.623
23898WAT     H171936   6.404   3.730   1.561
23898WAT     H271937   6.304   3.602   1.575
23899WAT      O71938   0.231   8.203   5.280
23899WAT     H171939   0.158   8.228   5.344
23899WAT     H271940   0.198   8.132   5.218
23900WAT      O71941   8.966   7.190   8.503
23900WAT     H171942   9.045   7.148   8.459
23900WAT     H271943   8.928   7.261   8.444
23901WAT      O71944   7.486   3.543   1.579
23901WAT     H171945   7.509   3.593   1.495
23901WAT     H271946   7.562   3.483   1.604
23902WAT      O71947   1.165   5.513   8.789
23902WAT     H171948   1.163   5.438   8.723
23902WAT     H271949   1.244   5.572   8.770
23903WAT      O71950   5.708   4.375   8.874
23903WAT     H171951   5.650   4.294   8.866
23903WAT     H271952   5.799   4.354   8.837
23904WAT      O71953   5.015   9.839   2.996
23904WAT     H171954   4.999   9.905   3.069
23904WAT     H271955   4.984   9.748   3.026
23905WAT      O71956   5.599   9.448   6.207
23905WAT     H171957   5.598   9.369   6.146
23905WAT     H271958   5.538   9.518   6.172
23906WAT      O71959   9.574   4.396   5.184
23906WAT     H171960   9.673   4.399   5.195
23906WAT     H271961   9.551   4.347   5.100
23907WAT      O71962   6.474   8.050   8.671
23907WAT     H171963   6.402   8.116   8.694
23907WAT     H271964   6.562   8.098   8.666
23908WAT      O71965   5.551   8.321   1.598
23908WAT     H171966   5.602   8.407   1.606
23908WAT     H271967   5.615   8.246   1.583
23909WAT      O71968   8.010   8.364   2.254
23909WAT     H171969   8.090   8.423   2.239
23909WAT     H271970   8.018   8.282   2.197
23910WAT      O71971   2.479   9.079   0.652
23910WAT     H171972   2.390   9.049   0.686
23910WAT     H271973   2.510   9.015   0.581
23911WAT      O71974   1.073   5.869   6.751
23911WAT     H171975   1.129   5.795   6.714
23911WAT     H271976   1.113   5.903   6.836
23912WAT      O71977   0.497   2.028   6.660
23912WAT     H171978   0.447   1.944   6.682
23912WAT     H271979   0.594   2.007   6.651
23913WAT      O71980   1.048   9.601   5.866
23913WAT     H171981   1.112   9.657   5.918
23913WAT     H271982   0.960   9.598   5.914
23914WAT      O71983   3.798   2.163   0.403
23914WAT     H171984   3.712   2.177   0.354
23914WAT     H271985   3.788   2.196   0.497
23915WAT      O71986   2.295   8.592   6.408
23915WAT     H171987   2.307   8.558   6.315
23915WAT     H271988   2.304   8.691   6.410
23916WAT      O71989   4.594   4.177   9.645
23916WAT     H171990   4.566   4.110   9.713
23916WAT     H271991   4.637   4.255   9.690
23917WAT      O71992   7.526   7.393   4.068
23917WAT     H171993   7.605   7.393   4.007
23917WAT     H271994   7.465   7.318   4.042
23918WAT      O71995   6.687   0.706   5.097
23918WAT     H171996   6.626   0.682   5.172
23918WAT     H271997   6.769   0.750   5.133
23919WAT      O71998   3.778   8.531   6.480
23919WAT     H171999   3.793   8.581   6.565
23919WAT     H272000   3.688   8.487   6.483
23920WAT      O72001   9.282   0.909   6.726
23920WAT     H172002   9.208   0.886   6.664
23920WAT     H272003   9.369   0.908   6.677
23921WAT      O72004   0.132   4.601   1.997
23921WAT     H172005   0.222   4.645   1.994
23921WAT     H272006   0.093   4.601   1.905
23922WAT      O72007   4.478   1.002   4.942
23922WAT     H172008   4.513   1.093   4.917
23922WAT     H272009   4.520   0.973   5.028
23923WAT      O72010   2.633   0.590   9.574
23923WAT     H172011   2.659   0.620   9.482
23923WAT     H272012   2.559   0.523   9.567
23924WAT      O72013   5.187   3.018   2.969
23924WAT     H172014   5.268   3.077   2.974
23924WAT     H272015   5.152   3.019   2.875
23925WAT      O72016   7.530   5.771   5.761
23925WAT     H172017   7.527   5.836   5.684
23925WAT     H272018   7.626   5.754   5.786
23926WAT      O72019   9.510   6.963   2.426
23926WAT     H172020   9.554   6.904   2.493
23926WAT     H272021   9.501   7.055   2.464
23927WAT      O72022   4.713   9.142   6.362
23927WAT     H172023   4.661   9.114   6.443
23927WAT     H272024   4.672   9.099   6.281
23928WAT      O72025   4.648   8.503   4.057
23928WAT     H172026   4.630   8.571   4.128
23928WAT     H272027   4.561   8.476   4.014
23929WAT      O72028   1.820   6.230   1.152
23929WAT     H172029   1.721   6.236   1.142
23929WAT     H272030   1.856   6.160   1.089
23930WAT      O72031   6.847   8.426   0.324
23930WAT     H172032   6.820   8.413   0.420
23930WAT     H272033   6.858   8.337   0.280
23931WAT      O72034   5.934   2.278   4.516
23931WAT     H172035   6.034   2.280   4.527
23931WAT     H272036   5.907   2.193   4.470
23932WAT      O72037   9.747   9.136   2.594
23932WAT     H172038   9.745   9.229   2.558
23932WAT     H272039   9.814   9.082   2.543
23933WAT      O72040   5.694   8.950   3.636
23933WAT     H172041   5.769   8.987   3.581
23933WAT     H272042   5.732   8.890   3.707
23934WAT      O72043   3.655   4.597   7.047
23934WAT     H172044   3.619   4.645   7.128
23934WAT     H272045   3.593   4.522   7.024
23935WAT      O72046   3.951   2.448   8.316
23935WAT     H172047   3.901   2.433   8.402
23935WAT     H272048   3.912   2.390   8.245
23936WAT      O72049   4.547   3.546   2.251
23936WAT     H172050   4.601   3.615   2.301
23936WAT     H272051   4.564   3.456   2.291
23937WAT      O72052   9.576   8.424   4.652
23937WAT     H172053   9.552   8.517   4.622
23937WAT     H272054   9.675   8.412   4.648
23938WAT      O72055   4.432   8.620   6.525
23938WAT     H172056   4.506   8.555   6.538
23938WAT     H272057   4.468   8.713   6.524
23939WAT      O72058   2.950   0.673   4.587
23939WAT     H172059   2.880   0.743   4.595
23939WAT     H272060   2.988   0.674   4.494
23940WAT      O72061   0.145   7.744   6.835
23940WAT     H172062   0.134   7.652   6.873
23940WAT     H272063   0.239   7.774   6.847
23941WAT      O72064   7.265   8.594   8.366
23941WAT     H172065   7.350   8.595   8.312
23941WAT     H272066   7.222   8.684   8.361
23942WAT      O72067   8.276   3.140   6.920
23942WAT     H172068   8.190   3.136   6.971
23942WAT     H272069   8.311   3.233   6.922
23943WAT      O72070   3.536   7.649   9.494
23943WAT     H172071   3.549   7.693   9.583
23943WAT     H272072   3.499   7.715   9.429
23944WAT      O72073   3.998   3.887   5.783
23944WAT     H172074   3.956   3.875   5.872
23944WAT     H272075   4.079   3.829   5.776
23945WAT      O72076   9.282   1.808   0.717
23945WAT     H172077   9.254   1.813   0.813
23945WAT     H272078   9.254   1.720   0.678
23946WAT      O72079   1.798   8.348   6.489
23946WAT     H172080   1.840   8.262   6.517
23946WAT     H272081   1.858   8.395   6.424
23947WAT      O72082   0.386   4.289   1.674
23947WAT     H172083   0.396   4.353   1.599
23947WAT     H272084   0.323   4.216   1.647
23948WAT      O72085   4.626   6.530   6.956
23948WAT     H172086   4.704   6.546   6.896
23948WAT     H272087   4.545   6.509   6.900
23949WAT      O72088   6.841   5.670   3.934
23949WAT     H172089   6.852   5.721   3.849
23949WAT     H272090   6.908   5.597   3.938
23950WAT      O72091   8.081   1.253   1.255
23950WAT     H172092   7.993   1.298   1.267
23950WAT     H272093   8.155   1.317   1.274
23951WAT      O72094   0.349   6.454   2.082
23951WAT     H172095   0.339   6.505   2.168
23951WAT     H272096   0.443   6.423   2.072
23952WAT      O72097   8.512   2.313   2.409
23952WAT     H172098   8.508   2.290   2.312
23952WAT     H272099   8.460   2.245   2.461
23953WAT      O72100   8.881   1.428   7.579
23953WAT     H172101   8.821   1.351   7.600
23953WAT     H272102   8.825   1.506   7.548
23954WAT      O72103   5.118   1.432   0.895
23954WAT     H172104   5.187   1.459   0.828
23954WAT     H272105   5.028   1.465   0.865
23955WAT      O72106   8.886   3.573   2.571
23955WAT     H172107   8.918   3.661   2.538
23955WAT     H272108   8.786   3.570   2.567
23956WAT      O72109   9.332   9.365   4.616
23956WAT     H172110   9.275   9.352   4.535
23956WAT     H272111   9.384   9.450   4.606
23957WAT      O72112   4.253   8.605   4.955
23957WAT     H172113   4.304   8.682   4.994
23957WAT     H272114   4.296   8.576   4.869
23958WAT      O72115   4.408   0.183   9.757
23958WAT     H172116   4.368   0.234   9.681
23958WAT     H272117   4.450   0.099   9.722
23959WAT      O72118   2.958   0.225   5.973
23959WAT     H172119   2.955   0.299   5.906
23959WAT     H272120   3.048   0.182   5.971
23960WAT      O72121   0.316   9.000   9.645
23960WAT     H172122   0.242   8.990   9.711
23960WAT     H272123   0.392   9.049   9.687
23961WAT      O72124   6.200   8.336   9.786
23961WAT     H172125   6.269   8.297   9.847
23961WAT     H272126   6.110   8.330   9.829
23962WAT      O72127   5.342   1.157   3.392
23962WAT     H172128   5.380   1.110   3.471
23962WAT     H272129   5.401   1.234   3.367
23963WAT      O72130   3.144   7.782   5.269
23963WAT     H172131   3.143   7.837   5.185
23963WAT     H272132   3.210   7.820   5.333
23964WAT      O72133   7.045   9.440   4.288
23964WAT     H172134   7.000   9.450   4.377
23964WAT     H272135   7.103   9.358   4.290
23965WAT      O72136   7.605   0.406   3.736
23965WAT     H172137   7.507   0.425   3.743
23965WAT     H272138   7.653   0.488   3.706
23966WAT      O72139   7.048   4.083   7.254
23966WAT     H172140   7.025   3.986   7.243
23966WAT     H272141   6.965   4.134   7.275
23967WAT      O72142   3.346   4.129   3.043
23967WAT     H172143   3.292   4.212   3.030
23967WAT     H272144   3.286   4.049   3.031
23968WAT      O72145   7.147   6.704   7.644
23968WAT     H172146   7.200   6.682   7.726
23968WAT     H272147   7.082   6.777   7.666
23969WAT      O72148   4.324   5.460   0.260
23969WAT     H172149   4.312   5.466   0.359
23969WAT     H272150   4.273   5.533   0.216
23970WAT      O72151   2.485   8.380   4.939
23970WAT     H172152   2.490   8.360   5.037
23970WAT     H272153   2.445   8.302   4.892
23971WAT      O72154   6.253   4.739   2.607
23971WAT     H172155   6.250   4.837   2.625
23971WAT     H272156   6.306   4.693   2.678
23972WAT      O72157   0.150   6.113   0.409
23972WAT     H172158   0.068   6.074   0.452
23972WAT     H272159   0.144   6.213   0.410
23973WAT      O72160   9.198   0.726   4.256
23973WAT     H172161   9.255   0.666   4.200
23973WAT     H272162   9.109   0.683   4.272
23974WAT      O72163   9.886   5.373   1.479
23974WAT     H172164   9.924   5.282   1.495
23974WAT     H272165   9.831   5.401   1.558
23975WAT      O72166   7.920   9.414   8.175
23975WAT     H172167   8.019   9.400   8.173
23975WAT     H272168   7.884   9.417   8.082
23976WAT      O72169   1.548   9.353   0.794
23976WAT     H172170   1.485   9.421   0.830
23976WAT     H272171   1.525   9.333   0.698
23977WAT      O72172   0.120   7.697   0.242
23977WAT     H172173   0.131   7.718   0.339
23977WAT     H272174   0.101   7.782   0.192
23978WAT      O72175   2.546   4.449   3.286
23978WAT     H172176   2.557   4.362   3.334
23978WAT     H272177   2.452   4.481   3.295
23979WAT      O72178   7.557   9.203   5.600
23979WAT     H172179   7.632   9.230   5.660
23979WAT     H272180   7.479   9.174   5.655
23980WAT      O72181   8.174   6.230   9.776
23980WAT     H172182   8.220   6.173   9.843
23980WAT     H272183   8.235   6.303   9.746
23981WAT      O72184   2.227   1.096   8.698
23981WAT     H172185   2.195   1.032   8.628
23981WAT     H272186   2.325   1.112   8.687
23982WAT      O72187   8.554   8.725   6.901
23982WAT     H172188   8.641   8.686   6.874
23982WAT     H272189   8.480   8.662   6.878
23983WAT      O72190   2.752   7.455   8.126
23983WAT     H172191   2.735   7.548   8.095
23983WAT     H272192   2.746   7.392   8.048
23984WAT      O72193   7.955   0.321   3.178
23984WAT     H172194   7.881   0.380   3.210
23984WAT     H272195   8.015   0.298   3.254
23985WAT      O72196   0.199   9.427   7.664
23985WAT     H172197   0.148   9.343   7.645
23985WAT     H272198   0.184   9.455   7.759
23986WAT      O72199   1.849   4.533   6.936
23986WAT     H172200   1.772   4.596   6.926
23986WAT     H272201   1.928   4.582   6.973
23987WAT      O72202   9.637   3.135   0.519
23987WAT     H172203   9.639   3.041   0.487
23987WAT     H272204   9.570   3.144   0.593
23988WAT      O72205   2.549   2.337   2.525
23988WAT     H172206   2.549   2.359   2.428
23988WAT     H272207   2.633   2.372   2.567
23989WAT      O72208   9.874   9.172   1.907
23989WAT     H172209   9.873   9.203   2.002
23989WAT     H272210   9.919   9.082   1.903
23990WAT      O72211   3.884   0.312   4.876
23990WAT     H172212   3.861   0.281   4.784
23990WAT     H272213   3.969   0.365   4.874
23991WAT      O72214   5.547   1.736   2.665
23991WAT     H172215   5.578   1.667   2.730
23991WAT     H272216   5.561   1.704   2.571
23992WAT      O72217   8.958   2.208   1.807
23992WAT     H172218   8.902   2.282   1.769
23992WAT     H272219   9.037   2.246   1.854
23993WAT      O72220   2.880   2.759   8.887
23993WAT     H172221   2.880   2.684   8.954
23993WAT     H272222   2.965   2.811   8.895
23994WAT      O72223   4.917   9.198   3.277
23994WAT     H172224   4.923   9.260   3.355
23994WAT     H272225   4.822   9.169   3.264
23995WAT      O72226   5.295   6.820   1.747
23995WAT     H172227   5.201   6.795   1.773
23995WAT     H272228   5.347   6.842   1.830
23996WAT      O72229   7.606   7.899   0.008
23996WAT     H172230   7.513   7.868  -0.012
23996WAT     H272231   7.663   7.820   0.032
23997WAT      O72232   5.474   2.629   3.734
23997WAT     H172233   5.422   2.590   3.659
23997WAT     H272234   5.428   2.610   3.821
23998WAT      O72235   2.997   3.906   6.917
23998WAT     H172236   3.063   3.937   6.849
23998WAT     H272237   3.035   3.828   6.967
23999WAT      O72238   7.688   3.341   1.603
23999WAT     H172239   7.750   3.403   1.554
23999WAT     H272240   7.729   3.317   1.691
24000WAT      O72241   2.823   9.381   8.983
24000WAT     H172242   2.883   9.344   8.913
24000WAT     H272243   2.797   9.308   9.047
24001WAT      O72244   2.604   6.200   9.391
24001WAT     H172245   2.617   6.168   9.485
24001WAT     H272246   2.615   6.124   9.327
24002WAT      O72247   9.066   6.682   4.439
24002WAT     H172248   9.026   6.709   4.351
24002WAT     H272249   9.165   6.693   4.435
24003WAT      O72250   1.398   3.087   6.588
24003WAT     H172251   1.358   3.178   6.601
24003WAT     H272252   1.446   3.060   6.671
24004WAT      O72253   2.082   3.037   7.541
24004WAT     H172254   2.000   2.991   7.507
24004WAT     H272255   2.087   3.026   7.641
24005WAT      O72256   4.665   3.970   7.627
24005WAT     H172257   4.683   3.894   7.564
24005WAT     H272258   4.696   4.055   7.586
24006WAT      O72259   0.038   2.956   3.713
24006WAT     H172260   0.033   3.024   3.786
24006WAT     H272261   0.121   2.901   3.723
24007WAT      O72262   6.443   6.826   5.308
24007WAT     H172263   6.484   6.793   5.393
24007WAT     H272264   6.500   6.898   5.269
24008WAT      O72265   2.271   9.248   6.593
24008WAT     H172266   2.204   9.313   6.629
24008WAT     H272267   2.335   9.296   6.533
24009WAT      O72268   3.828   7.340   1.746
24009WAT     H172269   3.911   7.302   1.706
24009WAT     H272270   3.840   7.351   1.845
24010WAT      O72271   5.542   8.758   6.837
24010WAT     H172272   5.588   8.721   6.918
24010WAT     H272273   5.548   8.857   6.837
24011WAT      O72274   2.318   0.858   3.029
24011WAT     H172275   2.315   0.945   2.979
24011WAT     H272276   2.260   0.864   3.110
24012WAT      O72277   7.683   1.076   2.090
24012WAT     H172278   7.689   1.056   2.188
24012WAT     H272279   7.589   1.096   2.066
24013WAT      O72280   9.566   7.957   9.559
24013WAT     H172281   9.554   8.054   9.578
24013WAT     H272282   9.660   7.939   9.530
24014WAT      O72283   0.573   0.347   6.186
24014WAT     H172284   0.554   0.434   6.139
24014WAT     H272285   0.560   0.271   6.122
24015WAT      O72286   6.298   0.002   0.843
24015WAT     H172287   6.339   0.016   0.753
24015WAT     H272288   6.262   0.089   0.877
24016WAT      O72289   2.081   5.850   0.272
24016WAT     H172290   1.993   5.846   0.224
24016WAT     H272291   2.066   5.884   0.365
24017WAT      O72292   9.250   8.252   7.215
24017WAT     H172293   9.303   8.228   7.296
24017WAT     H272294   9.209   8.169   7.176
24018WAT      O72295   6.956   4.045   7.642
24018WAT     H172296   6.923   4.108   7.712
24018WAT     H272297   6.921   3.953   7.662
24019WAT      O72298   4.536   6.459   5.744
24019WAT     H172299   4.441   6.492   5.747
24019WAT     H272300   4.598   6.537   5.734
24020WAT      O72301   4.818   1.828   5.467
24020WAT     H172302   4.746   1.762   5.487
24020WAT     H272303   4.786   1.920   5.491
24021WAT      O72304   5.025   8.808   5.584
24021WAT     H172305   4.971   8.883   5.544
24021WAT     H272306   5.038   8.825   5.682
24022WAT      O72307   2.436   7.543   8.431
24022WAT     H172308   2.403   7.547   8.525
24022WAT     H272309   2.503   7.617   8.417
24023WAT      O72310   9.779   3.840   1.807
24023WAT     H172311   9.775   3.908   1.733
24023WAT     H272312   9.869   3.843   1.850
24024WAT      O72313   7.345   3.943   0.119
24024WAT     H172314   7.267   3.957   0.181
24024WAT     H272315   7.328   3.992   0.033
24025WAT      O72316   3.543   6.310   2.580
24025WAT     H172317   3.528   6.252   2.660
24025WAT     H272318   3.495   6.272   2.501
24026WAT      O72319   0.928   6.282   0.771
24026WAT     H172320   0.910   6.272   0.868
24026WAT     H272321   0.863   6.347   0.731
24027WAT      O72322   2.308   7.844   4.379
24027WAT     H172323   2.332   7.814   4.287
24027WAT     H272324   2.330   7.940   4.390
24028WAT      O72325   7.748   8.936   8.801
24028WAT     H172326   7.737   9.015   8.740
24028WAT     H272327   7.750   8.968   8.896
24029WAT      O72328   0.898   2.628   9.864
24029WAT     H172329   0.825   2.641   9.798
24029WAT     H272330   0.900   2.706   9.927
24030WAT      O72331   6.379   9.106   2.712
24030WAT     H172332   6.325   9.184   2.745
24030WAT     H272333   6.344   9.022   2.753
24031WAT      O72334   7.841   4.231   0.191
24031WAT     H172335   7.750   4.188   0.193
24031WAT     H272336   7.847   4.301   0.262
24032WAT      O72337   8.180   1.458   3.590
24032WAT     H172338   8.136   1.368   3.593
24032WAT     H272339   8.110   1.527   3.572
24033WAT      O72340   1.402   3.954   2.420
24033WAT     H172341   1.307   3.925   2.408
24033WAT     H272342   1.408   4.019   2.496
24034WAT      O72343   5.098   8.606   2.380
24034WAT     H172344   5.153   8.628   2.461
24034WAT     H272345   5.121   8.514   2.348
24035WAT      O72346   8.919   6.734   7.582
24035WAT     H172347   8.909   6.712   7.485
24035WAT     H272348   8.829   6.739   7.625
24036WAT      O72349   4.583   5.659   1.221
24036WAT     H172350   4.515   5.681   1.290
24036WAT     H272351   4.632   5.743   1.194
24037WAT      O72352   5.318   6.126   6.632
24037WAT     H172353   5.412   6.130   6.665
24037WAT     H272354   5.266   6.062   6.689
24038WAT      O72355   2.271   4.488   2.973
24038WAT     H172356   2.257   4.396   3.009
24038WAT     H272357   2.322   4.543   3.040
24039WAT      O72358   3.277   9.340   7.825
24039WAT     H172359   3.241   9.258   7.869
24039WAT     H272360   3.202   9.403   7.806
24040WAT      O72361   4.398   8.202   3.649
24040WAT     H172362   4.426   8.152   3.731
24040WAT     H272363   4.475   8.256   3.615
24041WAT      O72364   7.981   0.471   6.438
24041WAT     H172365   7.903   0.426   6.483
24041WAT     H272366   8.066   0.425   6.465
24042WAT      O72367   0.964   1.556   1.994
24042WAT     H172368   0.899   1.522   1.926
24042WAT     H272369   1.034   1.486   2.011
24043WAT      O72370   9.283   3.481   1.968
24043WAT     H172371   9.295   3.467   2.066
24043WAT     H272372   9.302   3.576   1.945
24044WAT      O72373   9.767   5.714   1.763
24044WAT     H172374   9.847   5.723   1.703
24044WAT     H272375   9.702   5.787   1.742
24045WAT      O72376   0.184   6.839   0.813
24045WAT     H172377   0.199   6.844   0.714
24045WAT     H272378   0.152   6.929   0.846
24046WAT      O72379   6.381   8.117   8.401
24046WAT     H172380   6.369   8.086   8.496
24046WAT     H272381   6.474   8.153   8.390
24047WAT      O72382   0.653   4.428   0.924
24047WAT     H172383   0.610   4.518   0.916
24047WAT     H272384   0.743   4.437   0.966
24048WAT      O72385   9.658   0.835   1.030
24048WAT     H172386   9.616   0.745   1.015
24048WAT     H272387   9.719   0.830   1.109
24049WAT      O72388   4.130   8.437   7.163
24049WAT     H172389   4.038   8.398   7.158
24049WAT     H272390   4.148   8.466   7.257
24050WAT      O72391   8.811   8.240   0.970
24050WAT     H172392   8.799   8.183   0.888
24050WAT     H272393   8.849   8.184   1.044
24051WAT      O72394   8.865   5.888   0.559
24051WAT     H172395   8.843   5.957   0.490
24051WAT     H272396   8.824   5.914   0.646
24052WAT      O72397   0.308   0.481   4.191
24052WAT     H172398   0.228   0.539   4.205
24052WAT     H272399   0.357   0.511   4.110
24053WAT      O72400   2.206   0.591   3.172
24053WAT     H172401   2.241   0.601   3.080
24053WAT     H272402   2.266   0.531   3.225
24054WAT      O72403   0.727   7.823   8.320
24054WAT     H172404   0.731   7.834   8.220
24054WAT     H272405   0.733   7.725   8.342
24055WAT      O72406   8.151   5.613   8.634
24055WAT     H172407   8.094   5.536   8.663
24055WAT     H272408   8.097   5.676   8.578
24056WAT      O72409   0.007   9.118   7.099
24056WAT     H172410  -0.052   9.118   7.180
24056WAT     H272411   0.037   9.024   7.080
24057WAT      O72412   0.281   9.304   3.299
24057WAT     H172413   0.357   9.368   3.308
24057WAT     H272414   0.203   9.337   3.351
24058WAT      O72415   6.070   9.044   8.316
24058WAT     H172416   6.096   9.035   8.412
24058WAT     H272417   6.097   9.134   8.282
24059WAT      O72418   4.679   7.168   6.539
24059WAT     H172419   4.699   7.141   6.633
24059WAT     H272420   4.611   7.105   6.499
24060WAT      O72421   5.553   4.080   9.527
24060WAT     H172422   5.460   4.112   9.511
24060WAT     H272423   5.576   4.010   9.461
24061WAT      O72424   5.193   5.154   5.127
24061WAT     H172425   5.154   5.140   5.036
24061WAT     H272426   5.120   5.175   5.192
24062WAT      O72427   5.028   0.686   1.778
24062WAT     H172428   5.024   0.619   1.853
24062WAT     H272429   5.115   0.734   1.781
24063WAT      O72430   0.276   8.607   4.867
24063WAT     H172431   0.178   8.600   4.850
24063WAT     H272432   0.325   8.550   4.801
24064WAT      O72433   6.493   8.461   9.121
24064WAT     H172434   6.504   8.429   9.027
24064WAT     H272435   6.495   8.383   9.183
24065WAT      O72436   2.732   8.180   5.494
24065WAT     H172437   2.718   8.083   5.515
24065WAT     H272438   2.644   8.228   5.497
24066WAT      O72439   8.353   2.509   4.011
24066WAT     H172440   8.261   2.537   4.038
24066WAT     H272441   8.421   2.560   4.064
24067WAT      O72442   9.486   1.989   0.740
24067WAT     H172443   9.423   1.913   0.728
24067WAT     H272444   9.443   2.073   0.708
24068WAT      O72445   5.843   3.680   5.334
24068WAT     H172446   5.882   3.606   5.388
24068WAT     H272447   5.804   3.643   5.249
24069WAT      O72448   4.861   7.411   2.735
24069WAT     H172449   4.946   7.463   2.741
24069WAT     H272450   4.882   7.314   2.721
24070WAT      O72451   2.231   0.173   2.686
24070WAT     H172452   2.161   0.231   2.642
24070WAT     H272453   2.202   0.077   2.681
24071WAT      O72454   3.863   5.408   3.264
24071WAT     H172455   3.944   5.445   3.310
24071WAT     H272456   3.882   5.398   3.167
24072WAT      O72457   5.423   0.500   0.378
24072WAT     H172458   5.415   0.402   0.397
24072WAT     H272459   5.440   0.549   0.464
24073WAT      O72460   1.173   7.560   1.173
24073WAT     H172461   1.241   7.613   1.123
24073WAT     H272462   1.215   7.518   1.253
24074WAT      O72463   4.660   6.229   6.230
24074WAT     H172464   4.623   6.202   6.141
24074WAT     H272465   4.755   6.200   6.237
24075WAT      O72466   5.489   1.737   6.911
24075WAT     H172467   5.412   1.747   6.975
24075WAT     H272468   5.574   1.723   6.963
24076WAT      O72469   6.890   7.672   7.410
24076WAT     H172470   6.819   7.679   7.340
24076WAT     H272471   6.978   7.649   7.366
24077WAT      O72472   0.217   0.281   9.054
24077WAT     H172473   0.268   0.244   8.977
24077WAT     H272474   0.139   0.222   9.074
24078WAT      O72475   7.074   9.674   2.952
24078WAT     H172476   7.048   9.578   2.938
24078WAT     H272477   7.166   9.690   2.915
24079WAT      O72478   7.580   0.026   6.244
24079WAT     H172479   7.519   0.042   6.322
24079WAT     H272480   7.671   0.001   6.278
24080WAT      O72481   0.309   0.025   2.640
24080WAT     H172482   0.227   0.026   2.697
24080WAT     H272483   0.387  -0.006   2.694
24081WAT      O72484   3.396   1.784   8.794
24081WAT     H172485   3.428   1.689   8.783
24081WAT     H272486   3.475   1.842   8.815
24082WAT      O72487   7.815   7.424   7.622
24082WAT     H172488   7.831   7.416   7.524
24082WAT     H272489   7.842   7.339   7.668
24083WAT      O72490   4.006   9.107   1.851
24083WAT     H172491   3.932   9.161   1.812
24083WAT     H272492   4.034   9.037   1.786
24084WAT      O72493   1.335   1.245   2.173
24084WAT     H172494   1.433   1.266   2.176
24084WAT     H272495   1.290   1.287   2.252
24085WAT      O72496   7.651   7.704   0.755
24085WAT     H172497   7.720   7.722   0.685
24085WAT     H272498   7.629   7.606   0.757
24086WAT      O72499   9.364   2.200   2.648
24086WAT     H172500   9.371   2.102   2.664
24086WAT     H272501   9.378   2.249   2.734
24087WAT      O72502   8.144   4.541   7.174
24087WAT     H172503   8.104   4.491   7.098
24087WAT     H272504   8.243   4.549   7.162
24088WAT      O72505   5.995   3.453   0.209
24088WAT     H172506   5.963   3.415   0.122
24088WAT     H272507   6.079   3.505   0.195
24089WAT      O72508   3.764   7.766   7.479
24089WAT     H172509   3.738   7.726   7.567
24089WAT     H272510   3.719   7.716   7.405
24090WAT      O72511   3.607   5.159   9.606
24090WAT     H172512   3.559   5.201   9.528
24090WAT     H272513   3.695   5.205   9.619
24091WAT      O72514   2.709   9.265   2.237
24091WAT     H172515   2.642   9.209   2.188
24091WAT     H272516   2.793   9.213   2.250
24092WAT      O72517   9.873   2.983   8.481
24092WAT     H172518   9.818   3.035   8.547
24092WAT     H272519   9.918   2.907   8.527
24093WAT      O72520   1.253   7.792   6.607
24093WAT     H172521   1.273   7.742   6.523
24093WAT     H272522   1.323   7.861   6.623
24094WAT      O72523   2.623   3.645   2.933
24094WAT     H172524   2.635   3.687   2.842
24094WAT     H272525   2.526   3.639   2.954
24095WAT      O72526   9.804   6.844   0.010
24095WAT     H172527   9.824   6.914   0.079
24095WAT     H272528   9.837   6.875  -0.079
24096WAT      O72529   5.347   7.023   5.364
24096WAT     H172530   5.338   6.929   5.394
24096WAT     H272531   5.336   7.085   5.442
24097WAT      O72532   7.842   9.731   5.404
24097WAT     H172533   7.828   9.737   5.305
24097WAT     H272534   7.828   9.637   5.434
24098WAT      O72535   7.562   2.164   9.727
24098WAT     H172536   7.639   2.134   9.671
24098WAT     H272537   7.478   2.156   9.675
24099WAT      O72538   0.115   5.501   2.258
24099WAT     H172539   0.143   5.568   2.328
24099WAT     H272540   0.151   5.528   2.169
24100WAT      O72541   7.943   0.765   1.007
24100WAT     H172542   7.973   0.765   1.102
24100WAT     H272543   8.000   0.827   0.954
24101WAT      O72544   9.766   7.341   0.744
24101WAT     H172545   9.818   7.290   0.676
24101WAT     H272546   9.825   7.408   0.789
24102WAT      O72547   8.775   1.031   4.460
24102WAT     H172548   8.731   1.121   4.457
24102WAT     H272549   8.710   0.960   4.433
24103WAT      O72550   4.603   5.800   2.107
24103WAT     H172551   4.672   5.736   2.073
24103WAT     H272552   4.648   5.877   2.152
24104WAT      O72553   7.283   7.085   1.817
24104WAT     H172554   7.302   6.989   1.798
24104WAT     H272555   7.306   7.105   1.912
24105WAT      O72556   9.666   5.979   3.632
24105WAT     H172557   9.628   5.891   3.659
24105WAT     H272558   9.598   6.051   3.647
24106WAT      O72559   9.528   9.308   2.194
24106WAT     H172560   9.478   9.256   2.125
24106WAT     H272561   9.510   9.405   2.183
24107WAT      O72562   8.607   0.656   6.233
24107WAT     H172563   8.623   0.671   6.330
24107WAT     H272564   8.640   0.565   6.207
24108WAT      O72565   3.311   3.635   0.966
24108WAT     H172566   3.246   3.559   0.964
24108WAT     H272567   3.378   3.625   0.893
24109WAT      O72568   9.212   3.853   6.897
24109WAT     H172569   9.169   3.923   6.841
24109WAT     H272570   9.146   3.780   6.916
24110WAT      O72571   3.374   8.822   0.577
24110WAT     H172572   3.383   8.806   0.478
24110WAT     H272573   3.278   8.842   0.598
24111WAT      O72574   3.183   2.003   2.928
24111WAT     H172575   3.124   2.073   2.887
24111WAT     H272576   3.227   1.949   2.856
24112WAT      O72577   8.954   9.464   6.081
24112WAT     H172578   9.035   9.512   6.047
24112WAT     H272579   8.979   9.370   6.105
24113WAT      O72580   7.209   6.810   6.257
24113WAT     H172581   7.141   6.843   6.322
24113WAT     H272582   7.208   6.868   6.176
24114WAT      O72583   0.854   7.322   5.571
24114WAT     H172584   0.896   7.231   5.567
24114WAT     H272585   0.922   7.392   5.549
24115WAT      O72586   2.200   3.667   4.314
24115WAT     H172587   2.149   3.606   4.375
24115WAT     H272588   2.290   3.687   4.354
24116WAT      O72589   0.398   1.870   6.983
24116WAT     H172590   0.463   1.852   7.057
24116WAT     H272591   0.366   1.783   6.945
24117WAT      O72592   4.081   8.346   3.302
24117WAT     H172593   4.162   8.335   3.244
24117WAT     H272594   4.109   8.341   3.398
24118WAT      O72595   7.310   4.870   9.789
24118WAT     H172596   7.406   4.885   9.813
24118WAT     H272597   7.276   4.947   9.735
24119WAT      O72598   5.843   2.424   7.692
24119WAT     H172599   5.779   2.413   7.616
24119WAT     H272600   5.930   2.459   7.658
24120WAT      O72601   1.023   8.847   7.105
24120WAT     H172602   1.036   8.945   7.087
24120WAT     H272603   0.937   8.817   7.064
24121WAT      O72604   0.527   2.551   3.132
24121WAT     H172605   0.611   2.503   3.105
24121WAT     H272606   0.499   2.520   3.224
24122WAT      O72607   7.719   4.567   4.829
24122WAT     H172608   7.665   4.646   4.797
24122WAT     H272609   7.804   4.562   4.777
24123WAT      O72610   2.466   4.015   1.071
24123WAT     H172611   2.446   3.921   1.045
24123WAT     H272612   2.518   4.016   1.156
24124WAT      O72613   6.912   1.727   3.432
24124WAT     H172614   6.948   1.795   3.496
24124WAT     H272615   6.855   1.772   3.363
24125WAT      O72616   0.626   8.714   9.033
24125WAT     H172617   0.545   8.660   9.058
24125WAT     H272618   0.632   8.793   9.094
24126WAT      O72619   3.989   4.089   3.474
24126WAT     H172620   4.036   4.137   3.399
24126WAT     H272621   3.891   4.086   3.456
24127WAT      O72622   4.427   0.569   1.630
24127WAT     H172623   4.525   0.548   1.634
24127WAT     H272624   4.415   0.668   1.636
24128WAT      O72625   5.875   5.930   0.719
24128WAT     H172626   5.915   6.010   0.674
24128WAT     H272627   5.776   5.929   0.704
24129WAT      O72628   0.442   7.637   0.540
24129WAT     H172629   0.393   7.724   0.542
24129WAT     H272630   0.536   7.652   0.510
24130WAT      O72631   1.213   7.977   9.331
24130WAT     H172632   1.192   7.953   9.426
24130WAT     H272633   1.130   8.013   9.288
24131WAT      O72634   9.498   8.827   1.221
24131WAT     H172635   9.417   8.785   1.262
24131WAT     H272636   9.470   8.885   1.144
24132WAT      O72637   0.533   5.137   3.252
24132WAT     H172638   0.464   5.064   3.263
24132WAT     H272639   0.531   5.170   3.158
24133WAT      O72640   3.085   3.057   8.428
24133WAT     H172641   3.118   3.120   8.499
24133WAT     H272642   3.052   2.973   8.471
24134WAT      O72643   0.823   9.667   2.316
24134WAT     H172644   0.788   9.580   2.350
24134WAT     H272645   0.917   9.680   2.349
24135WAT      O72646   9.086   1.296   4.885
24135WAT     H172647   9.045   1.205   4.890
24135WAT     H272648   9.132   1.317   4.971
24136WAT      O72649   1.042   2.252   3.484
24136WAT     H172650   0.993   2.237   3.570
24136WAT     H272651   0.977   2.284   3.415
24137WAT      O72652   5.343   3.748   1.057
24137WAT     H172653   5.390   3.661   1.073
24137WAT     H272654   5.245   3.732   1.051
24138WAT      O72655   1.713   8.223   3.821
24138WAT     H172656   1.779   8.205   3.748
24138WAT     H272657   1.661   8.140   3.840
24139WAT      O72658   2.111   8.535   4.806
24139WAT     H172659   2.048   8.457   4.802
24139WAT     H272660   2.080   8.606   4.743
24140WAT      O72661   0.158   2.162   8.121
24140WAT     H172662   0.125   2.234   8.182
24140WAT     H272663   0.155   2.074   8.168
24141WAT      O72664   1.312   8.626   8.435
24141WAT     H172665   1.257   8.683   8.374
24141WAT     H272666   1.315   8.533   8.400
24142WAT      O72667   1.869   0.046   8.407
24142WAT     H172668   1.920   0.131   8.415
24142WAT     H272669   1.794   0.057   8.342
24143WAT      O72670   5.797   3.107   4.326
24143WAT     H172671   5.841   3.085   4.413
24143WAT     H272672   5.855   3.076   4.250
24144WAT      O72673   7.651   9.410   2.961
24144WAT     H172674   7.609   9.410   3.052
24144WAT     H272675   7.668   9.316   2.932
24145WAT      O72676   0.866   1.933   6.975
24145WAT     H172677   0.889   2.017   6.927
24145WAT     H272678   0.868   1.856   6.911
24146WAT      O72679   1.367   4.204   5.596
24146WAT     H172680   1.289   4.166   5.647
24146WAT     H272681   1.344   4.295   5.563
24147WAT      O72682   8.160   0.544   2.823
24147WAT     H172683   8.096   0.594   2.765
24147WAT     H272684   8.235   0.508   2.768
24148WAT      O72685   8.957   1.442   8.380
24148WAT     H172686   9.048   1.401   8.391
24148WAT     H272687   8.891   1.370   8.357
24149WAT      O72688   0.055   1.209   1.615
24149WAT     H172689  -0.013   1.146   1.576
24149WAT     H272690   0.112   1.246   1.541
24150WAT      O72691   7.739   7.358   4.275
24150WAT     H172692   7.649   7.342   4.236
24150WAT     H272693   7.806   7.368   4.202
24151WAT      O72694   6.822   2.237   1.804
24151WAT     H172695   6.742   2.225   1.862
24151WAT     H272696   6.859   2.148   1.778
24152WAT      O72697   7.663   8.749   2.155
24152WAT     H172698   7.658   8.649   2.161
24152WAT     H272699   7.670   8.776   2.059
24153WAT      O72700   5.102   4.942   7.111
24153WAT     H172701   5.157   5.005   7.164
24153WAT     H272702   5.160   4.869   7.074
24154WAT      O72703   1.500   1.393   2.499
24154WAT     H172704   1.568   1.358   2.565
24154WAT     H272705   1.408   1.372   2.532
24155WAT      O72706   9.231   4.392   1.897
24155WAT     H172707   9.173   4.315   1.869
24155WAT     H272708   9.187   4.478   1.872
24156WAT      O72709   4.006   7.200   1.052
24156WAT     H172710   3.979   7.104   1.046
24156WAT     H272711   4.032   7.222   1.146
24157WAT      O72712   9.090   4.573   6.846
24157WAT     H172713   9.031   4.631   6.791
24157WAT     H272714   9.138   4.629   6.915
24158WAT      O72715   7.388   4.913   8.763
24158WAT     H172716   7.411   4.969   8.842
24158WAT     H272717   7.323   4.842   8.790
24159WAT      O72718   3.711   2.331   7.706
24159WAT     H172719   3.750   2.284   7.785
24159WAT     H272720   3.741   2.426   7.707
24160WAT      O72721   7.954   2.518   4.738
24160WAT     H172722   8.023   2.539   4.807
24160WAT     H272723   7.863   2.529   4.777
24161WAT      O72724   6.319   4.210   3.661
24161WAT     H172725   6.398   4.215   3.722
24161WAT     H272726   6.334   4.138   3.592
24162WAT      O72727   9.614   0.370   4.878
24162WAT     H172728   9.617   0.311   4.797
24162WAT     H272729   9.520   0.400   4.895
24163WAT      O72730   4.939   9.292   8.017
24163WAT     H172731   4.940   9.222   7.946
24163WAT     H272732   4.980   9.376   7.981
24164WAT      O72733   9.058   3.395   4.015
24164WAT     H172734   8.959   3.408   4.016
24164WAT     H272735   9.104   3.483   4.024
24165WAT      O72736   6.049   4.435   8.432
24165WAT     H172737   5.993   4.487   8.497
24165WAT     H272738   6.132   4.403   8.479
24166WAT      O72739   8.005   6.453   4.106
24166WAT     H172740   8.092   6.489   4.137
24166WAT     H272741   7.936   6.525   4.108
24167WAT      O72742   2.628   1.061   7.558
24167WAT     H172743   2.590   0.996   7.491
24167WAT     H272744   2.567   1.065   7.637
24168WAT      O72745   0.179   3.962   1.665
24168WAT     H172746   0.229   3.920   1.741
24168WAT     H272747   0.143   4.051   1.694
24169WAT      O72748   6.170   6.212   4.653
24169WAT     H172749   6.122   6.268   4.586
24169WAT     H272750   6.142   6.116   4.643
24170WAT      O72751   0.777   0.668   1.325
24170WAT     H172752   0.868   0.650   1.287
24170WAT     H272753   0.770   0.763   1.353
24171WAT      O72754   5.663   2.390   1.548
24171WAT     H172755   5.679   2.406   1.451
24171WAT     H272756   5.688   2.473   1.600
24172WAT      O72757   2.315   4.107   4.139
24172WAT     H172758   2.294   4.009   4.143
24172WAT     H272759   2.395   4.127   4.196
24173WAT      O72760   2.446   5.987   0.484
24173WAT     H172761   2.352   5.980   0.449
24173WAT     H272762   2.506   5.927   0.432
24174WAT      O72763   4.822   4.529   0.090
24174WAT     H172764   4.904   4.577   0.059
24174WAT     H272765   4.751   4.594   0.114
24175WAT      O72766   4.348   2.045   9.426
24175WAT     H172767   4.390   1.992   9.499
24175WAT     H272768   4.250   2.025   9.422
24176WAT      O72769   6.051   4.027   6.719
24176WAT     H172770   5.953   4.047   6.714
24176WAT     H272771   6.103   4.108   6.694
24177WAT      O72772   2.499   7.840   7.231
24177WAT     H172773   2.580   7.845   7.290
24177WAT     H272774   2.421   7.880   7.279
24178WAT      O72775   3.969   4.067   0.285
24178WAT     H172776   4.038   4.073   0.357
24178WAT     H272777   3.906   3.992   0.304
24179WAT      O72778   0.910   3.245   4.876
24179WAT     H172779   0.852   3.254   4.795
24179WAT     H272780   0.911   3.149   4.906
24180WAT      O72781   6.981   9.124   4.202
24180WAT     H172782   7.062   9.087   4.156
24180WAT     H272783   6.995   9.121   4.301
24181WAT      O72784   5.777   4.949   7.557
24181WAT     H172785   5.856   5.010   7.548
24181WAT     H272786   5.783   4.877   7.488
24182WAT      O72787   7.153   6.449   5.984
24182WAT     H172788   7.130   6.352   5.975
24182WAT     H272789   7.170   6.470   6.081
24183WAT      O72790   7.271   2.703   9.850
24183WAT     H172791   7.327   2.721   9.930
24183WAT     H272792   7.246   2.789   9.806
24184WAT      O72793   7.778   1.021   0.492
24184WAT     H172794   7.835   0.951   0.535
24184WAT     H272795   7.766   0.999   0.395
24185WAT      O72796   6.732   6.328   9.720
24185WAT     H172797   6.823   6.343   9.760
24185WAT     H272798   6.667   6.305   9.792
24186WAT      O72799   1.701   3.606   9.370
24186WAT     H172800   1.648   3.687   9.395
24186WAT     H272801   1.794   3.615   9.405
24187WAT      O72802   0.546   5.827   7.515
24187WAT     H172803   0.540   5.852   7.419
24187WAT     H272804   0.625   5.768   7.530
24188WAT      O72805   9.261   8.199   8.270
24188WAT     H172806   9.263   8.168   8.175
24188WAT     H272807   9.319   8.280   8.279
24189WAT      O72808   8.627   6.760   5.868
24189WAT     H172809   8.622   6.696   5.945
24189WAT     H272810   8.693   6.832   5.888
24190WAT      O72811   9.314   5.559   0.832
24190WAT     H172812   9.225   5.540   0.874
24190WAT     H272813   9.381   5.493   0.866
24191WAT      O72814   5.114   1.548   6.376
24191WAT     H172815   5.124   1.636   6.329
24191WAT     H272816   5.019   1.516   6.366
24192WAT      O72817   2.453   0.673   0.234
24192WAT     H172818   2.370   0.728   0.239
24192WAT     H272819   2.431   0.583   0.196
24193WAT      O72820   0.488   2.552   9.140
24193WAT     H172821   0.539   2.490   9.081
24193WAT     H272822   0.500   2.525   9.236
24194WAT      O72823   5.191   4.994   7.833
24194WAT     H172824   5.281   4.998   7.877
24194WAT     H272825   5.189   4.917   7.769
24195WAT      O72826   4.986   6.394   0.132
24195WAT     H172827   4.974   6.351   0.043
24195WAT     H272828   5.055   6.466   0.127
24196WAT      O72829   7.678   3.717   6.969
24196WAT     H172830   7.698   3.814   6.954
24196WAT     H272831   7.582   3.707   6.995
24197WAT      O72832   5.425   1.983   0.391
24197WAT     H172833   5.481   1.949   0.316
24197WAT     H272834   5.333   1.945   0.384
24198WAT      O72835   4.357   8.768   6.812
24198WAT     H172836   4.301   8.687   6.828
24198WAT     H272837   4.392   8.767   6.719
24199WAT      O72838   3.579   1.039   3.626
24199WAT     H172839   3.602   1.012   3.720
24199WAT     H272840   3.662   1.075   3.581
24200WAT      O72841   5.943   7.414   2.891
24200WAT     H172842   5.974   7.370   2.807
24200WAT     H272843   5.874   7.356   2.935
24201WAT      O72844   2.799   5.244   5.664
24201WAT     H172845   2.829   5.150   5.677
24201WAT     H272846   2.805   5.267   5.567
24202WAT      O72847   7.768   8.144   3.490
24202WAT     H172848   7.745   8.240   3.477
24202WAT     H272849   7.691   8.087   3.461
24203WAT      O72850   0.404   1.092   1.929
24203WAT     H172851   0.307   1.091   1.906
24203WAT     H272852   0.451   1.020   1.878
24204WAT      O72853   4.999   0.608   3.990
24204WAT     H172854   5.050   0.531   4.029
24204WAT     H272855   4.902   0.596   4.009
24205WAT      O72856   7.632   5.771   4.895
24205WAT     H172857   7.689   5.771   4.813
24205WAT     H272858   7.633   5.863   4.936
24206WAT      O72859   5.078   7.214   0.280
24206WAT     H172860   4.993   7.220   0.228
24206WAT     H272861   5.136   7.292   0.257
24207WAT      O72862   4.728   1.705   2.208
24207WAT     H172863   4.651   1.760   2.239
24207WAT     H272864   4.732   1.706   2.108
24208WAT      O72865   6.226   9.036   1.763
24208WAT     H172866   6.203   9.131   1.784
24208WAT     H272867   6.174   8.975   1.822
24209WAT      O72868   3.858   1.225   8.768
24209WAT     H172869   3.946   1.185   8.741
24209WAT     H272870   3.845   1.215   8.866
24210WAT      O72871   0.517   4.871   8.199
24210WAT     H172872   0.604   4.870   8.247
24210WAT     H272873   0.481   4.964   8.195
24211WAT      O72874   9.842   6.134   9.545
24211WAT     H172875   9.771   6.144   9.615
24211WAT     H272876   9.806   6.162   9.456
24212WAT      O72877   5.913   3.316   6.535
24212WAT     H172878   5.869   3.267   6.610
24212WAT     H272879   5.861   3.398   6.514
24213WAT      O72880   1.377   1.562   1.485
24213WAT     H172881   1.403   1.579   1.390
24213WAT     H272882   1.419   1.630   1.544
24214WAT      O72883   7.067   8.350   7.397
24214WAT     H172884   6.967   8.347   7.405
24214WAT     H272885   7.107   8.369   7.487
24215WAT      O72886   3.866   1.944   8.939
24215WAT     H172887   3.774   1.982   8.941
24215WAT     H272888   3.933   2.018   8.936
24216WAT      O72889   6.895   8.076   9.516
24216WAT     H172890   6.869   8.101   9.610
24216WAT     H272891   6.943   8.152   9.473
24217WAT      O72892   7.472   0.980   5.287
24217WAT     H172893   7.438   0.906   5.229
24217WAT     H272894   7.419   1.063   5.269
24218WAT      O72895   9.793   5.289   0.449
24218WAT     H172896   9.883   5.333   0.445
24218WAT     H272897   9.796   5.212   0.511
24219WAT      O72898   8.338   7.055   7.876
24219WAT     H172899   8.403   7.034   7.948
24219WAT     H272900   8.385   7.102   7.801
24220WAT      O72901   1.267   0.994   2.188
24220WAT     H172902   1.290   1.091   2.191
24220WAT     H272903   1.315   0.951   2.111
24221WAT      O72904   0.891   0.591   8.512
24221WAT     H172905   0.929   0.611   8.603
24221WAT     H272906   0.882   0.492   8.501
24222WAT      O72907   1.210   0.847   1.178
24222WAT     H172908   1.230   0.847   1.080
24222WAT     H272909   1.201   0.941   1.210
24223WAT      O72910   9.779   8.721   3.303
24223WAT     H172911   9.687   8.733   3.339
24223WAT     H272912   9.832   8.805   3.316
24224WAT      O72913   0.053   5.794   7.694
24224WAT     H172914   0.109   5.842   7.628
24224WAT     H272915   0.028   5.704   7.657
24225WAT      O72916   9.768   8.746   7.267
24225WAT     H172917   9.687   8.783   7.222
24225WAT     H272918   9.841   8.814   7.264
24226WAT      O72919   7.086   1.511   6.039
24226WAT     H172920   7.013   1.449   6.069
24226WAT     H272921   7.048   1.602   6.024
24227WAT      O72922   5.749   9.018   5.058
24227WAT     H172923   5.803   8.947   5.013
24227WAT     H272924   5.663   9.031   5.009
24228WAT      O72925   6.413   1.377   5.713
24228WAT     H172926   6.374   1.451   5.769
24228WAT     H272927   6.355   1.296   5.721
24229WAT      O72928   0.433   5.921   7.030
24229WAT     H172929   0.494   5.856   6.984
24229WAT     H272930   0.338   5.894   7.014
24230WAT      O72931   8.383   1.473   2.722
24230WAT     H172932   8.420   1.437   2.637
24230WAT     H272933   8.337   1.400   2.772
24231WAT      O72934   7.707   0.446   0.449
24231WAT     H172935   7.651   0.412   0.373
24231WAT     H272936   7.777   0.508   0.413
24232WAT      O72937   7.883   6.237   9.750
24232WAT     H172938   7.921   6.253   9.658
24232WAT     H272939   7.957   6.236   9.817
24233WAT      O72940   5.706   6.231   7.130
24233WAT     H172941   5.741   6.138   7.126
24233WAT     H272942   5.782   6.296   7.123
24234WAT      O72943   6.972   6.728   3.616
24234WAT     H172944   7.049   6.672   3.586
24234WAT     H272945   6.981   6.820   3.576
24235WAT      O72946   9.096   9.704   1.200
24235WAT     H172947   9.196   9.711   1.206
24235WAT     H272948   9.067   9.615   1.234
24236WAT      O72949   2.630   3.193   8.430
24236WAT     H172950   2.716   3.211   8.478
24236WAT     H272951   2.558   3.250   8.468
24237WAT      O72952   7.990   3.412   6.812
24237WAT     H172953   8.019   3.377   6.723
24237WAT     H272954   7.891   3.408   6.819
24238WAT      O72955   8.666   1.351   1.577
24238WAT     H172956   8.644   1.344   1.480
24238WAT     H272957   8.674   1.448   1.603
24239WAT      O72958   2.068   0.095   0.373
24239WAT     H172959   2.119   0.172   0.410
24239WAT     H272960   2.083   0.090   0.274
24240WAT      O72961   4.658   5.383   1.701
24240WAT     H172962   4.598   5.363   1.779
24240WAT     H272963   4.750   5.349   1.721
24241WAT      O72964   4.598   9.256   4.403
24241WAT     H172965   4.520   9.230   4.461
24241WAT     H272966   4.639   9.174   4.364
24242WAT      O72967   6.141   6.579   3.335
24242WAT     H172968   6.179   6.655   3.387
24242WAT     H272969   6.092   6.517   3.396
24243WAT      O72970   1.619   2.993   7.480
24243WAT     H172971   1.595   2.956   7.390
24243WAT     H272972   1.682   2.931   7.525
24244WAT      O72973   8.032   4.328   7.586
24244WAT     H172974   8.124   4.293   7.566
24244WAT     H272975   7.990   4.360   7.501
24245WAT      O72976   3.747   1.570   7.416
24245WAT     H172977   3.661   1.532   7.383
24245WAT     H272978   3.774   1.646   7.358
24246WAT      O72979   6.764   4.245   9.738
24246WAT     H172980   6.664   4.246   9.747
24246WAT     H272981   6.792   4.316   9.673
24247WAT      O72982   0.881   4.997   4.352
24247WAT     H172983   0.909   5.058   4.426
24247WAT     H272984   0.781   4.993   4.348
24248WAT      O72985   2.468   0.255   0.512
24248WAT     H172986   2.383   0.307   0.503
24248WAT     H272987   2.477   0.223   0.606
24249WAT      O72988   7.366   8.585   2.142
24249WAT     H172989   7.392   8.634   2.225
24249WAT     H272990   7.432   8.512   2.124
24250WAT      O72991   8.725   5.477   2.523
24250WAT     H172992   8.725   5.475   2.623
24250WAT     H272993   8.692   5.389   2.488
24251WAT      O72994   3.101   7.552   0.732
24251WAT     H172995   3.056   7.463   0.719
24251WAT     H272996   3.131   7.587   0.644
24252WAT      O72997   8.111   4.373   1.271
24252WAT     H172998   8.099   4.372   1.172
24252WAT     H272999   8.067   4.292   1.311
24253WAT      O73000   9.837   8.427   2.898
24253WAT     H173001   9.770   8.353   2.903
24253WAT     H273002   9.813   8.498   2.964
24254WAT      O73003   9.715   7.941   2.871
24254WAT     H173004   9.760   7.855   2.896
24254WAT     H273005   9.626   7.923   2.830
24255WAT      O73006   3.983   1.732   3.422
24255WAT     H173007   3.994   1.660   3.491
24255WAT     H273008   4.024   1.817   3.456
24256WAT      O73009   0.925   5.825   7.151
24256WAT     H173010   0.917   5.827   7.251
24256WAT     H273011   0.927   5.730   7.120
24257WAT      O73012   5.402   4.977   8.671
24257WAT     H173013   5.404   4.948   8.767
24257WAT     H273014   5.307   4.977   8.638
24258WAT      O73015   6.295   6.165   3.969
24258WAT     H173016   6.215   6.164   3.909
24258WAT     H273017   6.366   6.223   3.928
24259WAT      O73018   1.457   0.250   7.911
24259WAT     H173019   1.424   0.335   7.871
24259WAT     H273020   1.557   0.253   7.919
24260WAT      O73021   8.095   4.112   1.583
24260WAT     H173022   8.188   4.077   1.588
24260WAT     H273023   8.090   4.202   1.626
24261WAT      O73024   8.703   9.804   1.608
24261WAT     H173025   8.639   9.816   1.684
24261WAT     H273026   8.666   9.849   1.527
24262WAT      O73027   5.372   8.383   1.387
24262WAT     H173028   5.360   8.321   1.309
24262WAT     H273029   5.434   8.341   1.453
24263WAT      O73030   2.304   7.805   0.377
24263WAT     H173031   2.210   7.831   0.396
24263WAT     H273032   2.323   7.715   0.417
24264WAT      O73033   4.076   5.304   2.003
24264WAT     H173034   4.012   5.381   2.006
24264WAT     H273035   4.166   5.337   1.973
24265WAT      O73036   7.886   5.871   7.014
24265WAT     H173037   7.871   5.855   6.917
24265WAT     H273038   7.918   5.965   7.027
24266WAT      O73039   7.670   0.163   2.565
24266WAT     H173040   7.573   0.189   2.566
24266WAT     H273041   7.702   0.151   2.659
24267WAT      O73042   1.472   4.296   2.167
24267WAT     H173043   1.425   4.335   2.088
24267WAT     H273044   1.570   4.287   2.147
24268WAT      O73045   5.083   6.076   0.918
24268WAT     H173046   5.052   6.057   0.824
24268WAT     H273047   5.169   6.027   0.935
24269WAT      O73048   9.559   1.679   9.854
24269WAT     H173049   9.618   1.616   9.804
24269WAT     H273050   9.512   1.739   9.789
24270WAT      O73051   1.987   3.816   5.850
24270WAT     H173052   1.895   3.847   5.824
24270WAT     H273053   2.043   3.896   5.871
24271WAT      O73054   4.313   5.480   1.999
24271WAT     H173055   4.345   5.528   1.917
24271WAT     H273056   4.360   5.514   2.079
24272WAT      O73057   7.050   3.176   6.886
24272WAT     H173058   7.057   3.160   6.787
24272WAT     H273059   6.957   3.204   6.909
24273WAT      O73060   3.629   8.317   6.873
24273WAT     H173061   3.556   8.385   6.885
24273WAT     H273062   3.607   8.236   6.927
24274WAT      O73063   7.756   0.907   7.328
24274WAT     H173064   7.798   0.995   7.305
24274WAT     H273065   7.701   0.918   7.411
24275WAT      O73066   0.100   5.209   4.337
24275WAT     H173067   0.010   5.179   4.304
24275WAT     H273068   0.134   5.282   4.279
24276WAT      O73069   0.743   3.762   3.789
24276WAT     H173070   0.664   3.713   3.752
24276WAT     H273071   0.827   3.715   3.762
24277WAT      O73072   3.358   8.870   6.780
24277WAT     H173073   3.377   8.945   6.844
24277WAT     H273074   3.262   8.841   6.790
24278WAT      O73075   5.122   1.045   9.056
24278WAT     H173076   5.157   1.049   9.150
24278WAT     H273077   5.056   0.971   9.048
24279WAT      O73078   1.395   7.495   6.868
24279WAT     H173079   1.327   7.429   6.837
24279WAT     H273080   1.486   7.454   6.863
24280WAT      O73081   4.759   3.519   7.717
24280WAT     H173082   4.732   3.579   7.792
24280WAT     H273083   4.828   3.454   7.749
24281WAT      O73084   6.289   3.080   7.943
24281WAT     H173085   6.327   3.027   7.867
24281WAT     H273086   6.196   3.051   7.961
24282WAT      O73087   1.440   3.415   7.532
24282WAT     H173088   1.387   3.342   7.488
24282WAT     H273089   1.418   3.503   7.490
24283WAT      O73090   9.493   1.268   7.402
24283WAT     H173091   9.585   1.295   7.429
24283WAT     H273092   9.498   1.199   7.330
24284WAT      O73093   1.074   7.613   6.954
24284WAT     H173094   1.128   7.562   7.021
24284WAT     H273095   0.977   7.594   6.969
24285WAT      O73096   3.444   7.918   7.535
24285WAT     H173097   3.447   7.978   7.614
24285WAT     H273098   3.537   7.903   7.501
24286WAT      O73099   7.819   9.414   2.239
24286WAT     H173100   7.895   9.473   2.211
24286WAT     H273101   7.795   9.433   2.334
24287WAT      O73102   6.980   6.708   4.111
24287WAT     H173103   6.949   6.755   4.029
24287WAT     H273104   6.910   6.643   4.141
24288WAT      O73105   8.234   7.344   7.473
24288WAT     H173106   8.144   7.335   7.430
24288WAT     H273107   8.305   7.326   7.405
24289WAT      O73108   1.143   2.807   4.078
24289WAT     H173109   1.174   2.790   3.985
24289WAT     H273110   1.221   2.803   4.140
24290WAT      O73111   0.905   2.652   7.875
24290WAT     H173112   0.873   2.708   7.951
24290WAT     H273113   0.911   2.707   7.793
24291WAT      O73114   9.170   7.942   1.740
24291WAT     H173115   9.146   7.969   1.647
24291WAT     H273116   9.266   7.913   1.743
24292WAT      O73117   3.773   7.522   0.709
24292WAT     H173118   3.833   7.455   0.752
24292WAT     H273119   3.822   7.609   0.701
24293WAT      O73120   8.576   2.833   6.736
24293WAT     H173121   8.629   2.760   6.693
24293WAT     H273122   8.638   2.905   6.767
24294WAT      O73123   8.379   7.608   5.900
24294WAT     H173124   8.470   7.590   5.936
24294WAT     H273125   8.320   7.644   5.973
24295WAT      O73126   0.820   6.331   3.702
24295WAT     H173127   0.903   6.362   3.747
24295WAT     H273128   0.764   6.410   3.676
24296WAT      O73129   7.657   3.958   9.789
24296WAT     H173130   7.729   3.890   9.803
24296WAT     H273131   7.630   3.997   9.876
24297WAT      O73132   2.727   9.476   7.992
24297WAT     H173133   2.780   9.477   8.077
24297WAT     H273134   2.652   9.542   7.999
24298WAT      O73135   9.024   3.323   6.040
24298WAT     H173136   8.948   3.311   5.976
24298WAT     H273137   9.097   3.376   5.997
24299WAT      O73138   8.791   6.186   9.413
24299WAT     H173139   8.727   6.245   9.365
24299WAT     H273140   8.759   6.091   9.409
24300WAT      O73141   5.187   6.802   4.961
24300WAT     H173142   5.179   6.741   4.882
24300WAT     H273143   5.160   6.894   4.934
24301WAT      O73144   1.544   7.685   6.981
24301WAT     H173145   1.469   7.632   6.943
24301WAT     H273146   1.520   7.782   6.982
24302WAT      O73147   8.882   5.771   7.323
24302WAT     H173148   8.957   5.796   7.384
24302WAT     H273149   8.818   5.847   7.316
24303WAT      O73150   3.883   3.826   4.010
24303WAT     H173151   3.935   3.830   4.096
24303WAT     H273152   3.946   3.808   3.935
24304WAT      O73153   7.487   4.903   4.284
24304WAT     H173154   7.424   4.913   4.207
24304WAT     H273155   7.436   4.906   4.369
24305WAT      O73156   3.125   8.926   0.656
24305WAT     H173157   3.090   8.921   0.750
24305WAT     H273158   3.049   8.941   0.593
24306WAT      O73159   5.443   6.283   8.238
24306WAT     H173160   5.543   6.283   8.239
24306WAT     H273161   5.411   6.316   8.149
24307WAT      O73162   7.490   9.539   6.993
24307WAT     H173163   7.580   9.559   7.031
24307WAT     H273164   7.455   9.454   7.032
24308WAT      O73165   2.485   9.432   5.684
24308WAT     H173166   2.512   9.464   5.593
24308WAT     H273167   2.553   9.462   5.751
24309WAT      O73168   1.185   6.323   8.960
24309WAT     H173169   1.284   6.321   8.947
24309WAT     H273170   1.140   6.287   8.878
24310WAT      O73171   3.903   0.853   6.677
24310WAT     H173172   3.811   0.834   6.643
24310WAT     H273173   3.970   0.816   6.612
24311WAT      O73174   5.146   1.083   6.939
24311WAT     H173175   5.095   1.025   7.002
24311WAT     H273176   5.086   1.156   6.906
24312WAT      O73177   7.611   0.500   8.579
24312WAT     H173178   7.709   0.482   8.586
24312WAT     H273179   7.593   0.552   8.495
24313WAT      O73180   0.945   6.007   6.567
24313WAT     H173181   1.002   5.985   6.646
24313WAT     H273182   0.857   6.042   6.598
24314WAT      O73183   2.607   8.890   9.668
24314WAT     H173184   2.687   8.918   9.616
24314WAT     H273185   2.633   8.817   9.731
24315WAT      O73186   8.563   3.848   7.177
24315WAT     H173187   8.552   3.829   7.080
24315WAT     H273188   8.550   3.763   7.229
24316WAT      O73189   6.494   2.066   7.429
24316WAT     H173190   6.498   2.095   7.525
24316WAT     H273191   6.462   2.142   7.373
24317WAT      O73192   3.293   8.615   9.500
24317WAT     H173193   3.249   8.603   9.411
24317WAT     H273194   3.390   8.636   9.487
24318WAT      O73195   3.867   3.463   3.280
24318WAT     H173196   3.861   3.365   3.261
24318WAT     H273197   3.908   3.509   3.201
24319WAT      O73198   5.875   1.179   7.192
24319WAT     H173199   5.791   1.155   7.241
24319WAT     H273200   5.864   1.155   7.095
24320WAT      O73201   9.384   7.687   2.989
24320WAT     H173202   9.352   7.772   3.031
24320WAT     H273203   9.326   7.666   2.910
24321WAT      O73204   1.617   9.551   2.936
24321WAT     H173205   1.548   9.483   2.961
24321WAT     H273206   1.705   9.506   2.921
24322WAT      O73207   9.126   9.699   4.658
24322WAT     H173208   9.216   9.737   4.683
24322WAT     H273209   9.066   9.774   4.630
24323WAT      O73210   7.533   0.880   2.461
24323WAT     H173211   7.549   0.954   2.395
24323WAT     H273212   7.494   0.801   2.414
24324WAT      O73213   7.313   9.185   6.374
24324WAT     H173214   7.306   9.103   6.318
24324WAT     H273215   7.225   9.233   6.373
24325WAT      O73216   1.325   4.908   8.016
24325WAT     H173217   1.360   4.866   8.100
24325WAT     H273218   1.286   4.837   7.957
24326WAT      O73219   3.992   4.958   2.595
24326WAT     H173220   4.029   4.911   2.516
24326WAT     H273221   3.893   4.942   2.600
24327WAT      O73222   9.418   5.562   7.393
24327WAT     H173223   9.416   5.467   7.424
24327WAT     H273224   9.372   5.620   7.460
24328WAT      O73225   2.816   6.675   7.255
24328WAT     H173226   2.862   6.601   7.205
24328WAT     H273227   2.849   6.677   7.349
24329WAT      O73228   0.564   8.886   3.607
24329WAT     H173229   0.483   8.886   3.549
24329WAT     H273230   0.638   8.934   3.561
24330WAT      O73231   8.327   9.067   2.217
24330WAT     H173232   8.287   9.021   2.138
24330WAT     H273233   8.343   9.001   2.291
24331WAT      O73234   4.675   5.693   4.149
24331WAT     H173235   4.668   5.751   4.230
24331WAT     H273236   4.771   5.665   4.137
24332WAT      O73237   9.262   3.880   9.767
24332WAT     H173238   9.209   3.932   9.834
24332WAT     H273239   9.347   3.927   9.748
24333WAT      O73240   1.579   5.439   2.903
24333WAT     H173241   1.484   5.406   2.908
24333WAT     H273242   1.600   5.491   2.986
24334WAT      O73243   6.980   4.625   7.339
24334WAT     H173244   6.943   4.542   7.297
24334WAT     H273245   7.053   4.662   7.282
24335WAT      O73246   4.835   6.062   3.666
24335WAT     H173247   4.806   5.979   3.619
24335WAT     H273248   4.848   6.043   3.763
24336WAT      O73249   9.130   4.904   8.393
24336WAT     H173250   9.174   4.828   8.439
24336WAT     H273251   9.123   4.982   8.456
24337WAT      O73252   4.824   7.166   8.300
24337WAT     H173253   4.910   7.213   8.279
24337WAT     H273254   4.841   7.093   8.367
24338WAT      O73255   5.342   3.342   6.841
24338WAT     H173256   5.335   3.412   6.911
24338WAT     H273257   5.437   3.332   6.813
24339WAT      O73258   0.435   8.508   8.998
24339WAT     H173259   0.364   8.571   9.031
24339WAT     H273260   0.399   8.415   8.996
24340WAT      O73261   8.850   1.513   8.978
24340WAT     H173262   8.895   1.544   9.061
24340WAT     H273263   8.764   1.467   9.001
24341WAT      O73264   1.092   0.872   5.155
24341WAT     H173265   0.998   0.878   5.189
24341WAT     H273266   1.129   0.965   5.145
24342WAT      O73267   4.237   8.375   9.878
24342WAT     H173268   4.279   8.301   9.931
24342WAT     H273269   4.309   8.432   9.838
24343WAT      O73270   3.523   3.998   8.857
24343WAT     H173271   3.466   3.935   8.910
24343WAT     H273272   3.606   4.019   8.909
24344WAT      O73273   1.184   4.341   9.405
24344WAT     H173274   1.193   4.259   9.349
24344WAT     H273275   1.209   4.320   9.500
24345WAT      O73276   8.062   4.445   5.059
24345WAT     H173277   8.013   4.532   5.059
24345WAT     H273278   8.064   4.408   5.152
24346WAT      O73279   2.734   1.243   0.916
24346WAT     H173280   2.690   1.330   0.893
24346WAT     H273281   2.729   1.182   0.837
24347WAT      O73282   5.165   8.975   0.487
24347WAT     H173283   5.247   9.012   0.531
24347WAT     H273284   5.181   8.968   0.389
24348WAT      O73285   0.389   5.123   8.185
24348WAT     H173286   0.421   5.184   8.112
24348WAT     H273287   0.408   5.164   8.274
24349WAT      O73288   2.805   1.135   4.667
24349WAT     H173289   2.712   1.168   4.654
24349WAT     H273290   2.825   1.127   4.765
24350WAT      O73291   7.469   2.872   0.845
24350WAT     H173292   7.381   2.920   0.835
24350WAT     H273293   7.493   2.866   0.942
24351WAT      O73294   6.874   2.213   4.781
24351WAT     H173295   6.815   2.226   4.702
24351WAT     H273296   6.823   2.236   4.864
24352WAT      O73297   8.126   9.095   1.368
24352WAT     H173298   8.134   9.089   1.268
24352WAT     H273299   8.035   9.129   1.393
24353WAT      O73300   6.978   7.153   4.235
24353WAT     H173301   7.049   7.097   4.192
24353WAT     H273302   6.888   7.117   4.211
24354WAT      O73303   7.693   8.934   5.812
24354WAT     H173304   7.608   8.882   5.805
24354WAT     H273305   7.769   8.871   5.828
24355WAT      O73306   1.839   2.372   4.089
24355WAT     H173307   1.808   2.463   4.060
24355WAT     H273308   1.810   2.356   4.183
24356WAT      O73309   7.571   9.467   5.186
24356WAT     H173310   7.593   9.554   5.142
24356WAT     H273311   7.555   9.397   5.117
24357WAT      O73312   5.651   9.714   6.925
24357WAT     H173313   5.568   9.763   6.899
24357WAT     H273314   5.628   9.621   6.953
24358WAT      O73315   5.970   6.667   9.300
24358WAT     H173316   5.875   6.699   9.294
24358WAT     H273317   5.973   6.585   9.358
24359WAT      O73318   2.565   4.649   8.859
24359WAT     H173319   2.608   4.721   8.914
24359WAT     H273320   2.634   4.584   8.829
24360WAT      O73321   3.533   3.994   0.172
24360WAT     H173322   3.547   3.900   0.201
24360WAT     H273323   3.497   4.048   0.248
24361WAT      O73324   2.055   4.649   7.055
24361WAT     H173325   2.154   4.656   7.041
24361WAT     H273326   2.037   4.623   7.149
24362WAT      O73327   8.572   5.096   9.311
24362WAT     H173328   8.532   5.159   9.245
24362WAT     H273329   8.596   5.147   9.394
24363WAT      O73330   1.340   4.118   6.678
24363WAT     H173331   1.414   4.181   6.701
24363WAT     H273332   1.306   4.139   6.586
24364WAT      O73333   8.306   2.045   5.820
24364WAT     H173334   8.358   2.123   5.787
24364WAT     H273335   8.305   1.973   5.750
24365WAT      O73336   6.714   4.788   0.329
24365WAT     H173337   6.781   4.774   0.255
24365WAT     H273338   6.671   4.701   0.351
24366WAT      O73339   6.575   7.334   2.496
24366WAT     H173340   6.574   7.336   2.396
24366WAT     H273341   6.583   7.239   2.527
24367WAT      O73342   0.411   8.986   4.688
24367WAT     H173343   0.314   8.973   4.709
24367WAT     H273344   0.425   9.077   4.651
24368WAT      O73345   4.161   1.671   0.123
24368WAT     H173346   4.196   1.668   0.029
24368WAT     H273347   4.116   1.758   0.139
24369WAT      O73348   1.464   2.124   0.877
24369WAT     H173349   1.421   2.033   0.876
24369WAT     H273350   1.563   2.113   0.887
24370WAT      O73351   3.418   9.151   3.301
24370WAT     H173352   3.414   9.197   3.212
24370WAT     H273353   3.471   9.207   3.365
24371WAT      O73354   9.396   1.835   6.696
24371WAT     H173355   9.321   1.891   6.660
24371WAT     H273356   9.482   1.886   6.687
24372WAT      O73357   4.046   5.915   9.106
24372WAT     H173358   4.106   5.981   9.151
24372WAT     H273359   4.022   5.842   9.171
24373WAT      O73360   3.963   7.754   5.431
24373WAT     H173361   3.996   7.846   5.411
24373WAT     H273362   4.035   7.688   5.408
24374WAT      O73363   3.012   2.610   2.891
24374WAT     H173364   2.926   2.561   2.906
24374WAT     H273365   2.998   2.680   2.821
24375WAT      O73366   7.259   4.084   3.663
24375WAT     H173367   7.328   4.118   3.727
24375WAT     H273368   7.300   4.014   3.605
24376WAT      O73369   3.225   3.125   2.592
24376WAT     H173370   3.281   3.206   2.573
24376WAT     H273371   3.227   3.105   2.690
24377WAT      O73372   6.728   1.866   6.764
24377WAT     H173373   6.807   1.926   6.757
24377WAT     H273374   6.752   1.775   6.730
24378WAT      O73375   0.410   0.975   0.211
24378WAT     H173376   0.341   1.047   0.219
24378WAT     H273377   0.372   0.896   0.164
24379WAT      O73378   1.214   9.514   4.639
24379WAT     H173379   1.301   9.469   4.620
24379WAT     H273380   1.169   9.538   4.553
24380WAT      O73381   1.981   5.357   0.301
24380WAT     H173382   1.896   5.390   0.260
24380WAT     H273383   2.030   5.435   0.341
24381WAT      O73384   0.950   4.573   9.735
24381WAT     H173385   0.975   4.549   9.641
24381WAT     H273386   0.903   4.661   9.735
24382WAT      O73387   1.556   3.274   2.769
24382WAT     H173388   1.466   3.234   2.755
24382WAT     H273389   1.554   3.336   2.848
24383WAT      O73390   9.232   7.151   2.638
24383WAT     H173391   9.157   7.216   2.650
24383WAT     H273392   9.196   7.061   2.615
24384WAT      O73393   4.513   0.065   5.616
24384WAT     H173394   4.432   0.071   5.559
24384WAT     H273395   4.589   0.027   5.563
24385WAT      O73396   6.908   6.456   4.449
24385WAT     H173397   6.946   6.518   4.518
24385WAT     H273398   6.876   6.508   4.371
24386WAT      O73399   0.380   0.271   3.808
24386WAT     H173400   0.335   0.352   3.845
24386WAT     H273401   0.423   0.220   3.883
24387WAT      O73402   7.844   0.095   4.701
24387WAT     H173403   7.805   0.147   4.777
24387WAT     H273404   7.914   0.150   4.655
24388WAT      O73405   2.473   0.127   4.848
24388WAT     H173406   2.535   0.163   4.919
24388WAT     H273407   2.473   0.189   4.770
24389WAT      O73408   6.051   6.098   0.573
24389WAT     H173409   6.015   6.064   0.487
24389WAT     H273410   6.032   6.196   0.582
24390WAT      O73411   9.395   8.905   3.843
24390WAT     H173412   9.385   8.990   3.792
24390WAT     H273413   9.415   8.926   3.939
24391WAT      O73414   9.553   0.081   9.121
24391WAT     H173415   9.513  -0.003   9.155
24391WAT     H273416   9.531   0.157   9.182
24392WAT      O73417   9.668   5.462   9.575
24392WAT     H173418   9.673   5.553   9.616
24392WAT     H273419   9.751   5.446   9.522
24393WAT      O73420   2.373   1.091   5.680
24393WAT     H173421   2.278   1.066   5.699
24393WAT     H273422   2.411   1.141   5.758
24394WAT      O73423   5.932   8.648   7.209
24394WAT     H173424   5.863   8.615   7.273
24394WAT     H273425   5.975   8.731   7.244
24395WAT      O73426   0.892   2.432   7.740
24395WAT     H173427   0.929   2.466   7.654
24395WAT     H273428   0.894   2.505   7.808
24396WAT      O73429   5.560   0.663   5.382
24396WAT     H173430   5.654   0.668   5.351
24396WAT     H273431   5.551   0.710   5.470
24397WAT      O73432   9.820   8.436   6.548
24397WAT     H173433   9.878   8.507   6.587
24397WAT     H273434   9.724   8.464   6.556
24398WAT      O73435   0.929   3.809   1.626
24398WAT     H173436   0.907   3.891   1.678
24398WAT     H273437   0.901   3.822   1.530
24399WAT      O73438   8.923   0.457   4.747
24399WAT     H173439   8.885   0.436   4.837
24399WAT     H273440   8.910   0.554   4.727
24400WAT      O73441   8.803   7.058   7.363
24400WAT     H173442   8.765   7.122   7.429
24400WAT     H273443   8.903   7.058   7.370
24401WAT      O73444   1.799   6.278   4.442
24401WAT     H173445   1.756   6.308   4.527
24401WAT     H273446   1.819   6.358   4.384
24402WAT      O73447   5.074   1.759   7.682
24402WAT     H173448   5.173   1.756   7.690
24402WAT     H273449   5.036   1.668   7.701
24403WAT      O73450   5.725   0.084   5.073
24403WAT     H173451   5.799   0.139   5.035
24403WAT     H273452   5.756  -0.011   5.082
24404WAT      O73453   0.599   0.313   0.386
24404WAT     H173454   0.520   0.288   0.441
24404WAT     H273455   0.635   0.401   0.418
24405WAT      O73456   4.881   5.495   2.615
24405WAT     H173457   4.782   5.505   2.624
24405WAT     H273458   4.926   5.528   2.699
24406WAT      O73459   9.201   5.536   5.157
24406WAT     H173460   9.221   5.509   5.251
24406WAT     H273461   9.181   5.634   5.154
24407WAT      O73462   3.711   9.191   1.829
24407WAT     H173463   3.658   9.108   1.849
24407WAT     H273464   3.684   9.227   1.740
24408WAT      O73465   1.647   5.177   2.868
24408WAT     H173466   1.635   5.274   2.885
24408WAT     H273467   1.631   5.126   2.953
24409WAT      O73468   2.764   2.485   7.155
24409WAT     H173469   2.730   2.471   7.062
24409WAT     H273470   2.863   2.469   7.157
24410WAT      O73471   3.204   5.070   1.372
24410WAT     H173472   3.251   5.002   1.315
24410WAT     H273473   3.269   5.111   1.436
24411WAT      O73474   0.099   2.803   9.741
24411WAT     H173475   0.068   2.712   9.713
24411WAT     H273476   0.116   2.804   9.839
24412WAT      O73477   9.263   6.930   0.864
24412WAT     H173478   9.285   6.898   0.955
24412WAT     H273479   9.173   6.896   0.837
24413WAT      O73480   3.159   8.966   1.640
24413WAT     H173481   3.150   9.057   1.600
24413WAT     H273482   3.256   8.941   1.646
24414WAT      O73483   3.139   9.461   8.567
24414WAT     H173484   3.185   9.468   8.655
24414WAT     H273485   3.137   9.551   8.523
24415WAT      O73486   3.244   5.377   2.223
24415WAT     H173487   3.217   5.357   2.129
24415WAT     H273488   3.172   5.346   2.285
24416WAT      O73489   3.339   7.010   7.887
24416WAT     H173490   3.321   6.944   7.960
24416WAT     H273491   3.347   7.102   7.927
24417WAT      O73492   9.725   5.886   1.519
24417WAT     H173493   9.811   5.836   1.526
24417WAT     H273494   9.744   5.984   1.524
24418WAT      O73495   9.039   7.262   9.524
24418WAT     H173496   9.123   7.275   9.472
24418WAT     H273497   9.000   7.352   9.547
24419WAT      O73498   4.628   6.468   3.374
24419WAT     H173499   4.715   6.487   3.421
24419WAT     H273500   4.552   6.504   3.428
24420WAT      O73501   2.718   8.795   2.826
24420WAT     H173502   2.638   8.740   2.803
24420WAT     H273503   2.723   8.806   2.926
24421WAT      O73504   5.914   8.985   1.984
24421WAT     H173505   5.965   9.071   1.980
24421WAT     H273506   5.940   8.934   2.066
24422WAT      O73507   0.623   2.119   2.542
24422WAT     H173508   0.685   2.126   2.620
24422WAT     H273509   0.541   2.068   2.569
24423WAT      O73510   6.594   9.243   3.913
24423WAT     H173511   6.500   9.273   3.901
24423WAT     H273512   6.629   9.275   4.002
24424WAT      O73513   1.024   3.078   1.476
24424WAT     H173514   1.005   3.116   1.386
24424WAT     H273515   0.937   3.055   1.521
24425WAT      O73516   1.849   9.273   1.817
24425WAT     H173517   1.923   9.206   1.824
24425WAT     H273518   1.797   9.275   1.903
24426WAT      O73519   2.189   4.705   9.151
24426WAT     H173520   2.138   4.788   9.129
24426WAT     H273521   2.271   4.728   9.203
24427WAT      O73522   9.617   5.378   0.656
24427WAT     H173523   9.541   5.437   0.629
24427WAT     H273524   9.678   5.365   0.578
24428WAT      O73525   7.736   2.397   5.411
24428WAT     H173526   7.716   2.389   5.313
24428WAT     H273527   7.674   2.463   5.453
24429WAT      O73528   4.751   0.258   4.614
24429WAT     H173529   4.762   0.164   4.582
24429WAT     H273530   4.653   0.278   4.625
24430WAT      O73531   7.253   4.873   5.135
24430WAT     H173532   7.246   4.827   5.046
24430WAT     H273533   7.349   4.893   5.155
24431WAT      O73534   9.395   0.825   1.319
24431WAT     H173535   9.481   0.783   1.347
24431WAT     H273536   9.413   0.892   1.247
24432WAT      O73537   9.020   8.139   9.709
24432WAT     H173538   8.943   8.095   9.756
24432WAT     H273539   9.106   8.102   9.743
24433WAT      O73540   7.670   3.930   0.950
24433WAT     H173541   7.755   3.879   0.938
24433WAT     H273542   7.619   3.931   0.864
24434WAT      O73543   6.841   5.251   8.826
24434WAT     H173544   6.764   5.197   8.860
24434WAT     H273545   6.920   5.190   8.811
24435WAT      O73546   8.684   3.641   7.613
24435WAT     H173547   8.588   3.634   7.640
24435WAT     H273548   8.728   3.715   7.663
24436WAT      O73549   5.123   3.257   8.969
24436WAT     H173550   5.189   3.184   8.987
24436WAT     H273551   5.171   3.341   8.944
24437WAT      O73552   7.453   8.941   9.347
24437WAT     H173553   7.392   8.962   9.271
24437WAT     H273554   7.458   9.020   9.408
24438WAT      O73555   4.964   9.563   7.922
24438WAT     H173556   4.987   9.596   8.014
24438WAT     H273557   4.895   9.624   7.882
24439WAT      O73558   6.554   1.813   2.459
24439WAT     H173559   6.650   1.834   2.442
24439WAT     H273560   6.515   1.770   2.377
24440WAT      O73561   9.349   8.177   1.808
24440WAT     H173562   9.360   8.096   1.750
24440WAT     H273563   9.279   8.237   1.768
24441WAT      O73564   4.844   5.923   5.763
24441WAT     H173565   4.935   5.945   5.799
24441WAT     H273566   4.828   5.975   5.678
24442WAT      O73567   8.614   7.968   7.100
24442WAT     H173568   8.676   7.900   7.060
24442WAT     H273569   8.664   8.023   7.167
24443WAT      O73570   2.434   9.822   5.229
24443WAT     H173571   2.344   9.857   5.203
24443WAT     H273572   2.458   9.744   5.171
24444WAT      O73573   7.950   2.429   1.712
24444WAT     H173574   7.917   2.379   1.792
24444WAT     H273575   7.874   2.480   1.672
24445WAT      O73576   8.555   8.186   2.592
24445WAT     H173577   8.513   8.102   2.626
24445WAT     H273578   8.640   8.203   2.641
24446WAT      O73579   8.290   0.469   6.034
24446WAT     H173580   8.221   0.444   6.102
24446WAT     H273581   8.305   0.568   6.035
24447WAT      O73582   6.957   5.847   5.230
24447WAT     H173583   7.036   5.857   5.169
24447WAT     H273584   6.881   5.901   5.194
24448WAT      O73585   8.105   9.523   0.027
24448WAT     H173586   8.054   9.609   0.025
24448WAT     H273587   8.165   9.518  -0.053
24449WAT      O73588   7.863   4.316   3.567
24449WAT     H173589   7.933   4.371   3.613
24449WAT     H273590   7.899   4.225   3.548
24450WAT      O73591   2.112   2.214   8.719
24450WAT     H173592   2.093   2.304   8.758
24450WAT     H273593   2.203   2.184   8.746
24451WAT      O73594   9.451   8.450   7.897
24451WAT     H173595   9.509   8.525   7.863
24451WAT     H273596   9.378   8.488   7.953
24452WAT      O73597   4.375   7.553   5.509
24452WAT     H173598   4.401   7.501   5.428
24452WAT     H273599   4.326   7.494   5.572
24453WAT      O73600   2.783   8.862   4.296
24453WAT     H173601   2.708   8.853   4.230
24453WAT     H273602   2.757   8.928   4.367
24454WAT      O73603   8.403   3.320   8.568
24454WAT     H173604   8.414   3.312   8.469
24454WAT     H273605   8.442   3.240   8.613
24455WAT      O73606   4.505   5.298   1.901
24455WAT     H173607   4.429   5.355   1.931
24455WAT     H273608   4.586   5.319   1.956
24456WAT      O73609   0.553   2.383   5.629
24456WAT     H173610   0.596   2.443   5.561
24456WAT     H273611   0.594   2.400   5.719
24457WAT      O73612   6.884   5.200   7.813
24457WAT     H173613   6.889   5.198   7.913
24457WAT     H273614   6.852   5.112   7.779
24458WAT      O73615   8.424   8.960   4.137
24458WAT     H173616   8.447   8.906   4.218
24458WAT     H273617   8.332   8.998   4.147
24459WAT      O73618   6.472   9.517   9.820
24459WAT     H173619   6.429   9.436   9.780
24459WAT     H273620   6.544   9.550   9.759
24460WAT      O73621   5.005   0.601   6.756
24460WAT     H173622   5.081   0.584   6.820
24460WAT     H273623   5.038   0.590   6.662
24461WAT      O73624   7.389   8.834   6.655
24461WAT     H173625   7.373   8.932   6.650
24461WAT     H273626   7.461   8.809   6.590
24462WAT      O73627   4.178   0.841   0.839
24462WAT     H173628   4.131   0.759   0.806
24462WAT     H273629   4.184   0.837   0.939
24463WAT      O73630   4.998   9.284   1.838
24463WAT     H173631   5.094   9.305   1.817
24463WAT     H273632   4.977   9.315   1.931
24464WAT      O73633   0.059   6.725   1.457
24464WAT     H173634   0.124   6.798   1.478
24464WAT     H273635   0.105   6.637   1.461
24465WAT      O73636   8.447   8.327   2.391
24465WAT     H173637   8.514   8.400   2.406
24465WAT     H273638   8.475   8.245   2.442
24466WAT      O73639   4.715   2.060   4.275
24466WAT     H173640   4.750   2.017   4.191
24466WAT     H273641   4.650   2.131   4.251
24467WAT      O73642   7.374   8.745   4.792
24467WAT     H173643   7.368   8.714   4.887
24467WAT     H273644   7.447   8.813   4.784
24468WAT      O73645   0.817   1.539   7.427
24468WAT     H173646   0.799   1.494   7.514
24468WAT     H273647   0.916   1.553   7.417
24469WAT      O73648   0.606   2.128   4.292
24469WAT     H173649   0.632   2.061   4.362
24469WAT     H273650   0.545   2.084   4.226
24470WAT      O73651   4.433   6.496   8.483
24470WAT     H173652   4.368   6.422   8.501
24470WAT     H273653   4.385   6.583   8.484
24471WAT      O73654   7.139   7.833   5.521
24471WAT     H173655   7.142   7.743   5.564
24471WAT     H273656   7.101   7.900   5.585
24472WAT      O73657   3.792   1.424   7.063
24472WAT     H173658   3.782   1.336   7.017
24472WAT     H273659   3.868   1.419   7.128
24473WAT      O73660   4.373   0.741   9.322
24473WAT     H173661   4.319   0.793   9.388
24473WAT     H273662   4.455   0.704   9.366
24474WAT      O73663   2.361   4.349   0.715
24474WAT     H173664   2.344   4.347   0.813
24474WAT     H273665   2.366   4.444   0.684
24475WAT      O73666   5.403   8.034   4.416
24475WAT     H173667   5.419   7.941   4.450
24475WAT     H273668   5.372   8.092   4.491
24476WAT      O73669   0.925   3.700   1.960
24476WAT     H173670   0.881   3.773   2.013
24476WAT     H273671   0.900   3.611   2.000
24477WAT      O73672   8.640   0.882   3.617
24477WAT     H173673   8.585   0.910   3.695
24477WAT     H273674   8.599   0.802   3.574
24478WAT      O73675   9.193   0.681   2.812
24478WAT     H173676   9.184   0.755   2.744
24478WAT     H273677   9.139   0.602   2.784
24479WAT      O73678   2.418   8.169   7.592
24479WAT     H173679   2.356   8.201   7.663
24479WAT     H273680   2.507   8.147   7.633
24480WAT      O73681   0.939   1.482   4.529
24480WAT     H173682   0.969   1.557   4.587
24480WAT     H273683   0.991   1.482   4.444
24481WAT      O73684   7.038   0.655   1.882
24481WAT     H173685   6.970   0.726   1.903
24481WAT     H273686   7.110   0.656   1.951
24482WAT      O73687   4.703   9.726   5.094
24482WAT     H173688   4.795   9.694   5.113
24482WAT     H273689   4.707   9.804   5.032
24483WAT      O73690   0.167   2.772   5.262
24483WAT     H173691   0.145   2.867   5.285
24483WAT     H273692   0.156   2.714   5.342
24484WAT      O73693   9.383   1.821   5.492
24484WAT     H173694   9.368   1.865   5.581
24484WAT     H273695   9.478   1.831   5.465
24485WAT      O73696   5.456   3.940   2.109
24485WAT     H173697   5.522   4.015   2.103
24485WAT     H273698   5.439   3.903   2.017
24486WAT      O73699   6.600   8.782   3.304
24486WAT     H173700   6.530   8.772   3.233
24486WAT     H273701   6.621   8.879   3.317
24487WAT      O73702   3.567   0.334   0.508
24487WAT     H173703   3.478   0.346   0.551
24487WAT     H273704   3.634   0.308   0.577
24488WAT      O73705   4.746   0.504   3.318
24488WAT     H173706   4.789   0.445   3.386
24488WAT     H273707   4.647   0.489   3.319
24489WAT      O73708   0.683   3.982   7.553
24489WAT     H173709   0.716   3.894   7.516
24489WAT     H273710   0.699   4.054   7.486
24490WAT      O73711   4.598   2.385   7.462
24490WAT     H173712   4.624   2.456   7.528
24490WAT     H273713   4.660   2.388   7.384
24491WAT      O73714   4.430   6.800   5.629
24491WAT     H173715   4.395   6.742   5.556
24491WAT     H273716   4.362   6.806   5.703
24492WAT      O73717   9.607   7.007   8.155
24492WAT     H173718   9.702   6.978   8.148
24492WAT     H273719   9.602   7.107   8.162
24493WAT      O73720   1.897   6.662   5.709
24493WAT     H173721   1.836   6.703   5.641
24493WAT     H273722   1.865   6.570   5.732
24494WAT      O73723   3.621   8.014   2.049
24494WAT     H173724   3.631   7.958   2.131
24494WAT     H273725   3.701   8.003   1.991
24495WAT      O73726   7.882   5.637   2.943
24495WAT     H173727   7.881   5.625   3.042
24495WAT     H273728   7.951   5.704   2.917
24496WAT      O73729   5.282   1.746   0.928
24496WAT     H173730   5.256   1.689   0.850
24496WAT     H273731   5.381   1.742   0.940
24497WAT      O73732   0.560   6.752   7.966
24497WAT     H173733   0.611   6.677   7.923
24497WAT     H273734   0.551   6.733   8.064
24498WAT      O73735   4.634   6.478   7.838
24498WAT     H173736   4.726   6.518   7.834
24498WAT     H273737   4.613   6.451   7.932
24499WAT      O73738   7.193   0.868   5.604
24499WAT     H173739   7.169   0.909   5.692
24499WAT     H273740   7.268   0.804   5.617
24500WAT      O73741   9.613   7.574   5.442
24500WAT     H173742   9.598   7.483   5.481
24500WAT     H273743   9.531   7.630   5.458
24501WAT      O73744   2.449   1.583   8.361
24501WAT     H173745   2.525   1.648   8.361
24501WAT     H273746   2.392   1.598   8.281
24502WAT      O73747   9.331   0.276   9.268
24502WAT     H173748   9.420   0.319   9.280
24502WAT     H273749   9.275   0.292   9.350
24503WAT      O73750   7.384   2.487   8.716
24503WAT     H173751   7.463   2.493   8.777
24503WAT     H273752   7.333   2.404   8.736
24504WAT      O73753   3.330   3.209   4.427
24504WAT     H173754   3.276   3.129   4.456
24504WAT     H273755   3.342   3.207   4.328
24505WAT      O73756   7.900   8.374   4.559
24505WAT     H173757   7.958   8.444   4.601
24505WAT     H273758   7.888   8.298   4.624
24506WAT      O73759   7.580   0.657   6.935
24506WAT     H173760   7.611   0.633   7.027
24506WAT     H273761   7.633   0.734   6.900
24507WAT      O73762   7.813   0.034   3.997
24507WAT     H173763   7.770  -0.032   3.936
24507WAT     H273764   7.775   0.125   3.979
24508WAT      O73765   1.668   9.144   8.382
24508WAT     H173766   1.651   9.241   8.364
24508WAT     H273767   1.582   9.098   8.404
24509WAT      O73768   0.382   9.338   6.800
24509WAT     H173769   0.387   9.295   6.710
24509WAT     H273770   0.334   9.426   6.792
24510WAT      O73771   4.091   5.383   5.601
24510WAT     H173772   4.185   5.356   5.621
24510WAT     H273773   4.045   5.308   5.553
24511WAT      O73774   5.666   9.590   9.391
24511WAT     H173775   5.755   9.613   9.430
24511WAT     H273776   5.596   9.594   9.463
24512WAT      O73777   7.554   1.446   2.143
24512WAT     H173778   7.468   1.407   2.110
24512WAT     H273779   7.580   1.399   2.228
24513WAT      O73780   3.578   3.775   6.106
24513WAT     H173781   3.612   3.712   6.036
24513WAT     H273782   3.480   3.787   6.095
24514WAT      O73783   7.508   4.195   4.582
24514WAT     H173784   7.410   4.181   4.568
24514WAT     H273785   7.524   4.290   4.610
24515WAT      O73786   8.084   6.955   8.069
24515WAT     H173787   8.129   6.912   7.991
24515WAT     H273788   8.130   6.929   8.153
24516WAT      O73789   5.805   8.374   2.773
24516WAT     H173790   5.720   8.381   2.826
24516WAT     H273791   5.865   8.450   2.798
24517WAT      O73792   9.798   8.846   1.119
24517WAT     H173793   9.714   8.798   1.147
24517WAT     H273794   9.785   8.886   1.028
24518WAT      O73795   2.513   0.861   6.519
24518WAT     H173796   2.586   0.846   6.586
24518WAT     H273797   2.506   0.782   6.459
24519WAT      O73798   1.329   8.421   1.102
24519WAT     H173799   1.271   8.417   1.183
24519WAT     H273800   1.284   8.474   1.031
24520WAT      O73801   5.018   1.263   7.874
24520WAT     H173802   5.070   1.234   7.794
24520WAT     H273803   4.939   1.202   7.886
24521WAT      O73804   2.010   2.289   1.249
24521WAT     H173805   2.063   2.319   1.169
24521WAT     H273806   2.025   2.192   1.265
24522WAT      O73807   9.548   6.786   9.485
24522WAT     H173808   9.638   6.772   9.445
24522WAT     H273809   9.531   6.884   9.496
24523WAT      O73810   0.955   2.270   1.014
24523WAT     H173811   1.022   2.235   0.948
24523WAT     H273812   0.864   2.266   0.974
24524WAT      O73813   2.531   6.667   5.779
24524WAT     H173814   2.624   6.635   5.765
24524WAT     H273815   2.468   6.589   5.781
24525WAT      O73816   9.418   7.248   8.557
24525WAT     H173817   9.461   7.272   8.644
24525WAT     H273818   9.392   7.332   8.509
24526WAT      O73819   3.414   4.851   9.079
24526WAT     H173820   3.479   4.864   9.154
24526WAT     H273821   3.359   4.934   9.068
24527WAT      O73822   3.973   2.971   1.451
24527WAT     H173823   3.911   2.951   1.376
24527WAT     H273824   3.932   3.040   1.510
24528WAT      O73825   2.444   3.748   7.113
24528WAT     H173826   2.490   3.692   7.044
24528WAT     H273827   2.512   3.795   7.169
24529WAT      O73828   9.575   5.157   7.218
24529WAT     H173829   9.576   5.220   7.296
24529WAT     H273830   9.638   5.191   7.148
24530WAT      O73831   0.020   5.737   4.232
24530WAT     H173832  -0.049   5.678   4.190
24530WAT     H273833  -0.004   5.832   4.217
24531WAT      O73834   6.275   2.466   6.488
24531WAT     H173835   6.226   2.388   6.448
24531WAT     H273836   6.292   2.448   6.585
24532WAT      O73837   8.214   1.535   1.041
24532WAT     H173838   8.232   1.476   0.962
24532WAT     H273839   8.154   1.610   1.015
24533WAT      O73840   0.260   8.626   0.393
24533WAT     H173841   0.234   8.657   0.301
24533WAT     H273842   0.313   8.697   0.439
24534WAT      O73843   9.579   4.625   4.797
24534WAT     H173844   9.510   4.655   4.732
24534WAT     H273845   9.602   4.700   4.859
24535WAT      O73846   9.339   5.172   4.986
24535WAT     H173847   9.244   5.162   5.017
24535WAT     H273848   9.365   5.268   4.988
24536WAT      O73849   3.792   4.021   8.943
24536WAT     H173850   3.849   3.975   8.875
24536WAT     H273851   3.850   4.066   9.010
24537WAT      O73852   7.214   5.303   0.970
24537WAT     H173853   7.134   5.347   1.010
24537WAT     H273854   7.284   5.290   1.041
24538WAT      O73855   2.529   2.615   3.555
24538WAT     H173856   2.518   2.570   3.643
24538WAT     H273857   2.623   2.606   3.524
24539WAT      O73858   5.838   8.807   6.121
24539WAT     H173859   5.889   8.744   6.062
24539WAT     H273860   5.762   8.845   6.070
24540WAT      O73861   2.300   9.682   4.173
24540WAT     H173862   2.249   9.597   4.159
24540WAT     H273863   2.238   9.754   4.202
24541WAT      O73864   1.874   7.640   3.872
24541WAT     H173865   1.944   7.711   3.858
24541WAT     H273866   1.827   7.657   3.958
24542WAT      O73867   6.651   6.003   1.694
24542WAT     H173868   6.633   5.914   1.653
24542WAT     H273869   6.697   6.062   1.628
24543WAT      O73870   6.847   6.095   1.493
24543WAT     H173871   6.902   6.011   1.495
24543WAT     H273872   6.837   6.125   1.398
24544WAT      O73873   2.595   8.578   4.014
24544WAT     H173874   2.613   8.673   3.989
24544WAT     H273875   2.682   8.532   4.031
24545WAT      O73876   5.044   6.498   1.368
24545WAT     H173877   5.112   6.515   1.297
24545WAT     H273878   5.052   6.566   1.440
24546WAT      O73879   4.519   3.501   7.343
24546WAT     H173880   4.513   3.431   7.272
24546WAT     H273881   4.428   3.519   7.379
24547WAT      O73882   5.847   9.675   5.210
24547WAT     H173883   5.865   9.670   5.308
24547WAT     H273884   5.929   9.705   5.162
24548WAT      O73885   6.155   5.454   8.232
24548WAT     H173886   6.138   5.541   8.187
24548WAT     H273887   6.196   5.470   8.322
24549WAT      O73888   0.856   8.000   0.859
24549WAT     H173889   0.877   8.007   0.957
24549WAT     H273890   0.822   8.088   0.826
24550WAT      O73891   0.558   9.563   3.759
24550WAT     H173892   0.583   9.638   3.699
24550WAT     H273893   0.600   9.478   3.726
24551WAT      O73894   7.433   8.363   3.329
24551WAT     H173895   7.361   8.412   3.278
24551WAT     H273896   7.500   8.328   3.264
24552WAT      O73897   2.061   3.739   6.217
24552WAT     H173898   2.067   3.677   6.138
24552WAT     H273899   2.127   3.711   6.287
24553WAT      O73900   3.636   2.373   5.355
24553WAT     H173901   3.568   2.401   5.423
24553WAT     H273902   3.713   2.437   5.357
24554WAT      O73903   1.784   7.497   0.655
24554WAT     H173904   1.705   7.465   0.706
24554WAT     H273905   1.836   7.419   0.621
24555WAT      O73906   4.581   8.988   8.235
24555WAT     H173907   4.510   8.943   8.290
24555WAT     H273908   4.642   9.039   8.296
24556WAT      O73909   9.619   4.463   6.628
24556WAT     H173910   9.688   4.511   6.573
24556WAT     H273911   9.596   4.376   6.585
24557WAT      O73912   5.888   1.916   5.179
24557WAT     H173913   5.879   2.002   5.129
24557WAT     H273914   5.907   1.842   5.114
24558WAT      O73915   2.951   8.861   2.419
24558WAT     H173916   2.886   8.864   2.495
24558WAT     H273917   3.038   8.823   2.450
24559WAT      O73918   2.016   7.960   3.816
24559WAT     H173919   2.044   7.953   3.912
24559WAT     H273920   2.083   7.912   3.758
24560WAT      O73921   1.003   3.338   2.318
24560WAT     H173922   1.056   3.254   2.319
24560WAT     H273923   1.029   3.395   2.395
24561WAT      O73924   8.728   5.006   4.133
24561WAT     H173925   8.715   4.908   4.127
24561WAT     H273926   8.704   5.049   4.046
24562WAT      O73927   2.026   5.440   5.197
24562WAT     H173928   1.953   5.389   5.242
24562WAT     H273929   2.031   5.411   5.101
24563WAT      O73930   8.799   3.223   9.601
24563WAT     H173931   8.844   3.235   9.512
24563WAT     H273932   8.862   3.252   9.674
24564WAT      O73933   2.391   2.466   8.626
24564WAT     H173934   2.367   2.422   8.539
24564WAT     H273935   2.465   2.531   8.610
24565WAT      O73936   7.571   1.698   2.609
24565WAT     H173937   7.484   1.659   2.639
24565WAT     H273938   7.647   1.649   2.651
24566WAT      O73939   5.342   7.347   3.951
24566WAT     H173940   5.397   7.427   3.976
24566WAT     H273941   5.245   7.372   3.952
24567WAT      O73942   1.608   7.391   1.951
24567WAT     H173943   1.670   7.391   1.872
24567WAT     H273944   1.573   7.298   1.967
24568WAT      O73945   7.033   5.169   0.596
24568WAT     H173946   6.986   5.101   0.539
24568WAT     H273947   6.987   5.257   0.587
24569WAT      O73948   9.436   8.908   7.819
24569WAT     H173949   9.340   8.887   7.839
24569WAT     H273950   9.485   8.823   7.799
24570WAT      O73951   1.842   0.370   6.867
24570WAT     H173952   1.845   0.372   6.967
24570WAT     H273953   1.809   0.281   6.836
24571WAT      O73954   3.376   8.592   6.639
24571WAT     H173955   3.281   8.591   6.668
24571WAT     H273956   3.436   8.585   6.719
24572WAT      O73957   2.593   9.097   6.182
24572WAT     H173958   2.583   9.000   6.206
24572WAT     H273959   2.540   9.117   6.100
24573WAT      O73960   9.596   2.915   2.243
24573WAT     H173961   9.529   2.964   2.299
24573WAT     H273962   9.565   2.913   2.148
24574WAT      O73963   1.088   9.723   2.659
24574WAT     H173964   1.150   9.758   2.728
24574WAT     H273965   1.040   9.642   2.694
24575WAT      O73966   4.590   0.838   8.767
24575WAT     H173967   4.569   0.842   8.669
24575WAT     H273968   4.509   0.808   8.818
24576WAT      O73969   8.188   0.955   0.141
24576WAT     H173970   8.179   0.855   0.141
24576WAT     H273971   8.180   0.989   0.235
24577WAT      O73972   2.964   0.711   6.177
24577WAT     H173973   2.973   0.614   6.201
24577WAT     H273974   3.052   0.756   6.190
24578WAT      O73975   2.841   6.990   1.567
24578WAT     H173976   2.828   6.920   1.637
24578WAT     H273977   2.927   6.972   1.519
24579WAT      O73978   4.614   7.044   6.941
24579WAT     H173979   4.566   7.001   6.865
24579WAT     H273980   4.638   6.976   7.009
24580WAT      O73981   3.466   1.628   0.889
24580WAT     H173982   3.482   1.664   0.797
24580WAT     H273983   3.387   1.568   0.888
24581WAT      O73984   6.998   0.636   1.596
24581WAT     H173985   7.012   0.732   1.572
24581WAT     H273986   6.990   0.627   1.695
24582WAT      O73987   5.405   8.789   7.141
24582WAT     H173988   5.417   8.881   7.178
24582WAT     H273989   5.493   8.742   7.139
24583WAT      O73990   3.127   7.435   1.237
24583WAT     H173991   3.133   7.508   1.169
24583WAT     H273992   3.132   7.346   1.191
24584WAT      O73993   5.088   4.600   1.915
24584WAT     H173994   5.188   4.593   1.922
24584WAT     H273995   5.052   4.634   2.002
24585WAT      O73996   3.395   1.898   3.873
24585WAT     H173997   3.374   1.946   3.787
24585WAT     H273998   3.325   1.829   3.890
24586WAT      O73999   1.048   3.524   6.643
24586WAT     H174000   0.986   3.598   6.669
24586WAT     H274001   1.109   3.503   6.719
24587WAT      O74002   9.598   4.161   1.087
24587WAT     H174003   9.655   4.228   1.134
24587WAT     H274004   9.508   4.201   1.070
24588WAT      O74005   0.643   9.823   4.237
24588WAT     H174006   0.714   9.761   4.268
24588WAT     H274007   0.553   9.785   4.261
24589WAT      O74008   9.175   7.553   0.470
24589WAT     H174009   9.082   7.581   0.446
24589WAT     H274010   9.205   7.480   0.409
24590WAT      O74011   1.526   6.358   9.787
24590WAT     H174012   1.585   6.438   9.796
24590WAT     H274013   1.430   6.388   9.778
24591WAT      O74014   6.585   1.278   2.474
24591WAT     H174015   6.561   1.234   2.560
24591WAT     H274016   6.623   1.369   2.492
24592WAT      O74017   5.826   4.150   0.050
24592WAT     H174018   5.798   4.241   0.018
24592WAT     H274019   5.925   4.151   0.068
24593WAT      O74020   7.266   1.921   4.017
24593WAT     H174021   7.245   1.924   4.114
24593WAT     H274022   7.359   1.954   4.001
24594WAT      O74023   9.565   8.018   9.115
24594WAT     H174024   9.617   7.959   9.177
24594WAT     H274025   9.596   8.004   9.021
24595WAT      O74026   1.722   9.112   2.843
24595WAT     H174027   1.767   9.037   2.891
24595WAT     H274028   1.777   9.195   2.852
24596WAT      O74029   7.502   0.438   7.730
24596WAT     H174030   7.418   0.491   7.736
24596WAT     H274031   7.485   0.344   7.760
24597WAT      O74032   9.540   8.702   8.765
24597WAT     H174033   9.468   8.726   8.830
24597WAT     H274034   9.552   8.603   8.764
24598WAT      O74035   3.381   0.604   6.906
24598WAT     H174036   3.467   0.652   6.925
24598WAT     H274037   3.319   0.666   6.858
24599WAT      O74038   9.828   4.307   4.893
24599WAT     H174039   9.850   4.251   4.813
24599WAT     H274040   9.903   4.302   4.959
24600WAT      O74041   1.111   3.670   5.083
24600WAT     H174042   1.060   3.711   5.158
24600WAT     H274043   1.209   3.677   5.102
24601WAT      O74044   1.397   5.279   2.640
24601WAT     H174045   1.424   5.273   2.736
24601WAT     H274046   1.446   5.353   2.596
24602WAT      O74047   7.768   3.324   4.757
24602WAT     H174048   7.710   3.405   4.756
24602WAT     H274049   7.813   3.314   4.668
24603WAT      O74050   8.761   1.793   8.845
24603WAT     H174051   8.815   1.709   8.841
24603WAT     H274052   8.666   1.773   8.821
24604WAT      O74053   4.019   4.114   1.500
24604WAT     H174054   4.015   4.187   1.568
24604WAT     H274055   3.954   4.042   1.523
24605WAT      O74056   8.650   0.671   0.397
24605WAT     H174057   8.554   0.643   0.402
24605WAT     H274058   8.687   0.682   0.489
24606WAT      O74059   2.758   7.119   4.777
24606WAT     H174060   2.698   7.118   4.697
24606WAT     H274061   2.714   7.072   4.853
24607WAT      O74062   2.237   2.143   7.814
24607WAT     H174063   2.194   2.152   7.724
24607WAT     H274064   2.235   2.231   7.861
24608WAT      O74065   9.591   4.026   0.034
24608WAT     H174066   9.549   4.116   0.050
24608WAT     H274067   9.593   4.007  -0.064
24609WAT      O74068   5.572   8.164   3.884
24609WAT     H174069   5.610   8.251   3.854
24609WAT     H274070   5.547   8.108   3.805
24610WAT      O74071   3.285   2.664   4.163
24610WAT     H174072   3.209   2.721   4.194
24610WAT     H274073   3.372   2.710   4.182
24611WAT      O74074   0.968   3.243   7.906
24611WAT     H174075   0.930   3.333   7.881
24611WAT     H274076   1.039   3.255   7.975
24612WAT      O74077   6.914   7.290   5.569
24612WAT     H174078   6.943   7.296   5.665
24612WAT     H274079   6.961   7.360   5.515
24613WAT      O74080   8.107   0.050   1.367
24613WAT     H174081   8.176   0.119   1.385
24613WAT     H274082   8.017   0.086   1.392
24614WAT      O74083   7.708   7.146   5.066
24614WAT     H174084   7.618   7.186   5.053
24614WAT     H274085   7.767   7.213   5.113
24615WAT      O74086   0.199   1.488   4.786
24615WAT     H174087   0.132   1.556   4.815
24615WAT     H274088   0.265   1.473   4.860
24616WAT      O74089   6.010   2.793   9.072
24616WAT     H174090   5.924   2.745   9.060
24616WAT     H274091   6.069   2.741   9.133
24617WAT      O74092   4.653   6.169   3.006
24617WAT     H174093   4.613   6.228   3.076
24617WAT     H274094   4.735   6.125   3.043
24618WAT      O74095   7.889   7.808   1.375
24618WAT     H174096   7.910   7.721   1.331
24618WAT     H274097   7.796   7.835   1.353
24619WAT      O74098   2.549   6.821   6.098
24619WAT     H174099   2.604   6.880   6.158
24619WAT     H274100   2.525   6.872   6.015
24620WAT      O74101   7.846   9.335   3.497
24620WAT     H174102   7.749   9.322   3.478
24620WAT     H274103   7.886   9.395   3.428
24621WAT      O74104   1.713   6.186   9.866
24621WAT     H174105   1.798   6.237   9.855
24621WAT     H274106   1.635   6.249   9.865
24622WAT      O74107   0.776   3.338   6.135
24622WAT     H174108   0.816   3.428   6.153
24622WAT     H274109   0.791   3.278   6.214
24623WAT      O74110   5.275   1.084   5.457
24623WAT     H174111   5.369   1.067   5.485
24623WAT     H274112   5.242   1.168   5.501
24624WAT      O74113   3.951   6.243   1.649
24624WAT     H174114   3.983   6.337   1.634
24624WAT     H274115   4.004   6.181   1.592
24625WAT      O74116   7.227   8.217   5.812
24625WAT     H174117   7.277   8.162   5.879
24625WAT     H274118   7.188   8.157   5.742
24626WAT      O74119   6.783   5.477   8.967
24626WAT     H174120   6.857   5.530   9.009
24626WAT     H274121   6.821   5.399   8.917
24627WAT      O74122   5.037   3.461   8.761
24627WAT     H174123   4.967   3.393   8.781
24627WAT     H274124   5.030   3.490   8.666
24628WAT      O74125   6.090   5.792   7.708
24628WAT     H174126   6.058   5.877   7.749
24628WAT     H274127   6.156   5.748   7.770
24629WAT      O74128   9.765   3.911   4.887
24629WAT     H174129   9.815   3.921   4.973
24629WAT     H274130   9.675   3.954   4.895
24630WAT      O74131   4.142   7.521   3.731
24630WAT     H174132   4.133   7.423   3.710
24630WAT     H274133   4.171   7.570   3.649
24631WAT      O74134   8.824   6.726   2.619
24631WAT     H174135   8.740   6.680   2.592
24631WAT     H274136   8.826   6.818   2.580
24632WAT      O74137   9.708   2.825   7.876
24632WAT     H174138   9.752   2.781   7.955
24632WAT     H274139   9.612   2.842   7.897
24633WAT      O74140   2.246   6.370   0.659
24633WAT     H174141   2.172   6.400   0.719
24633WAT     H274142   2.213   6.370   0.564
24634WAT      O74143   5.765   7.637   2.064
24634WAT     H174144   5.727   7.682   2.145
24634WAT     H274145   5.730   7.682   1.982
24635WAT      O74146   5.064   7.605   2.790
24635WAT     H174147   5.147   7.549   2.792
24635WAT     H274148   5.077   7.682   2.728
24636WAT      O74149   9.468   8.921   2.453
24636WAT     H174150   9.445   9.018   2.442
24636WAT     H274151   9.473   8.899   2.551
24637WAT      O74152   5.872   7.557   3.796
24637WAT     H174153   5.791   7.599   3.837
24637WAT     H274154   5.951   7.618   3.811
24638WAT      O74155   5.958   1.023   5.306
24638WAT     H174156   6.050   1.000   5.339
24638WAT     H274157   5.906   1.065   5.379
24639WAT      O74158   7.258   9.588   9.726
24639WAT     H174159   7.234   9.593   9.823
24639WAT     H274160   7.299   9.675   9.698
24640WAT      O74161   5.493   3.562   5.919
24640WAT     H174162   5.462   3.467   5.911
24640WAT     H274163   5.420   3.616   5.960
24641WAT      O74164   2.832   2.689   7.594
24641WAT     H174165   2.919   2.728   7.626
24641WAT     H274166   2.814   2.604   7.645
24642WAT      O74167   0.226   4.263   7.643
24642WAT     H174168   0.196   4.281   7.550
24642WAT     H274169   0.326   4.255   7.644
24643WAT      O74170   1.863   2.106   1.635
24643WAT     H174171   1.864   2.012   1.601
24643WAT     H274172   1.894   2.168   1.562
24644WAT      O74173   2.172   6.025   5.195
24644WAT     H174174   2.267   6.010   5.221
24644WAT     H274175   2.152   5.973   5.112
24645WAT      O74176   7.869   6.782   0.750
24645WAT     H174177   7.913   6.793   0.661
24645WAT     H274178   7.904   6.850   0.814
24646WAT      O74179   8.568   2.445   1.874
24646WAT     H174180   8.485   2.396   1.846
24646WAT     H274181   8.556   2.543   1.857
24647WAT      O74182   9.724   7.250   9.478
24647WAT     H174183   9.750   7.346   9.484
24647WAT     H274184   9.744   7.216   9.386
24648WAT      O74185   6.081   7.579   9.636
24648WAT     H174186   6.052   7.483   9.635
24648WAT     H274187   6.016   7.634   9.583
24649WAT      O74188   8.411   2.142   2.947
24649WAT     H174189   8.500   2.186   2.950
24649WAT     H274190   8.423   2.044   2.930
24650WAT      O74191   4.484   5.543   3.466
24650WAT     H174192   4.468   5.621   3.525
24650WAT     H274193   4.581   5.540   3.441
24651WAT      O74194   5.055   7.243   9.195
24651WAT     H174195   5.024   7.324   9.245
24651WAT     H274196   5.045   7.259   9.097
24652WAT      O74197   0.418   6.221   0.176
24652WAT     H174198   0.389   6.146   0.235
24652WAT     H274199   0.464   6.184   0.095
24653WAT      O74200   1.720   2.683   9.569
24653WAT     H174201   1.680   2.773   9.550
24653WAT     H274202   1.788   2.661   9.500
24654WAT      O74203   6.807   9.132   2.940
24654WAT     H174204   6.857   9.134   3.027
24654WAT     H274205   6.848   9.063   2.880
24655WAT      O74206   3.223   8.001   0.041
24655WAT     H174207   3.254   7.962   0.127
24655WAT     H274208   3.245   8.099   0.039
24656WAT      O74209   2.638   5.772   9.876
24656WAT     H174210   2.731   5.778   9.914
24656WAT     H274211   2.583   5.712   9.933
24657WAT      O74212   0.809   3.647   5.977
24657WAT     H174213   0.777   3.631   6.071
24657WAT     H274214   0.777   3.574   5.918
24658WAT      O74215   3.686   3.216   0.634
24658WAT     H174216   3.778   3.256   0.627
24658WAT     H274217   3.631   3.246   0.556
24659WAT      O74218   4.454   3.334   3.335
24659WAT     H174219   4.544   3.299   3.311
24659WAT     H274220   4.420   3.392   3.262
24660WAT      O74221   6.758   3.646   8.416
24660WAT     H174222   6.727   3.682   8.328
24660WAT     H274223   6.714   3.696   8.491
24661WAT      O74224   9.427   4.857   5.838
24661WAT     H174225   9.441   4.904   5.925
24661WAT     H274226   9.473   4.908   5.765
24662WAT      O74227   5.454   8.017   9.883
24662WAT     H174228   5.502   7.929   9.887
24662WAT     H274229   5.379   8.017   9.950
24663WAT      O74230   5.974   2.242   2.445
24663WAT     H174231   5.878   2.261   2.422
24663WAT     H274232   5.979   2.158   2.498
24664WAT      O74233   3.357   4.952   7.793
24664WAT     H174234   3.282   5.009   7.827
24664WAT     H274235   3.430   5.010   7.758
24665WAT      O74236   5.074   3.893   3.171
24665WAT     H174237   5.039   3.802   3.194
24665WAT     H274238   5.058   3.912   3.075
24666WAT      O74239   6.868   6.748   0.092
24666WAT     H174240   6.907   6.814   0.157
24666WAT     H274241   6.905   6.766   0.001
24667WAT      O74242   9.597   0.693   6.913
24667WAT     H174243   9.505   0.724   6.933
24667WAT     H274244   9.644   0.669   6.998
24668WAT      O74245   5.833   0.020   4.604
24668WAT     H174246   5.773   0.045   4.680
24668WAT     H274247   5.824   0.089   4.531
24669WAT      O74248   0.394   7.464   3.272
24669WAT     H174249   0.347   7.521   3.340
24669WAT     H274250   0.358   7.483   3.181
24670WAT      O74251   7.770   9.113   3.992
24670WAT     H174252   7.735   9.032   4.039
24670WAT     H274253   7.760   9.193   4.051
24671WAT      O74254   2.502   4.835   1.659
24671WAT     H174255   2.486   4.779   1.578
24671WAT     H274256   2.418   4.841   1.713
24672WAT      O74257   8.271   8.781   4.612
24672WAT     H174258   8.224   8.695   4.629
24672WAT     H274259   8.369   8.769   4.628
24673WAT      O74260   3.967   4.916   1.379
24673WAT     H174261   4.058   4.922   1.338
24673WAT     H274262   3.897   4.921   1.308
24674WAT      O74263   4.421   7.998   8.157
24674WAT     H174264   4.483   8.050   8.217
24674WAT     H274265   4.437   8.026   8.062
24675WAT      O74266   4.651   6.283   5.451
24675WAT     H174267   4.677   6.379   5.442
24675WAT     H274268   4.553   6.277   5.472
24676WAT      O74269   6.310   5.764   4.748
24676WAT     H174270   6.354   5.735   4.664
24676WAT     H274271   6.211   5.770   4.734
24677WAT      O74272   3.034   4.222   8.534
24677WAT     H174273   3.039   4.258   8.628
24677WAT     H274274   2.939   4.225   8.503
24678WAT      O74275   1.362   6.106   9.608
24678WAT     H174276   1.449   6.082   9.652
24678WAT     H274277   1.304   6.154   9.674
24679WAT      O74278   2.874   9.613   4.050
24679WAT     H174279   2.892   9.516   4.065
24679WAT     H274280   2.818   9.649   4.124
24680WAT      O74281   3.307   1.110   5.732
24680WAT     H174282   3.396   1.151   5.753
24680WAT     H274283   3.234   1.176   5.750
24681WAT      O74284   5.139   0.217   0.567
24681WAT     H174285   5.138   0.171   0.656
24681WAT     H274286   5.050   0.261   0.552
24682WAT      O74287   8.886   4.907   9.435
24682WAT     H174288   8.886   4.894   9.535
24682WAT     H274289   8.917   4.823   9.391
24683WAT      O74290   1.770   7.077   9.862
24683WAT     H174291   1.867   7.096   9.847
24683WAT     H274292   1.718   7.163   9.856
24684WAT      O74293   1.930   8.692   5.799
24684WAT     H174294   2.026   8.674   5.780
24684WAT     H274295   1.890   8.744   5.724
24685WAT      O74296   8.504   4.078   5.177
24685WAT     H174297   8.575   4.008   5.183
24685WAT     H274298   8.503   4.132   5.261
24686WAT      O74299   4.980   8.834   0.094
24686WAT     H174300   4.902   8.807   0.038
24686WAT     H274301   4.968   8.797   0.187
24687WAT      O74302   2.677   7.814   5.696
24687WAT     H174303   2.754   7.758   5.667
24687WAT     H274304   2.660   7.800   5.794
24688WAT      O74305   6.044   8.849   5.185
24688WAT     H174306   5.979   8.774   5.170
24688WAT     H274307   6.121   8.815   5.239
24689WAT      O74308   4.668   5.466   6.715
24689WAT     H174309   4.578   5.423   6.728
24689WAT     H274310   4.677   5.543   6.779
24690WAT      O74311   8.913   4.249   7.786
24690WAT     H174312   8.837   4.205   7.833
24690WAT     H274313   8.993   4.252   7.847
24691WAT      O74314   1.141   3.461   5.871
24691WAT     H174315   1.224   3.482   5.820
24691WAT     H274316   1.151   3.492   5.965
24692WAT      O74317   6.277   8.383   7.219
24692WAT     H174318   6.304   8.479   7.210
24692WAT     H274319   6.180   8.379   7.242
24693WAT      O74320   3.445   6.269   8.830
24693WAT     H174321   3.465   6.329   8.753
24693WAT     H274322   3.479   6.311   8.914
24694WAT      O74323   8.660   6.475   4.917
24694WAT     H174324   8.622   6.562   4.949
24694WAT     H274325   8.715   6.490   4.835
24695WAT      O74326   5.934   9.683   9.419
24695WAT     H174327   5.928   9.758   9.354
24695WAT     H274328   6.009   9.701   9.484
24696WAT      O74329   0.179   9.452   7.314
24696WAT     H174330   0.230   9.517   7.370
24696WAT     H274331   0.081   9.463   7.331
24697WAT      O74332   7.356   4.159   8.691
24697WAT     H174333   7.424   4.139   8.762
24697WAT     H274334   7.366   4.255   8.663
24698WAT      O74335   6.666   2.332   3.018
24698WAT     H174336   6.637   2.327   2.922
24698WAT     H274337   6.654   2.425   3.052
24699WAT      O74338   6.332   6.693   5.092
24699WAT     H174339   6.344   6.594   5.102
24699WAT     H274340   6.375   6.739   5.170
24700WAT      O74341   2.172   1.351   3.419
24700WAT     H174342   2.097   1.308   3.369
24700WAT     H274343   2.251   1.289   3.420
24701WAT      O74344   8.181   8.678   1.058
24701WAT     H174345   8.271   8.697   1.018
24701WAT     H274346   8.188   8.681   1.157
24702WAT      O74347   8.706   1.083   1.162
24702WAT     H174348   8.749   1.030   1.088
24702WAT     H274349   8.692   1.024   1.241
24703WAT      O74350   1.614   9.072   1.509
24703WAT     H174351   1.615   9.004   1.582
24703WAT     H274352   1.521   9.103   1.493
24704WAT      O74353   1.621   1.118   5.882
24704WAT     H174354   1.589   1.059   5.807
24704WAT     H274355   1.651   1.206   5.844
24705WAT      O74356   8.902   2.299   4.441
24705WAT     H174357   8.850   2.360   4.380
24705WAT     H274358   8.950   2.354   4.509
24706WAT      O74359   6.475   6.921   1.869
24706WAT     H174360   6.517   6.877   1.790
24706WAT     H274361   6.438   7.010   1.842
24707WAT      O74362   8.128   4.396   9.580
24707WAT     H174363   8.116   4.306   9.623
24707WAT     H274364   8.114   4.388   9.481
24708WAT      O74365   6.039   3.136   4.781
24708WAT     H174366   5.981   3.217   4.793
24708WAT     H274367   6.018   3.069   4.852
24709WAT      O74368   5.683   3.706   3.539
24709WAT     H174369   5.727   3.761   3.468
24709WAT     H274370   5.732   3.719   3.626
24710WAT      O74371   8.180   7.925   9.757
24710WAT     H174372   8.096   7.980   9.757
24710WAT     H274373   8.237   7.951   9.679
24711WAT      O74374   5.938   1.798   4.610
24711WAT     H174375   5.938   1.698   4.612
24711WAT     H274376   5.845   1.832   4.622
24712WAT      O74377   7.216   4.777   5.583
24712WAT     H174378   7.295   4.719   5.563
24712WAT     H274379   7.139   4.719   5.611
24713WAT      O74380   2.276   3.693   6.402
24713WAT     H174381   2.288   3.605   6.357
24713WAT     H274382   2.322   3.764   6.349
24714WAT      O74383   7.061   8.167   3.584
24714WAT     H174384   7.016   8.081   3.606
24714WAT     H274385   7.146   8.150   3.534
24715WAT      O74386   6.139   5.282   1.488
24715WAT     H174387   6.054   5.332   1.504
24715WAT     H274388   6.133   5.233   1.401
24716WAT      O74389   4.376   9.300   5.854
24716WAT     H174390   4.334   9.233   5.792
24716WAT     H274391   4.309   9.333   5.920
24717WAT      O74392   0.903   4.430   6.169
24717WAT     H174393   0.942   4.474   6.088
24717WAT     H274394   0.809   4.402   6.149
24718WAT      O74395   2.672   8.968   9.139
24718WAT     H174396   2.696   8.946   9.044
24718WAT     H274397   2.674   8.885   9.194
24719WAT      O74398   3.627   3.945   4.621
24719WAT     H174399   3.630   4.025   4.682
24719WAT     H274400   3.667   3.866   4.667
24720WAT      O74401   2.111   7.445   4.312
24720WAT     H174402   2.187   7.493   4.267
24720WAT     H274403   2.146   7.362   4.356
24721WAT      O74404   2.134   7.415   0.418
24721WAT     H174405   2.091   7.386   0.332
24721WAT     H274406   2.067   7.410   0.492
24722WAT      O74407   3.817   9.809   4.059
24722WAT     H174408   3.804   9.881   3.991
24722WAT     H274409   3.913   9.810   4.089
24723WAT      O74410   1.571   3.470   0.692
24723WAT     H174411   1.479   3.485   0.727
24723WAT     H274412   1.638   3.506   0.758
24724WAT      O74413   4.138   3.213   7.679
24724WAT     H174414   4.214   3.269   7.712
24724WAT     H274415   4.108   3.152   7.752
24725WAT      O74416   1.832   8.181   8.227
24725WAT     H174417   1.838   8.244   8.304
24725WAT     H274418   1.889   8.214   8.152
24726WAT      O74419   5.563   1.169   1.964
24726WAT     H174420   5.519   1.091   1.920
24726WAT     H274421   5.590   1.144   2.057
24727WAT      O74422   3.854   4.016   9.684
24727WAT     H174423   3.819   3.965   9.605
24727WAT     H274424   3.781   4.074   9.721
24728WAT      O74425   4.625   0.544   0.211
24728WAT     H174426   4.713   0.502   0.191
24728WAT     H274427   4.551   0.489   0.171
24729WAT      O74428   8.321   1.399   1.398
24729WAT     H174429   8.352   1.304   1.392
24729WAT     H274430   8.319   1.427   1.494
24730WAT      O74431   7.321   0.477   0.571
24730WAT     H174432   7.247   0.418   0.539
24730WAT     H274433   7.286   0.569   0.587
24731WAT      O74434   2.168   8.489   3.128
24731WAT     H174435   2.226   8.412   3.156
24731WAT     H274436   2.225   8.570   3.116
24732WAT      O74437   6.224   9.209   6.728
24732WAT     H174438   6.193   9.120   6.762
24732WAT     H274439   6.245   9.268   6.806
24733WAT      O74440   0.677   9.844   3.093
24733WAT     H174441   0.602   9.794   3.137
24733WAT     H274442   0.706   9.796   3.011
24734WAT      O74443   6.995   5.565   9.083
24734WAT     H174444   7.070   5.501   9.068
24734WAT     H274445   7.014   5.621   9.164
24735WAT      O74446   9.152   6.073   0.017
24735WAT     H174447   9.198   5.985   0.003
24735WAT     H274448   9.209   6.146  -0.021
24736WAT      O74449   9.369   1.105   7.611
24736WAT     H174450   9.379   1.137   7.705
24736WAT     H274451   9.410   1.172   7.549
24737WAT      O74452   9.704   4.775   3.790
24737WAT     H174453   9.664   4.820   3.870
24737WAT     H274454   9.683   4.677   3.793
24738WAT      O74455  -0.000   4.448   3.141
24738WAT     H174456  -0.021   4.389   3.063
24738WAT     H274457   0.043   4.532   3.108
24739WAT      O74458   1.373   5.773   2.675
24739WAT     H174459   1.316   5.818   2.744
24739WAT     H274460   1.315   5.731   2.605
24740WAT      O74461   5.834   9.181   6.306
24740WAT     H174462   5.866   9.254   6.367
24740WAT     H274463   5.905   9.112   6.298
24741WAT      O74464   1.325   0.018   7.925
24741WAT     H174465   1.353   0.114   7.930
24741WAT     H274466   1.225   0.013   7.930
24742WAT      O74467   4.407   9.376   8.241
24742WAT     H174468   4.494   9.405   8.201
24742WAT     H274469   4.364   9.309   8.181
24743WAT      O74470   5.674   2.223   2.721
24743WAT     H174471   5.684   2.307   2.667
24743WAT     H274472   5.727   2.150   2.678
24744WAT      O74473   4.992   1.043   8.259
24744WAT     H174474   4.918   0.977   8.272
24744WAT     H274475   5.052   1.042   8.338
24745WAT      O74476   7.484   8.562   5.548
24745WAT     H174477   7.425   8.539   5.626
24745WAT     H274478   7.429   8.566   5.465
24746WAT      O74479   1.106   8.345   6.187
24746WAT     H174480   1.043   8.341   6.109
24746WAT     H274481   1.153   8.257   6.197
24747WAT      O74482   7.288   5.155   2.219
24747WAT     H174483   7.209   5.114   2.173
24747WAT     H274484   7.256   5.221   2.287
24748WAT      O74485   5.756   2.069   6.952
24748WAT     H174486   5.777   2.004   7.025
24748WAT     H274487   5.679   2.127   6.981
24749WAT      O74488   0.924   1.011   7.162
24749WAT     H174489   0.887   1.003   7.255
24749WAT     H274490   0.959   0.923   7.132
24750WAT      O74491   3.751   9.001   4.192
24750WAT     H174492   3.675   9.000   4.127
24750WAT     H274493   3.815   9.074   4.168
24751WAT      O74494   2.308   3.575   8.017
24751WAT     H174495   2.375   3.501   8.025
24751WAT     H274496   2.221   3.538   7.984
24752WAT      O74497   8.143   2.333   6.798
24752WAT     H174498   8.124   2.407   6.733
24752WAT     H274499   8.180   2.372   6.882
24753WAT      O74500   0.934   9.640   0.068
24753WAT     H174501   0.973   9.717   0.118
24753WAT     H274502   0.987   9.622  -0.014
24754WAT      O74503   3.053   7.787   3.867
24754WAT     H174504   3.024   7.696   3.836
24754WAT     H274505   3.123   7.777   3.938
24755WAT      O74506   8.164   3.951   4.536
24755WAT     H174507   8.167   3.940   4.436
24755WAT     H274508   8.081   4.000   4.561
24756WAT      O74509   6.140   7.845   8.671
24756WAT     H174510   6.236   7.858   8.694
24756WAT     H274511   6.100   7.775   8.730
24757WAT      O74512   8.847   9.104   1.500
24757WAT     H174513   8.750   9.080   1.509
24757WAT     H274514   8.857   9.174   1.430
24758WAT      O74515   3.352   7.068   1.731
24758WAT     H174516   3.437   7.121   1.729
24758WAT     H274517   3.334   7.038   1.825
24759WAT      O74518   7.283   7.512   5.319
24759WAT     H174519   7.333   7.481   5.238
24759WAT     H274520   7.348   7.553   5.383
24760WAT      O74521   0.891   2.157   3.702
24760WAT     H174522   0.848   2.119   3.620
24760WAT     H274523   0.820   2.183   3.767
24761WAT      O74524   1.067   6.894   8.533
24761WAT     H174525   1.160   6.919   8.507
24761WAT     H274526   1.011   6.882   8.451
24762WAT      O74527   1.298   4.835   4.095
24762WAT     H174528   1.233   4.884   4.153
24762WAT     H274529   1.341   4.899   4.032
24763WAT      O74530   1.543   7.622   9.577
24763WAT     H174531   1.552   7.715   9.543
24763WAT     H274532   1.615   7.565   9.538
24764WAT      O74533   2.832   0.553   7.265
24764WAT     H174534   2.837   0.632   7.326
24764WAT     H274535   2.842   0.469   7.318
24765WAT      O74536   4.089   6.716   0.593
24765WAT     H174537   3.990   6.728   0.581
24765WAT     H274538   4.131   6.691   0.506
24766WAT      O74539   8.407   8.600   3.280
24766WAT     H174540   8.481   8.661   3.250
24766WAT     H274541   8.402   8.601   3.380
24767WAT      O74542   8.743   4.991   4.983
24767WAT     H174543   8.772   4.896   4.980
24767WAT     H274544   8.765   5.036   4.896
24768WAT      O74545   7.281   1.378   8.488
24768WAT     H174546   7.328   1.317   8.552
24768WAT     H274547   7.288   1.472   8.521
24769WAT      O74548   6.436   3.917   1.478
24769WAT     H174549   6.362   3.932   1.412
24769WAT     H274550   6.524   3.924   1.431
24770WAT      O74551   2.209   6.160   2.416
24770WAT     H174552   2.259   6.217   2.481
24770WAT     H274553   2.234   6.064   2.428
24771WAT      O74554   4.351   3.860   9.351
24771WAT     H174555   4.414   3.935   9.370
24771WAT     H274556   4.403   3.779   9.324
24772WAT      O74557   6.800   3.251   6.947
24772WAT     H174558   6.795   3.313   6.868
24772WAT     H274559   6.710   3.212   6.965
24773WAT      O74560   7.904   2.323   0.237
24773WAT     H174561   7.817   2.294   0.195
24773WAT     H274562   7.913   2.282   0.327
24774WAT      O74563   4.919   2.705   4.653
24774WAT     H174564   4.925   2.793   4.699
24774WAT     H274565   4.944   2.632   4.716
24775WAT      O74566   7.669   1.389   4.609
24775WAT     H174567   7.573   1.363   4.612
24775WAT     H274568   7.702   1.382   4.515
24776WAT      O74569   2.004   9.406   1.054
24776WAT     H174570   1.937   9.343   1.016
24776WAT     H274571   2.080   9.354   1.094
24777WAT      O74572   3.692   8.070   9.195
24777WAT     H174573   3.712   7.998   9.262
24777WAT     H274574   3.762   8.141   9.201
24778WAT      O74575   3.845   7.977   4.533
24778WAT     H174576   3.874   7.951   4.440
24778WAT     H274577   3.855   8.076   4.544
24779WAT      O74578   5.560   1.438   1.898
24779WAT     H174579   5.569   1.340   1.913
24779WAT     H274580   5.620   1.467   1.823
24780WAT      O74581   0.662   3.483   3.526
24780WAT     H174582   0.573   3.526   3.509
24780WAT     H274583   0.653   3.383   3.520
24781WAT      O74584   8.501   4.748   7.736
24781WAT     H174585   8.600   4.751   7.726
24781WAT     H274586   8.460   4.830   7.696
24782WAT      O74587   5.609   5.247   0.217
24782WAT     H174588   5.529   5.276   0.164
24782WAT     H274589   5.579   5.198   0.298
24783WAT      O74590   6.012   1.158   5.068
24783WAT     H174591   5.996   1.089   5.139
24783WAT     H274592   6.107   1.188   5.072
24784WAT      O74593   5.738   1.903   2.577
24784WAT     H174594   5.672   1.869   2.644
24784WAT     H274595   5.819   1.938   2.625
24785WAT      O74596   7.403   0.042   0.075
24785WAT     H174597   7.385   0.002   0.164
24785WAT     H274598   7.325   0.028   0.014
24786WAT      O74599   9.038   5.718   0.667
24786WAT     H174600   9.078   5.769   0.742
24786WAT     H274601   8.971   5.776   0.619
24787WAT      O74602   8.740   7.141   8.704
24787WAT     H174603   8.815   7.147   8.638
24787WAT     H274604   8.733   7.228   8.753
24788WAT      O74605   2.065   1.787   3.581
24788WAT     H174606   2.091   1.810   3.487
24788WAT     H274607   1.997   1.853   3.613
24789WAT      O74608   4.454   8.350   5.207
24789WAT     H174609   4.380   8.351   5.140
24789WAT     H274610   4.496   8.259   5.208
24790WAT      O74611   0.151   9.138   9.239
24790WAT     H174612   0.169   9.100   9.149
24790WAT     H274613   0.058   9.174   9.243
24791WAT      O74614   4.460   8.685   9.393
24791WAT     H174615   4.555   8.656   9.398
24791WAT     H274616   4.422   8.661   9.304
24792WAT      O74617   5.971   2.407   9.558
24792WAT     H174618   5.945   2.476   9.490
24792WAT     H274619   6.000   2.323   9.511
24793WAT      O74620   4.450   2.979   3.497
24793WAT     H174621   4.520   2.910   3.480
24793WAT     H274622   4.492   3.061   3.536
24794WAT      O74623   7.511   7.946   9.198
24794WAT     H174624   7.503   7.985   9.290
24794WAT     H274625   7.605   7.959   9.165
24795WAT      O74626   2.150   3.512   2.272
24795WAT     H174627   2.240   3.512   2.230
24795WAT     H274628   2.129   3.421   2.306
24796WAT      O74629   4.049   1.940   1.215
24796WAT     H174630   4.122   2.006   1.235
24796WAT     H274631   4.077   1.883   1.138
24797WAT      O74632   9.716   9.386   0.266
24797WAT     H174633   9.815   9.395   0.259
24797WAT     H274634   9.672   9.456   0.211
24798WAT      O74635   5.946   4.770   9.080
24798WAT     H174636   6.032   4.719   9.078
24798WAT     H274637   5.888   4.736   9.155
24799WAT      O74638   6.104   6.068   7.792
24799WAT     H174639   6.111   6.081   7.891
24799WAT     H274640   6.009   6.082   7.763
24800WAT      O74641   5.014   5.346   1.567
24800WAT     H174642   5.053   5.258   1.539
24800WAT     H274643   4.958   5.334   1.648
24801WAT      O74644   4.009   0.470   0.969
24801WAT     H174645   4.071   0.491   1.044
24801WAT     H274646   3.925   0.431   1.006
24802WAT      O74647   1.880   9.022   6.125
24802WAT     H174648   1.802   8.963   6.103
24802WAT     H274649   1.920   9.057   6.040
24803WAT      O74650   5.098   0.371   7.390
24803WAT     H174651   5.089   0.387   7.488
24803WAT     H274652   5.039   0.435   7.340
24804WAT      O74653   4.062   9.561   7.264
24804WAT     H174654   4.142   9.617   7.286
24804WAT     H274655   4.092   9.473   7.227
24805WAT      O74656   1.558   6.171   2.538
24805WAT     H174657   1.642   6.225   2.538
24805WAT     H274658   1.580   6.076   2.560
24806WAT      O74659   2.466   2.929   2.524
24806WAT     H174660   2.509   3.018   2.538
24806WAT     H274661   2.367   2.941   2.519
24807WAT      O74662   8.668   0.843   9.710
24807WAT     H174663   8.718   0.853   9.624
24807WAT     H274664   8.733   0.840   9.786
24808WAT      O74665   8.471   4.926   0.856
24808WAT     H174666   8.461   5.022   0.829
24808WAT     H274667   8.514   4.922   0.946
24809WAT      O74668   2.348   8.726   0.822
24809WAT     H174669   2.322   8.802   0.764
24809WAT     H274670   2.444   8.703   0.806
24810WAT      O74671   8.275   3.500   7.504
24810WAT     H174672   8.189   3.466   7.543
24810WAT     H274673   8.351   3.446   7.538
24811WAT      O74674   4.153   8.162   5.769
24811WAT     H174675   4.110   8.076   5.798
24811WAT     H274676   4.180   8.156   5.673
24812WAT      O74677   9.411   7.938   8.321
24812WAT     H174678   9.320   7.978   8.313
24812WAT     H274679   9.458   7.944   8.233
24813WAT      O74680   8.551   0.457   5.885
24813WAT     H174681   8.527   0.397   5.808
24813WAT     H274682   8.469   0.473   5.941
24814WAT      O74683   1.385   5.466   3.308
24814WAT     H174684   1.402   5.551   3.357
24814WAT     H274685   1.346   5.486   3.218
24815WAT      O74686   8.112   4.957   6.085
24815WAT     H174687   8.097   5.009   6.169
24815WAT     H274688   8.170   5.009   6.023
24816WAT      O74689   3.700   9.296   1.003
24816WAT     H174690   3.638   9.221   1.027
24816WAT     H274691   3.754   9.272   0.923
24817WAT      O74692   5.582   3.547   8.165
24817WAT     H174693   5.630   3.624   8.123
24817WAT     H274694   5.487   3.572   8.184
24818WAT      O74695   6.821   3.564   1.607
24818WAT     H174696   6.824   3.606   1.516
24818WAT     H274697   6.727   3.542   1.631
24819WAT      O74698   2.113   4.356   4.660
24819WAT     H174699   2.020   4.372   4.625
24819WAT     H274700   2.173   4.330   4.584
24820WAT      O74701   1.878   1.764   2.468
24820WAT     H174702   1.888   1.668   2.445
24820WAT     H274703   1.839   1.814   2.391
24821WAT      O74704   5.946   7.281   8.248
24821WAT     H174705   5.859   7.317   8.214
24821WAT     H274706   6.018   7.296   8.180
24822WAT      O74707   6.362   8.546   2.271
24822WAT     H174708   6.269   8.511   2.258
24822WAT     H274709   6.415   8.529   2.188
24823WAT      O74710   3.395   3.527   8.751
24823WAT     H174711   3.329   3.567   8.814
24823WAT     H274712   3.426   3.439   8.786
24824WAT      O74713   6.091   5.219   1.235
24824WAT     H174714   6.001   5.187   1.205
24824WAT     H274715   6.091   5.319   1.236
24825WAT      O74716   5.943   9.090   7.095
24825WAT     H174717   5.986   9.004   7.065
24825WAT     H274718   5.860   9.069   7.146
24826WAT      O74719   8.351   6.679   7.467
24826WAT     H174720   8.444   6.715   7.474
24826WAT     H274721   8.347   6.610   7.395
24827WAT      O74722   1.761   1.122   2.031
24827WAT     H174723   1.767   1.022   2.031
24827WAT     H274724   1.740   1.154   1.939
24828WAT      O74725   2.919   9.444   9.823
24828WAT     H174726   2.987   9.387   9.869
24828WAT     H274727   2.828   9.425   9.861
24829WAT      O74728   5.248   5.812   5.905
24829WAT     H174729   5.226   5.903   5.869
24829WAT     H274730   5.305   5.823   5.987
24830WAT      O74731   5.558   2.153   5.174
24830WAT     H174732   5.514   2.106   5.098
24830WAT     H274733   5.504   2.233   5.200
24831WAT      O74734   9.309   8.975   8.239
24831WAT     H174735   9.279   8.999   8.147
24831WAT     H274736   9.306   9.057   8.297
24832WAT      O74737   9.227   3.188   9.785
24832WAT     H174738   9.291   3.232   9.849
24832WAT     H274739   9.278   3.141   9.714
24833WAT      O74740   1.359   1.395   4.158
24833WAT     H174741   1.343   1.359   4.250
24833WAT     H274742   1.415   1.331   4.106
24834WAT      O74743   6.059   2.847   2.378
24834WAT     H174744   5.961   2.848   2.400
24834WAT     H274745   6.083   2.760   2.334
24835WAT      O74746   5.474   8.660   9.043
24835WAT     H174747   5.425   8.725   8.985
24835WAT     H274748   5.568   8.652   9.011
24836WAT      O74749   3.480   9.411   0.857
24836WAT     H174750   3.393   9.372   0.888
24836WAT     H274751   3.552   9.390   0.924
24837WAT      O74752   5.102   4.083   3.346
24837WAT     H174753   5.090   4.015   3.274
24837WAT     H274754   5.064   4.049   3.431
24838WAT      O74755   1.970   3.746   4.999
24838WAT     H174756   2.015   3.833   4.979
24838WAT     H274757   1.985   3.682   4.924
24839WAT      O74758   9.167   3.074   4.906
24839WAT     H174759   9.205   3.029   4.825
24839WAT     H274760   9.070   3.050   4.915
24840WAT      O74761   3.335   2.894   4.848
24840WAT     H174762   3.363   2.972   4.793
24840WAT     H274763   3.371   2.810   4.808
24841WAT      O74764   8.371   4.409   6.527
24841WAT     H174765   8.299   4.402   6.595
24841WAT     H274766   8.457   4.436   6.571
24842WAT      O74767   6.491   0.484   0.327
24842WAT     H174768   6.446   0.396   0.310
24842WAT     H274769   6.422   0.556   0.332
24843WAT      O74770   2.271   0.093   6.427
24843WAT     H174771   2.252   0.044   6.512
24843WAT     H274772   2.370   0.105   6.416
24844WAT      O74773   7.039   3.174   9.556
24844WAT     H174774   7.102   3.248   9.581
24844WAT     H274775   7.069   3.132   9.471
24845WAT      O74776   7.611   7.823   1.726
24845WAT     H174777   7.557   7.776   1.795
24845WAT     H274778   7.577   7.799   1.635
24846WAT      O74779   2.839   6.783   9.789
24846WAT     H174780   2.743   6.759   9.804
24846WAT     H274781   2.876   6.727   9.715
24847WAT      O74782   6.547   0.854   4.908
24847WAT     H174783   6.602   0.863   4.825
24847WAT     H274784   6.602   0.812   4.980
24848WAT      O74785   5.877   2.398   1.915
24848WAT     H174786   5.898   2.413   1.818
24848WAT     H274787   5.910   2.477   1.968
24849WAT      O74788   9.809   5.189   8.995
24849WAT     H174789   9.824   5.207   9.092
24849WAT     H274790   9.716   5.153   8.982
24850WAT      O74791   8.745   5.459   0.030
24850WAT     H174792   8.696   5.528  -0.024
24850WAT     H274793   8.765   5.496   0.121
24851WAT      O74794   3.318   7.858   8.438
24851WAT     H174795   3.291   7.802   8.516
24851WAT     H274796   3.347   7.949   8.470
24852WAT      O74797   9.090   8.638   1.069
24852WAT     H174798   9.152   8.654   1.146
24852WAT     H274799   9.130   8.570   1.008
24853WAT      O74800   1.757   9.272   0.994
24853WAT     H174801   1.691   9.317   0.934
24853WAT     H274802   1.713   9.249   1.081
24854WAT      O74803   0.556   3.611   2.669
24854WAT     H174804   0.577   3.517   2.696
24854WAT     H274805   0.457   3.625   2.670
24855WAT      O74806   8.494   5.116   3.479
24855WAT     H174807   8.455   5.191   3.532
24855WAT     H274808   8.548   5.152   3.404
24856WAT      O74809   6.762   2.648   7.361
24856WAT     H174810   6.803   2.739   7.358
24856WAT     H274811   6.701   2.642   7.440
24857WAT      O74812   2.217   7.001   4.489
24857WAT     H174813   2.280   6.924   4.478
24857WAT     H274814   2.255   7.082   4.445
24858WAT      O74815   1.423   9.635   3.679
24858WAT     H174816   1.429   9.656   3.777
24858WAT     H274817   1.425   9.720   3.627
24859WAT      O74818   0.145   8.016   1.438
24859WAT     H174819   0.145   7.981   1.344
24859WAT     H274820   0.220   7.973   1.489
24860WAT      O74821   3.354   8.170   3.137
24860WAT     H174822   3.343   8.194   3.234
24860WAT     H274823   3.413   8.090   3.129
24861WAT      O74824   6.319   8.599   1.460
24861WAT     H174825   6.234   8.549   1.475
24861WAT     H274826   6.356   8.575   1.371
24862WAT      O74827   6.029   2.903   4.981
24862WAT     H174828   5.993   2.981   5.032
24862WAT     H274829   5.999   2.818   5.025
24863WAT      O74830   1.917   2.377   7.571
24863WAT     H174831   1.854   2.378   7.493
24863WAT     H274832   1.868   2.351   7.654
24864WAT      O74833   0.561   6.830   8.276
24864WAT     H174834   0.590   6.881   8.357
24864WAT     H274835   0.484   6.877   8.233
24865WAT      O74836   9.525   3.233   2.259
24865WAT     H174837   9.447   3.260   2.202
24865WAT     H274838   9.491   3.187   2.341
24866WAT      O74839   0.566   7.480   5.329
24866WAT     H174840   0.592   7.395   5.374
24866WAT     H274841   0.633   7.551   5.351
24867WAT      O74842   4.592   5.365   2.949
24867WAT     H174843   4.639   5.319   3.024
24867WAT     H274844   4.543   5.445   2.983
24868WAT      O74845   4.122   3.451   9.061
24868WAT     H174846   4.091   3.521   8.996
24868WAT     H274847   4.083   3.469   9.151
24869WAT      O74848   1.940   9.089   2.432
24869WAT     H174849   1.996   9.129   2.359
24869WAT     H274850   1.982   9.004   2.463
24870WAT      O74851   8.690   7.626   0.991
24870WAT     H174852   8.676   7.596   0.897
24870WAT     H274853   8.781   7.666   1.001
24871WAT      O74854   0.790   0.503   1.671
24871WAT     H174855   0.857   0.569   1.638
24871WAT     H274856   0.792   0.421   1.614
24872WAT      O74857   3.404   9.368   5.669
24872WAT     H174858   3.416   9.275   5.634
24872WAT     H274859   3.490   9.399   5.710
24873WAT      O74860   1.645   1.349   2.203
24873WAT     H174861   1.687   1.280   2.145
24873WAT     H274862   1.665   1.330   2.298
24874WAT      O74863   9.734   7.259   7.056
24874WAT     H174864   9.723   7.230   6.961
24874WAT     H274865   9.804   7.204   7.101
24875WAT      O74866   8.181   5.085   3.657
24875WAT     H174867   8.159   5.068   3.561
24875WAT     H274868   8.245   5.015   3.689
24876WAT      O74869   9.227   5.779   9.075
24876WAT     H174870   9.176   5.732   9.148
24876WAT     H274871   9.255   5.869   9.107
24877WAT      O74872   4.567   2.366   5.661
24877WAT     H174873   4.596   2.400   5.750
24877WAT     H274874   4.472   2.394   5.644
24878WAT      O74875   2.380   2.513   2.860
24878WAT     H174876   2.412   2.551   2.773
24878WAT     H274877   2.410   2.572   2.935
24879WAT      O74878   8.398   6.057   2.244
24879WAT     H174879   8.411   6.153   2.221
24879WAT     H274880   8.301   6.035   2.247
24880WAT      O74881   9.555   0.990   5.947
24880WAT     H174882   9.623   0.951   6.009
24880WAT     H274883   9.520   1.076   5.986
24881WAT      O74884   7.652   4.350   8.626
24881WAT     H174885   7.633   4.447   8.612
24881WAT     H274886   7.652   4.303   8.538
24882WAT      O74887   7.914   1.145   4.320
24882WAT     H174888   7.850   1.222   4.328
24882WAT     H274889   7.874   1.075   4.260
24883WAT      O74890   8.916   0.718   1.740
24883WAT     H174891   8.852   0.643   1.754
24883WAT     H274892   8.948   0.717   1.645
24884WAT      O74893   7.995   2.190   1.109
24884WAT     H174894   7.914   2.232   1.151
24884WAT     H274895   8.017   2.239   1.024
24885WAT      O74896   0.211   1.373   5.577
24885WAT     H174897   0.112   1.373   5.596
24885WAT     H274898   0.259   1.332   5.655
24886WAT      O74899   3.529   6.123   2.776
24886WAT     H174900   3.448   6.070   2.750
24886WAT     H274901   3.606   6.060   2.791
24887WAT      O74902   9.770   4.671   9.209
24887WAT     H174903   9.721   4.589   9.238
24887WAT     H274904   9.848   4.644   9.153
24888WAT      O74905   1.134   9.301   3.711
24888WAT     H174906   1.233   9.289   3.721
24888WAT     H274907   1.087   9.234   3.769
24889WAT      O74908   7.287   7.957   2.711
24889WAT     H174909   7.335   7.937   2.625
24889WAT     H274910   7.258   8.053   2.711
24890WAT      O74911   6.563   0.125   7.673
24890WAT     H174912   6.628   0.116   7.597
24890WAT     H274913   6.498   0.049   7.670
24891WAT      O74914   7.413   5.198   7.608
24891WAT     H174915   7.512   5.193   7.591
24891WAT     H274916   7.391   5.152   7.693
24892WAT      O74917   8.446   7.200   7.661
24892WAT     H174918   8.541   7.214   7.635
24892WAT     H274919   8.387   7.212   7.581
24893WAT      O74920   6.146   6.624   4.528
24893WAT     H174921   6.069   6.576   4.486
24893WAT     H274922   6.230   6.602   4.478
24894WAT      O74923   6.467   6.019   2.704
24894WAT     H174924   6.417   6.102   2.732
24894WAT     H274925   6.552   6.046   2.659
24895WAT      O74926   5.943   5.787   6.098
24895WAT     H174927   5.948   5.755   6.003
24895WAT     H274928   6.023   5.843   6.118
24896WAT      O74929   7.312   6.346   0.800
24896WAT     H174930   7.280   6.440   0.797
24896WAT     H274931   7.277   6.296   0.721
24897WAT      O74932   9.775   1.372   3.434
24897WAT     H174933   9.859   1.381   3.381
24897WAT     H274934   9.776   1.285   3.483
24898WAT      O74935   6.337   5.109   3.482
24898WAT     H174936   6.241   5.083   3.493
24898WAT     H274937   6.354   5.195   3.530
24899WAT      O74938   4.681   0.008   3.869
24899WAT     H174939   4.666   0.044   3.961
24899WAT     H274940   4.604   0.032   3.810
24900WAT      O74941   9.590   5.079   1.680
24900WAT     H174942   9.682   5.041   1.683
24900WAT     H274943   9.582   5.154   1.745
24901WAT      O74944   7.928   4.462   0.486
24901WAT     H174945   8.001   4.526   0.509
24901WAT     H274946   7.941   4.377   0.537
24902WAT      O74947   5.461   8.578   3.075
24902WAT     H174948   5.454   8.664   3.023
24902WAT     H274949   5.481   8.599   3.171
24903WAT      O74950   8.303   0.073   5.469
24903WAT     H174951   8.402   0.086   5.467
24903WAT     H274952   8.265   0.112   5.553
24904WAT      O74953   3.071   3.713   7.703
24904WAT     H174954   3.149   3.671   7.655
24904WAT     H274955   2.987   3.697   7.650
24905WAT      O74956   9.197   8.578   6.910
24905WAT     H174957   9.201   8.649   6.980
24905WAT     H274958   9.244   8.611   6.828
24906WAT      O74959   9.368   6.335   2.806
24906WAT     H174960   9.289   6.395   2.817
24906WAT     H274961   9.337   6.241   2.791
24907WAT      O74962   4.903   8.328   6.255
24907WAT     H174963   4.844   8.269   6.200
24907WAT     H274964   4.872   8.328   6.350
24908WAT      O74965   0.396   0.643   4.690
24908WAT     H174966   0.322   0.615   4.630
24908WAT     H274967   0.444   0.721   4.650
24909WAT      O74968   7.559   9.780   4.658
24909WAT     H174969   7.490   9.851   4.674
24909WAT     H274970   7.633   9.790   4.724
24910WAT      O74971   3.433   5.988   0.007
24910WAT     H174972   3.476   5.994   0.097
24910WAT     H274973   3.386   5.900  -0.001
24911WAT      O74974   6.795   3.022   1.885
24911WAT     H174975   6.735   2.966   1.942
24911WAT     H274976   6.769   3.010   1.789
24912WAT      O74977   5.217   4.779   5.315
24912WAT     H174978   5.306   4.824   5.318
24912WAT     H274979   5.147   4.841   5.349
24913WAT      O74980   7.084   6.200   5.266
24913WAT     H174981   7.041   6.288   5.290
24913WAT     H274982   7.125   6.161   5.348
24914WAT      O74983   9.097   4.295   4.310
24914WAT     H174984   9.194   4.316   4.296
24914WAT     H274985   9.047   4.379   4.330
24915WAT      O74986   3.552   4.862   9.322
24915WAT     H174987   3.558   4.922   9.401
24915WAT     H274988   3.528   4.770   9.352
24916WAT      O74989   4.418   5.041   6.693
24916WAT     H174990   4.375   5.099   6.763
24916WAT     H274991   4.435   4.951   6.732
24917WAT      O74992   1.534   9.433   9.359
24917WAT     H174993   1.452   9.402   9.406
24917WAT     H274994   1.606   9.452   9.426
24918WAT      O74995   9.219   2.566   7.173
24918WAT     H174996   9.165   2.650   7.182
24918WAT     H274997   9.168   2.500   7.119
24919WAT      O74998   7.392   0.910   4.528
24919WAT     H174999   7.327   0.944   4.461
24919WAT     H275000   7.381   0.812   4.539
24920WAT      O75001   7.173   7.041   4.090
24920WAT     H175002   7.150   7.053   3.994
24920WAT     H275003   7.263   7.080   4.108
24921WAT      O75004   4.870   8.983   3.691
24921WAT     H175005   4.874   8.888   3.661
24921WAT     H275006   4.954   9.030   3.662
24922WAT      O75007   0.945   9.751   6.708
24922WAT     H175008   0.949   9.703   6.796
24922WAT     H275009   0.856   9.733   6.666
24923WAT      O75010   0.340   8.294   4.156
24923WAT     H175011   0.364   8.371   4.098
24923WAT     H275012   0.323   8.213   4.100
24924WAT      O75013   0.519   9.470   7.761
24924WAT     H175014   0.568   9.557   7.766
24924WAT     H275015   0.428   9.480   7.802
24925WAT      O75016   0.022   7.934   7.527
24925WAT     H175017   0.062   8.018   7.562
24925WAT     H275018   0.084   7.857   7.545
24926WAT      O75019   8.314   2.074   2.304
24926WAT     H175020   8.290   2.167   2.330
24926WAT     H275021   8.258   2.009   2.357
24927WAT      O75022   7.760   5.801   6.510
24927WAT     H175023   7.821   5.782   6.434
24927WAT     H275024   7.810   5.846   6.584
24928WAT      O75025   7.581   9.422   5.447
24928WAT     H175026   7.583   9.427   5.347
24928WAT     H275027   7.574   9.326   5.475
24929WAT      O75028   2.237   2.805   1.140
24929WAT     H175029   2.292   2.767   1.065
24929WAT     H275030   2.142   2.814   1.110
24930WAT      O75031   5.423   8.583   8.199
24930WAT     H175032   5.465   8.496   8.223
24930WAT     H275033   5.465   8.618   8.116
24931WAT      O75034   1.828   2.564   8.256
24931WAT     H175035   1.732   2.589   8.241
24931WAT     H275036   1.884   2.647   8.258
24932WAT      O75037   7.076   2.920   0.108
24932WAT     H175038   6.990   2.895   0.063
24932WAT     H275039   7.148   2.927   0.039
24933WAT      O75040   5.644   0.755   8.054
24933WAT     H175041   5.631   0.847   8.018
24933WAT     H275042   5.584   0.691   8.006
24934WAT      O75043   0.511   6.074   9.831
24934WAT     H175044   0.583   6.005   9.821
24934WAT     H275045   0.423   6.034   9.805
24935WAT      O75046   6.724   5.523   0.251
24935WAT     H175047   6.795   5.592   0.239
24935WAT     H275048   6.659   5.553   0.321
24936WAT      O75049   0.489   6.660   1.532
24936WAT     H175050   0.479   6.565   1.561
24936WAT     H275051   0.504   6.664   1.433
24937WAT      O75052   5.245   0.785   9.255
24937WAT     H175053   5.224   0.745   9.345
24937WAT     H275054   5.160   0.794   9.203
24938WAT      O75055   4.946   5.950   5.335
24938WAT     H175056   5.029   5.906   5.302
24938WAT     H275057   4.868   5.917   5.282
24939WAT      O75058   4.577   3.518   6.064
24939WAT     H175059   4.533   3.545   6.150
24939WAT     H275060   4.669   3.484   6.083
24940WAT      O75061   2.939   3.081   7.262
24940WAT     H175062   2.990   3.110   7.343
24940WAT     H275063   2.872   3.152   7.238
24941WAT      O75064   6.982   4.570   2.108
24941WAT     H175065   6.996   4.518   2.023
24941WAT     H275066   6.921   4.519   2.169
24942WAT      O75067   2.748   3.391   5.193
24942WAT     H175068   2.732   3.487   5.215
24942WAT     H275069   2.737   3.335   5.275
24943WAT      O75070   0.480   1.392   7.307
24943WAT     H175071   0.476   1.294   7.322
24943WAT     H275072   0.413   1.418   7.238
24944WAT      O75073   6.629   5.748   1.556
24944WAT     H175074   6.621   5.660   1.602
24944WAT     H275075   6.724   5.763   1.528
24945WAT      O75076   9.652   2.715   4.397
24945WAT     H175077   9.599   2.632   4.380
24945WAT     H275078   9.673   2.722   4.495
24946WAT      O75079   9.848   0.477   9.169
24946WAT     H175080   9.922   0.427   9.215
24946WAT     H275081   9.850   0.573   9.198
24947WAT      O75082   1.525   4.063   0.429
24947WAT     H175083   1.455   4.092   0.363
24947WAT     H275084   1.550   4.140   0.487
24948WAT      O75085   9.244   9.476   8.372
24948WAT     H175086   9.180   9.489   8.447
24948WAT     H275087   9.335   9.508   8.401
24949WAT      O75088   4.261   2.663   9.457
24949WAT     H175089   4.267   2.584   9.518
24949WAT     H275090   4.217   2.738   9.505
24950WAT      O75091   4.570   7.734   0.770
24950WAT     H175092   4.522   7.721   0.857
24950WAT     H275093   4.545   7.661   0.707
24951WAT      O75094   8.766   8.551   6.853
24951WAT     H175095   8.845   8.509   6.900
24951WAT     H275096   8.723   8.483   6.794
24952WAT      O75097   5.030   1.708   3.125
24952WAT     H175098   5.123   1.724   3.090
24952WAT     H275099   4.980   1.650   3.060
24953WAT      O75100   6.730   2.456   8.747
24953WAT     H175101   6.805   2.415   8.800
24953WAT     H275102   6.725   2.554   8.767
24954WAT      O75103   4.268   4.991   1.777
24954WAT     H175104   4.297   5.033   1.691
24954WAT     H275105   4.266   4.892   1.766
24955WAT      O75106   5.746   7.382   5.714
24955WAT     H175107   5.838   7.346   5.695
24955WAT     H275108   5.699   7.399   5.627
24956WAT      O75109   2.454   8.895   4.380
24956WAT     H175110   2.459   8.810   4.431
24956WAT     H275111   2.449   8.875   4.282
24957WAT      O75112   8.022   4.624   8.580
24957WAT     H175113   8.014   4.568   8.497
24957WAT     H275114   8.085   4.580   8.644
24958WAT      O75115   4.977   8.416   9.351
24958WAT     H175116   4.926   8.330   9.360
24958WAT     H275117   4.934   8.486   9.408
24959WAT      O75118   6.695   5.192   5.383
24959WAT     H175119   6.748   5.123   5.434
24959WAT     H275120   6.757   5.246   5.327
24960WAT      O75121   2.442   2.620   3.927
24960WAT     H175122   2.397   2.596   4.013
24960WAT     H275123   2.496   2.703   3.939
24961WAT      O75124   8.977   5.702   8.957
24961WAT     H175125   8.940   5.622   9.003
24961WAT     H275126   9.067   5.725   8.996
24962WAT      O75127   4.416   8.604   9.131
24962WAT     H175128   4.329   8.567   9.165
24962WAT     H275129   4.458   8.538   9.068
24963WAT      O75130   3.430   0.515   6.309
24963WAT     H175131   3.511   0.502   6.252
24963WAT     H275132   3.388   0.603   6.288
24964WAT      O75133   2.293   7.839   5.199
24964WAT     H175134   2.214   7.801   5.150
24964WAT     H275135   2.260   7.894   5.276
24965WAT      O75136   6.307   5.942   2.394
24965WAT     H175137   6.254   6.026   2.406
24965WAT     H275138   6.269   5.889   2.319
24966WAT      O75139   2.298   7.112   7.399
24966WAT     H175140   2.224   7.144   7.340
24966WAT     H275141   2.269   7.115   7.494
24967WAT      O75142   3.343   3.367   8.242
24967WAT     H175143   3.308   3.452   8.204
24967WAT     H275144   3.359   3.378   8.340
24968WAT      O75145   0.520   3.207   8.722
24968WAT     H175146   0.436   3.183   8.770
24968WAT     H275147   0.599   3.176   8.775
24969WAT      O75148   0.982   6.666   9.146
24969WAT     H175149   1.056   6.609   9.111
24969WAT     H275150   0.903   6.608   9.167
24970WAT      O75151   4.964   5.435   7.294
24970WAT     H175152   4.887   5.494   7.271
24970WAT     H275153   4.936   5.339   7.286
24971WAT      O75154   1.318   6.579   9.857
24971WAT     H175155   1.345   6.510   9.923
24971WAT     H275156   1.358   6.668   9.882
24972WAT      O75157   5.567   1.547   6.251
24972WAT     H175158   5.607   1.628   6.294
24972WAT     H275159   5.511   1.499   6.318
24973WAT      O75160   0.676   9.722   2.101
24973WAT     H175161   0.716   9.704   2.190
24973WAT     H275162   0.627   9.809   2.104
24974WAT      O75163   3.281   0.311   6.379
24974WAT     H175164   3.346   0.245   6.417
24974WAT     H275165   3.327   0.397   6.361
24975WAT      O75166   9.857   3.173   4.932
24975WAT     H175167   9.957   3.178   4.934
24975WAT     H275168   9.827   3.144   4.841
24976WAT      O75169   5.175   1.016   3.132
24976WAT     H175170   5.202   0.921   3.148
24976WAT     H275171   5.123   1.022   3.047
24977WAT      O75172   9.061   8.692   4.744
24977WAT     H175173   9.119   8.611   4.738
24977WAT     H275174   8.985   8.683   4.680
24978WAT      O75175   0.086   8.973   6.467
24978WAT     H175176   0.017   8.987   6.538
24978WAT     H275177   0.094   8.876   6.447
24979WAT      O75178   7.595   8.537   8.562
24979WAT     H175179   7.570   8.600   8.488
24979WAT     H275180   7.643   8.588   8.634
24980WAT      O75181   4.100   1.930   6.060
24980WAT     H175182   4.171   1.967   6.120
24980WAT     H275183   4.024   1.994   6.056
24981WAT      O75184   9.648   3.360   7.370
24981WAT     H175185   9.692   3.316   7.447
24981WAT     H275186   9.717   3.387   7.303
24982WAT      O75187   0.841   2.298   0.275
24982WAT     H175188   0.888   2.384   0.292
24982WAT     H275189   0.756   2.315   0.226
24983WAT      O75190   0.248   6.857   7.301
24983WAT     H175191   0.167   6.806   7.331
24983WAT     H275192   0.247   6.865   7.202
24984WAT      O75193   7.892   7.879   3.867
24984WAT     H175194   7.931   7.954   3.921
24984WAT     H275195   7.824   7.915   3.804
24985WAT      O75196   3.485   3.328   5.176
24985WAT     H175197   3.474   3.232   5.201
24985WAT     H275198   3.576   3.359   5.202
24986WAT      O75199   4.104   2.713   0.699
24986WAT     H175200   4.157   2.777   0.642
24986WAT     H275201   4.024   2.760   0.736
24987WAT      O75202   9.687   8.687   2.010
24987WAT     H175203   9.693   8.750   2.087
24987WAT     H275204   9.646   8.733   1.931
24988WAT      O75205   1.359   4.519   6.858
24988WAT     H175206   1.340   4.600   6.913
24988WAT     H275207   1.413   4.454   6.912
24989WAT      O75208   3.231   9.050   1.236
24989WAT     H175209   3.254   9.097   1.321
24989WAT     H275210   3.274   8.960   1.236
24990WAT      O75211   4.873   1.340   0.644
24990WAT     H175212   4.869   1.395   0.727
24990WAT     H275213   4.785   1.296   0.629
24991WAT      O75214   2.305   5.306   7.738
24991WAT     H175215   2.229   5.250   7.771
24991WAT     H275216   2.308   5.303   7.639
24992WAT      O75217   2.222   7.920   1.959
24992WAT     H175218   2.289   7.848   1.946
24992WAT     H275219   2.226   7.983   1.882
24993WAT      O75220   5.046   2.991   6.210
24993WAT     H175221   5.076   2.994   6.306
24993WAT     H275222   5.119   3.028   6.152
24994WAT      O75223   8.996   0.104   6.022
24994WAT     H175224   9.042   0.178   5.971
24994WAT     H275225   9.065   0.043   6.060
24995WAT      O75226   9.850   2.423   6.422
24995WAT     H175227   9.803   2.498   6.376
24995WAT     H275228   9.875   2.451   6.514
24996WAT      O75229   2.905   8.381   8.005
24996WAT     H175230   2.951   8.310   7.952
24996WAT     H275231   2.820   8.345   8.043
24997WAT      O75232   4.349   2.693   6.401
24997WAT     H175233   4.337   2.676   6.303
24997WAT     H275234   4.416   2.766   6.415
24998WAT      O75235   6.889   2.446   6.415
24998WAT     H175236   6.985   2.430   6.438
24998WAT     H275237   6.855   2.373   6.357
24999WAT      O75238   5.352   8.729   0.562
24999WAT     H175239   5.332   8.721   0.464
24999WAT     H275240   5.308   8.811   0.599
25000WAT      O75241   1.609   9.318   6.606
25000WAT     H175242   1.640   9.244   6.547
25000WAT     H275243   1.517   9.346   6.580
25001WAT      O75244   3.298   5.323   8.098
25001WAT     H175245   3.230   5.396   8.093
25001WAT     H275246   3.257   5.236   8.070
25002WAT      O75247   2.338   1.049   9.528
25002WAT     H175248   2.319   1.110   9.451
25002WAT     H275249   2.276   0.970   9.524
25003WAT      O75250   1.796   2.048   0.584
25003WAT     H175251   1.842   2.029   0.670
25003WAT     H275252   1.698   2.030   0.593
25004WAT      O75253   4.828   3.842   1.574
25004WAT     H175254   4.923   3.822   1.597
25004WAT     H275255   4.767   3.796   1.639
25005WAT      O75256   9.450   0.684   7.863
25005WAT     H175257   9.491   0.644   7.945
25005WAT     H275258   9.355   0.655   7.856
25006WAT      O75259   4.216   6.577   1.910
25006WAT     H175260   4.314   6.577   1.893
25006WAT     H275261   4.167   6.557   1.825
25007WAT      O75262   1.734   1.610   7.715
25007WAT     H175263   1.797   1.537   7.689
25007WAT     H275264   1.769   1.657   7.796
25008WAT      O75265   0.283   0.865   5.209
25008WAT     H175266   0.241   0.806   5.140
25008WAT     H275267   0.291   0.816   5.295
25009WAT      O75268   6.746   7.469   9.209
25009WAT     H175269   6.717   7.410   9.134
25009WAT     H275270   6.678   7.540   9.225
25010WAT      O75271   0.377   9.121   4.089
25010WAT     H175272   0.336   9.032   4.068
25010WAT     H275273   0.383   9.175   4.005
25011WAT      O75274   2.611   8.311   3.371
25011WAT     H175275   2.611   8.254   3.454
25011WAT     H275276   2.632   8.255   3.292
25012WAT      O75277   7.437   1.804   9.325
25012WAT     H175278   7.401   1.838   9.238
25012WAT     H275279   7.364   1.802   9.393
25013WAT      O75280   2.340   6.477   5.743
25013WAT     H175281   2.279   6.537   5.796
25013WAT     H275282   2.343   6.387   5.786
25014WAT      O75283   6.490   5.734   8.289
25014WAT     H175284   6.402   5.687   8.295
25014WAT     H275285   6.494   5.806   8.358
25015WAT      O75286   2.703   4.418   3.049
25015WAT     H175287   2.685   4.324   3.022
25015WAT     H275288   2.654   4.438   3.134
25016WAT      O75289   5.004   3.934   2.897
25016WAT     H175290   4.987   4.029   2.871
25016WAT     H275291   5.044   3.885   2.820
25017WAT      O75292   6.966   6.564   9.652
25017WAT     H175293   7.058   6.540   9.621
25017WAT     H275294   6.941   6.506   9.730
25018WAT      O75295   8.827   4.947   7.595
25018WAT     H175296   8.821   5.025   7.532
25018WAT     H275297   8.922   4.938   7.628
25019WAT      O75298   2.008   2.569   9.484
25019WAT     H175299   2.076   2.599   9.416
25019WAT     H275300   1.949   2.499   9.443
25020WAT      O75301   0.021   2.516   0.849
25020WAT     H175302   0.105   2.556   0.885
25020WAT     H275303   0.005   2.427   0.892
25021WAT      O75304   7.229   6.812   2.402
25021WAT     H175305   7.186   6.739   2.349
25021WAT     H275306   7.323   6.826   2.370
25022WAT      O75307   5.265   7.716   4.346
25022WAT     H175308   5.317   7.743   4.265
25022WAT     H275309   5.325   7.720   4.426
25023WAT      O75310   3.525   3.743   1.797
25023WAT     H175311   3.596   3.685   1.835
25023WAT     H275312   3.475   3.693   1.727
25024WAT      O75313   9.776   6.382   7.330
25024WAT     H175314   9.861   6.425   7.301
25024WAT     H275315   9.780   6.284   7.311
25025WAT      O75316   5.084   7.728   6.422
25025WAT     H175317   5.080   7.726   6.522
25025WAT     H275318   5.123   7.815   6.392
25026WAT      O75319   2.894   7.199   2.188
25026WAT     H175320   2.895   7.202   2.288
25026WAT     H275321   2.806   7.161   2.157
25027WAT      O75322   1.703   3.103   9.363
25027WAT     H175323   1.801   3.114   9.345
25027WAT     H275324   1.664   3.191   9.390
25028WAT      O75325   3.467   0.734   5.941
25028WAT     H175326   3.502   0.784   6.020
25028WAT     H275327   3.384   0.780   5.907
25029WAT      O75328   6.143   4.548   6.181
25029WAT     H175329   6.206   4.480   6.218
25029WAT     H275330   6.190   4.636   6.173
25030WAT      O75331   2.607   7.838   4.475
25030WAT     H175332   2.594   7.874   4.568
25030WAT     H275333   2.546   7.886   4.412
25031WAT      O75334   1.736   6.809   3.920
25031WAT     H175335   1.712   6.745   3.846
25031WAT     H275336   1.677   6.792   3.999
25032WAT      O75337   1.032   9.568   3.667
25032WAT     H175338   0.970   9.554   3.590
25032WAT     H275339   1.074   9.480   3.693
25033WAT      O75340   8.068   7.806   5.947
25033WAT     H175341   8.128   7.770   6.018
25033WAT     H275342   7.995   7.740   5.928
25034WAT      O75343   2.285   6.287   1.169
25034WAT     H175344   2.360   6.267   1.106
25034WAT     H275345   2.286   6.223   1.245
25035WAT      O75346   5.083   1.573   7.161
25035WAT     H175347   5.104   1.635   7.085
25035WAT     H275348   5.152   1.584   7.233
25036WAT      O75349   8.621   3.216   5.715
25036WAT     H175350   8.538   3.254   5.756
25036WAT     H275351   8.627   3.119   5.735
25037WAT      O75352   5.147   1.109   2.644
25037WAT     H175353   5.231   1.059   2.622
25037WAT     H275354   5.170   1.193   2.693
25038WAT      O75355   3.285   7.445   5.413
25038WAT     H175356   3.347   7.520   5.390
25038WAT     H275357   3.320   7.360   5.373
25039WAT      O75358   2.386   3.033   7.817
25039WAT     H175359   2.287   3.046   7.824
25039WAT     H275360   2.432   3.121   7.830
25040WAT      O75361   1.961   4.618   1.612
25040WAT     H175362   1.938   4.545   1.547
25040WAT     H275363   1.921   4.704   1.581
25041WAT      O75364   3.603   9.263   1.573
25041WAT     H175365   3.638   9.314   1.494
25041WAT     H275366   3.546   9.187   1.541
25042WAT      O75367   6.750   5.846   1.183
25042WAT     H175368   6.788   5.827   1.092
25042WAT     H275369   6.768   5.769   1.244
25043WAT      O75370   5.264   6.976   2.076
25043WAT     H175371   5.211   7.022   2.005
25043WAT     H275372   5.353   6.949   2.039
25044WAT      O75373   1.170   2.683   6.061
25044WAT     H175374   1.242   2.644   6.118
25044WAT     H275375   1.103   2.729   6.119
25045WAT      O75376   2.622   4.837   9.599
25045WAT     H175377   2.525   4.861   9.601
25045WAT     H275378   2.646   4.789   9.683
25046WAT      O75379   3.438   3.626   4.149
25046WAT     H175380   3.512   3.693   4.143
25046WAT     H275381   3.468   3.548   4.204
25047WAT      O75382   9.840   5.162   3.095
25047WAT     H175383   9.778   5.154   3.017
25047WAT     H275384   9.826   5.084   3.156
25048WAT      O75385   7.014   2.159   0.376
25048WAT     H175386   7.055   2.074   0.343
25048WAT     H275387   6.916   2.145   0.393
25049WAT      O75388   5.874   2.922   0.606
25049WAT     H175389   5.803   2.992   0.599
25049WAT     H275390   5.834   2.832   0.588
25050WAT      O75391   0.217   2.349   9.058
25050WAT     H175392   0.178   2.440   9.075
25050WAT     H275393   0.267   2.351   8.971
25051WAT      O75394   6.448   7.773   0.529
25051WAT     H175395   6.402   7.704   0.472
25051WAT     H275396   6.542   7.743   0.547
25052WAT      O75397   1.840   6.528   0.968
25052WAT     H175398   1.768   6.490   1.025
25052WAT     H275399   1.829   6.627   0.962
25053WAT      O75400   6.595   2.617   1.874
25053WAT     H175401   6.574   2.519   1.872
25053WAT     H275402   6.679   2.634   1.823
25054WAT      O75403   9.750   1.305   2.292
25054WAT     H175404   9.688   1.227   2.284
25054WAT     H275405   9.767   1.323   2.389
25055WAT      O75406   2.321   5.736   9.511
25055WAT     H175407   2.264   5.730   9.593
25055WAT     H275408   2.313   5.828   9.472
25056WAT      O75409   9.416   8.966   5.455
25056WAT     H175410   9.335   8.909   5.442
25056WAT     H275411   9.493   8.928   5.403
25057WAT      O75412   7.270   7.038   4.859
25057WAT     H175413   7.311   7.070   4.773
25057WAT     H275414   7.224   7.115   4.904
25058WAT      O75415   7.094   6.685   2.209
25058WAT     H175416   7.028   6.693   2.133
25058WAT     H275417   7.074   6.603   2.262
25059WAT      O75418   2.108   6.404   2.722
25059WAT     H175419   2.069   6.318   2.687
25059WAT     H275420   2.036   6.460   2.762
25060WAT      O75421   1.362   6.951   8.840
25060WAT     H175422   1.301   6.875   8.818
25060WAT     H275423   1.456   6.924   8.820
25061WAT      O75424   6.867   7.800   0.056
25061WAT     H175425   6.772   7.822   0.036
25061WAT     H275426   6.890   7.710   0.019
25062WAT      O75427   7.041   4.539   5.594
25062WAT     H175428   7.097   4.532   5.512
25062WAT     H275429   6.962   4.478   5.586
25063WAT      O75430   0.326   3.311   6.384
25063WAT     H175431   0.316   3.410   6.393
25063WAT     H275432   0.236   3.268   6.377
25064WAT      O75433   8.462   2.455   3.247
25064WAT     H175434   8.442   2.416   3.157
25064WAT     H275435   8.557   2.435   3.272
25065WAT      O75436   3.946   5.536   7.311
25065WAT     H175437   3.929   5.439   7.327
25065WAT     H275438   3.859   5.584   7.299
25066WAT      O75439   3.313   6.748   3.553
25066WAT     H175440   3.279   6.691   3.478
25066WAT     H275441   3.360   6.828   3.516
25067WAT      O75442   7.522   7.953   7.986
25067WAT     H175443   7.435   8.000   7.996
25067WAT     H275444   7.586   8.012   7.936
25068WAT      O75445   0.942   3.985   2.249
25068WAT     H175446   0.975   3.892   2.265
25068WAT     H275447   0.961   4.012   2.154
25069WAT      O75448   5.838   1.928   1.914
25069WAT     H175449   5.800   1.842   1.879
25069WAT     H275450   5.824   2.000   1.846
25070WAT      O75451   9.292   0.597   3.048
25070WAT     H175452   9.253   0.623   2.960
25070WAT     H275453   9.299   0.497   3.053
25071WAT      O75454   3.592   4.769   7.991
25071WAT     H175455   3.531   4.744   8.066
25071WAT     H275456   3.544   4.758   7.904
25072WAT      O75457   2.174   8.324   5.202
25072WAT     H175458   2.273   8.335   5.210
25072WAT     H275459   2.134   8.312   5.293
25073WAT      O75460   6.370   5.642   2.893
25073WAT     H175461   6.363   5.685   2.803
25073WAT     H275462   6.400   5.547   2.881
25074WAT      O75463   6.150   0.530   4.435
25074WAT     H175464   6.228   0.586   4.464
25074WAT     H275465   6.069   0.588   4.426
25075WAT      O75466   6.811   8.262   1.267
25075WAT     H175467   6.854   8.233   1.181
25075WAT     H275468   6.860   8.341   1.304
25076WAT      O75469   4.034   6.813   4.217
25076WAT     H175470   3.953   6.849   4.170
25076WAT     H275471   4.068   6.733   4.169
25077WAT      O75472   2.740   0.307   7.898
25077WAT     H175473   2.697   0.397   7.900
25077WAT     H275474   2.670   0.235   7.900
25078WAT      O75475   5.688   2.911   4.755
25078WAT     H175476   5.755   2.846   4.718
25078WAT     H275477   5.685   2.903   4.855
25079WAT      O75478   4.835   4.546   4.411
25079WAT     H175479   4.875   4.636   4.391
25079WAT     H275480   4.755   4.557   4.471
25080WAT      O75481   5.886   9.367   6.829
25080WAT     H175482   5.914   9.374   6.925
25080WAT     H275483   5.888   9.458   6.787
25081WAT      O75484   0.988   6.074   5.495
25081WAT     H175485   1.047   6.152   5.474
25081WAT     H275486   1.036   5.989   5.472
25082WAT      O75487   1.743   3.237   8.064
25082WAT     H175488   1.768   3.324   8.020
25082WAT     H275489   1.771   3.161   8.005
25083WAT      O75490   8.050   8.558   9.211
25083WAT     H175491   8.027   8.461   9.201
25083WAT     H275492   8.091   8.592   9.126
25084WAT      O75493   8.443   5.111   3.996
25084WAT     H175494   8.378   5.185   4.017
25084WAT     H275495   8.533   5.150   3.977
25085WAT      O75496   4.483   2.825   2.949
25085WAT     H175497   4.524   2.878   2.875
25085WAT     H275498   4.555   2.793   3.012
25086WAT      O75499   7.000   2.174   2.192
25086WAT     H175500   7.073   2.113   2.163
25086WAT     H275501   6.932   2.123   2.245
25087WAT      O75502   6.992   5.682   9.347
25087WAT     H175503   6.935   5.675   9.429
25087WAT     H275504   6.968   5.765   9.297
25088WAT      O75505   4.817   8.652   6.904
25088WAT     H175506   4.795   8.555   6.899
25088WAT     H275507   4.900   8.670   6.851
25089WAT      O75508   1.857   3.411   6.066
25089WAT     H175509   1.872   3.421   6.164
25089WAT     H275510   1.760   3.426   6.045
25090WAT      O75511   5.845   3.926   5.789
25090WAT     H175512   5.771   3.859   5.790
25090WAT     H275513   5.899   3.916   5.705
25091WAT      O75514   4.017   3.765   4.907
25091WAT     H175515   4.068   3.714   4.837
25091WAT     H275516   4.019   3.714   4.993
25092WAT      O75517   0.959   6.292   9.110
25092WAT     H175518   1.024   6.252   9.175
25092WAT     H275519   1.008   6.323   9.029
25093WAT      O75520   7.920   4.061   5.632
25093WAT     H175521   7.839   4.006   5.611
25093WAT     H275522   8.000   4.001   5.637
25094WAT      O75523   5.331   8.062   8.392
25094WAT     H175524   5.297   8.101   8.306
25094WAT     H275525   5.312   7.964   8.394
25095WAT      O75526   1.385   2.298   3.249
25095WAT     H175527   1.376   2.231   3.175
25095WAT     H275528   1.427   2.381   3.213
25096WAT      O75529   7.047   4.507   9.781
25096WAT     H175530   7.051   4.495   9.880
25096WAT     H275531   7.132   4.548   9.749
25097WAT      O75532   3.189   4.246   5.865
25097WAT     H175533   3.137   4.293   5.794
25097WAT     H275534   3.147   4.264   5.955
25098WAT      O75535   1.791   9.590   5.993
25098WAT     H175536   1.787   9.515   5.927
25098WAT     H275537   1.886   9.605   6.022
25099WAT      O75538   6.988   5.173   7.082
25099WAT     H175539   7.070   5.123   7.110
25099WAT     H275540   7.004   5.271   7.090
25100WAT      O75541   3.159   0.316   6.663
25100WAT     H175542   3.167   0.317   6.563
25100WAT     H275543   3.074   0.362   6.690
25101WAT      O75544   9.886   1.812   0.664
25101WAT     H175545   9.941   1.806   0.747
25101WAT     H275546   9.827   1.893   0.669
25102WAT      O75547   9.884   1.342   0.292
25102WAT     H175548   9.829   1.287   0.229
25102WAT     H275549   9.825   1.412   0.333
25103WAT      O75550   7.199   4.836   6.799
25103WAT     H175551   7.253   4.872   6.876
25103WAT     H275552   7.223   4.885   6.716
25104WAT      O75553   5.132   5.365   7.079
25104WAT     H175554   5.099   5.315   6.999
25104WAT     H275555   5.054   5.399   7.131
25105WAT      O75556   2.371   3.320   4.295
25105WAT     H175557   2.405   3.243   4.242
25105WAT     H275558   2.429   3.400   4.280
25106WAT      O75559   2.588   7.196   7.900
25106WAT     H175560   2.652   7.270   7.877
25106WAT     H275561   2.575   7.137   7.820
25107WAT      O75562   6.962   4.023   2.728
25107WAT     H175563   6.949   3.925   2.712
25107WAT     H275564   7.025   4.059   2.660
25108WAT      O75565   6.171   2.347   2.000
25108WAT     H175566   6.138   2.441   1.987
25108WAT     H275567   6.122   2.286   1.938
25109WAT      O75568   0.533   7.331   2.727
25109WAT     H175569   0.452   7.330   2.669
25109WAT     H275570   0.550   7.424   2.759
25110WAT      O75571   7.395   8.343   6.461
25110WAT     H175572   7.452   8.357   6.380
25110WAT     H275573   7.333   8.267   6.444
25111WAT      O75574   7.284   1.923   1.587
25111WAT     H175575   7.362   1.950   1.532
25111WAT     H275576   7.252   1.833   1.558
25112WAT      O75577   5.082   0.471   9.121
25112WAT     H175578   5.040   0.449   9.209
25112WAT     H275579   5.177   0.501   9.136
25113WAT      O75580   9.456   9.439   5.941
25113WAT     H175581   9.406   9.463   6.024
25113WAT     H275582   9.467   9.520   5.883
25114WAT      O75583   4.524   7.135   2.427
25114WAT     H175584   4.528   7.225   2.471
25114WAT     H275585   4.590   7.074   2.471
25115WAT      O75586   3.906   4.068   8.354
25115WAT     H175587   3.847   4.054   8.274
25115WAT     H275588   3.853   4.055   8.438
25116WAT      O75589   1.658   0.795   2.604
25116WAT     H175590   1.716   0.799   2.523
25116WAT     H275591   1.564   0.814   2.579
25117WAT      O75592   1.400   5.554   7.075
25117WAT     H175593   1.391   5.639   7.024
25117WAT     H275594   1.452   5.570   7.158
25118WAT      O75595   3.217   4.427   1.875
25118WAT     H175596   3.255   4.471   1.794
25118WAT     H275597   3.289   4.416   1.944
25119WAT      O75598   2.700   5.668   0.648
25119WAT     H175599   2.701   5.596   0.717
25119WAT     H275600   2.658   5.632   0.564
25120WAT      O75601   0.802   5.982   2.060
25120WAT     H175602   0.866   5.905   2.070
25120WAT     H275603   0.811   6.020   1.968
25121WAT      O75604   8.574   7.993   6.098
25121WAT     H175605   8.604   8.078   6.140
25121WAT     H275606   8.575   8.003   5.998
25122WAT      O75607   4.857   5.298   7.722
25122WAT     H175608   4.898   5.229   7.782
25122WAT     H275609   4.833   5.257   7.635
25123WAT      O75610   1.354   1.893   0.880
25123WAT     H175611   1.395   1.809   0.846
25123WAT     H275612   1.267   1.910   0.834
25124WAT      O75613   9.340   3.756   8.962
25124WAT     H175614   9.357   3.749   8.864
25124WAT     H275615   9.329   3.664   9.001
25125WAT      O75616   4.978   1.262   6.840
25125WAT     H175617   4.981   1.222   6.749
25125WAT     H275618   4.895   1.316   6.851
25126WAT      O75619   6.049   2.747   5.563
25126WAT     H175620   6.099   2.816   5.510
25126WAT     H275621   6.070   2.759   5.660
25127WAT      O75622   7.434   3.716   7.097
25127WAT     H175623   7.356   3.685   7.043
25127WAT     H275624   7.416   3.809   7.130
25128WAT      O75625   0.998   3.625   3.689
25128WAT     H175626   0.998   3.592   3.594
25128WAT     H275627   1.092   3.636   3.720
25129WAT      O75628   3.770   3.902   0.344
25129WAT     H175629   3.788   3.816   0.297
25129WAT     H275630   3.681   3.898   0.389
25130WAT      O75631   8.186   3.850   8.938
25130WAT     H175632   8.097   3.851   8.982
25130WAT     H275633   8.175   3.823   8.842
25131WAT      O75634   8.969   6.563   2.456
25131WAT     H175635   8.932   6.616   2.532
25131WAT     H275636   8.977   6.622   2.375
25132WAT      O75637   0.803   0.784   1.931
25132WAT     H175638   0.859   0.705   1.956
25132WAT     H275639   0.708   0.766   1.953
25133WAT      O75640   7.344   2.306   1.317
25133WAT     H175641   7.316   2.398   1.291
25133WAT     H275642   7.316   2.288   1.411
25134WAT      O75643   4.968   9.654   8.817
25134WAT     H175644   4.970   9.658   8.717
25134WAT     H275645   4.928   9.738   8.853
25135WAT      O75646   8.608   4.458   6.684
25135WAT     H175647   8.654   4.538   6.646
25135WAT     H275648   8.677   4.390   6.711
25136WAT      O75649   6.101   4.417   9.741
25136WAT     H175650   6.144   4.332   9.711
25136WAT     H275651   6.171   4.489   9.749
25137WAT      O75652   3.287   9.042   9.123
25137WAT     H175653   3.350   8.975   9.085
25137WAT     H275654   3.206   9.050   9.064
25138WAT      O75655   7.177   7.597   7.468
25138WAT     H175656   7.159   7.694   7.485
25138WAT     H275657   7.187   7.549   7.555
25139WAT      O75658   9.122   4.276   1.182
25139WAT     H175659   9.117   4.207   1.109
25139WAT     H275660   9.091   4.235   1.268
25140WAT      O75661   4.125   1.569   5.343
25140WAT     H175662   4.056   1.538   5.408
25140WAT     H275663   4.183   1.638   5.385
25141WAT      O75664   5.070   1.561   4.878
25141WAT     H175665   5.108   1.482   4.831
25141WAT     H275666   5.065   1.638   4.816
25142WAT      O75667   9.836   0.584   9.770
25142WAT     H175668   9.773   0.550   9.700
25142WAT     H275669   9.814   0.542   9.858
25143WAT      O75670   2.704   1.777   8.312
25143WAT     H175671   2.705   1.772   8.412
25143WAT     H275672   2.720   1.685   8.274
25144WAT      O75673   8.778   2.320   2.495
25144WAT     H175674   8.690   2.309   2.447
25144WAT     H275675   8.797   2.238   2.548
25145WAT      O75676   9.801   5.314   5.727
25145WAT     H175677   9.872   5.252   5.692
25145WAT     H275678   9.751   5.268   5.800
25146WAT      O75679   1.025   6.507   7.323
25146WAT     H175680   0.941   6.491   7.374
25146WAT     H275681   1.004   6.517   7.225
25147WAT      O75682   2.782   2.922   1.196
25147WAT     H175683   2.879   2.945   1.182
25147WAT     H275684   2.768   2.895   1.291
25148WAT      O75685   6.522   0.084   0.274
25148WAT     H175686   6.448   0.142   0.239
25148WAT     H275687   6.609   0.132   0.261
25149WAT      O75688   4.267   6.540   6.101
25149WAT     H175689   4.356   6.543   6.146
25149WAT     H275690   4.258   6.455   6.050
25150WAT      O75691   1.616   1.533   5.571
25150WAT     H175692   1.700   1.581   5.546
25150WAT     H275693   1.537   1.586   5.540
25151WAT      O75694   8.180   8.819   4.962
25151WAT     H175695   8.241   8.814   5.041
25151WAT     H275696   8.180   8.732   4.913
25152WAT      O75697   8.159   2.923   0.687
25152WAT     H175698   8.130   2.827   0.684
25152WAT     H275699   8.259   2.927   0.679
25153WAT      O75700   6.643   7.329   6.696
25153WAT     H175701   6.583   7.250   6.702
25153WAT     H275702   6.642   7.378   6.783
25154WAT      O75703   8.056   5.112   0.773
25154WAT     H175704   8.014   5.047   0.709
25154WAT     H275705   8.058   5.203   0.731
25155WAT      O75706   1.757   3.131   3.196
25155WAT     H175707   1.670   3.178   3.214
25155WAT     H275708   1.745   3.033   3.208
25156WAT      O75709   8.634   4.728   3.782
25156WAT     H175710   8.550   4.727   3.728
25156WAT     H275711   8.688   4.646   3.762
25157WAT      O75712   2.873   3.274   8.976
25157WAT     H175713   2.823   3.287   9.062
25157WAT     H275714   2.853   3.350   8.915
25158WAT      O75715   2.101   1.391   2.817
25158WAT     H175716   2.076   1.304   2.776
25158WAT     H275717   2.044   1.407   2.899
25159WAT      O75718   7.982   4.433   8.388
25159WAT     H175719   8.067   4.447   8.337
25159WAT     H275720   7.985   4.345   8.435
25160WAT      O75721   6.937   7.172   0.033
25160WAT     H175722   6.925   7.173   0.132
25160WAT     H275723   6.933   7.266  -0.002
25161WAT      O75724   5.243   6.932   9.035
25161WAT     H175725   5.234   6.992   8.956
25161WAT     H275726   5.338   6.900   9.040
25162WAT      O75727   3.966   5.358   4.453
25162WAT     H175728   4.017   5.396   4.375
25162WAT     H275729   4.021   5.368   4.536
25163WAT      O75730   5.857   6.312   3.997
25163WAT     H175731   5.902   6.292   4.084
25163WAT     H275732   5.760   6.288   4.003
25164WAT      O75733   6.515   7.855   6.540
25164WAT     H175734   6.512   7.755   6.543
25164WAT     H275735   6.427   7.891   6.571
25165WAT      O75736   8.231   4.191   4.764
25165WAT     H175737   8.235   4.290   4.758
25165WAT     H275738   8.147   4.158   4.720
25166WAT      O75739   6.370   3.581   9.152
25166WAT     H175740   6.367   3.485   9.125
25166WAT     H275741   6.461   3.604   9.187
25167WAT      O75742   3.201   2.295   5.135
25167WAT     H175743   3.299   2.307   5.121
25167WAT     H275744   3.180   2.301   5.233
25168WAT      O75745   6.250   4.687   5.282
25168WAT     H175746   6.270   4.642   5.369
25168WAT     H275747   6.336   4.711   5.236
25169WAT      O75748   5.670   5.214   2.812
25169WAT     H175749   5.662   5.217   2.912
25169WAT     H275750   5.684   5.307   2.777
25170WAT      O75751   3.375   6.240   4.639
25170WAT     H175752   3.454   6.182   4.615
25170WAT     H275753   3.364   6.311   4.570
25171WAT      O75754   7.985   0.805   4.609
25171WAT     H175755   7.935   0.889   4.632
25171WAT     H275756   8.005   0.754   4.693
25172WAT      O75757   5.969   0.696   1.723
25172WAT     H175758   6.055   0.650   1.704
25172WAT     H275759   5.986   0.779   1.777
25173WAT      O75760   9.732   4.804   0.285
25173WAT     H175761   9.811   4.803   0.348
25173WAT     H275762   9.764   4.828   0.193
25174WAT      O75763   5.972   2.230   7.299
25174WAT     H175764   6.024   2.274   7.371
25174WAT     H275765   5.886   2.195   7.336
25175WAT      O75766   4.410   0.022   1.578
25175WAT     H175767   4.335  -0.037   1.608
25175WAT     H275768   4.425   0.009   1.480
25176WAT      O75769   0.174   7.995   3.787
25176WAT     H175770   0.111   8.067   3.759
25176WAT     H275771   0.244   7.982   3.716
25177WAT      O75772   8.218   6.068   8.752
25177WAT     H175773   8.248   5.973   8.766
25177WAT     H275774   8.155   6.094   8.825
25178WAT      O75775   6.551   2.060   7.679
25178WAT     H175776   6.622   1.994   7.704
25178WAT     H275777   6.555   2.138   7.741
25179WAT      O75778   6.829   9.075   0.064
25179WAT     H175779   6.828   9.030   0.153
25179WAT     H275780   6.854   9.008  -0.007
25180WAT      O75781   3.052   1.684   4.762
25180WAT     H175782   3.048   1.752   4.835
25180WAT     H275783   2.965   1.683   4.712
25181WAT      O75784   4.588   1.299   2.283
25181WAT     H175785   4.511   1.306   2.346
25181WAT     H275786   4.635   1.212   2.296
25182WAT      O75787   9.528   5.570   1.203
25182WAT     H175788   9.589   5.508   1.252
25182WAT     H275789   9.447   5.588   1.260
25183WAT      O75790   3.757   8.159   2.451
25183WAT     H175791   3.819   8.126   2.380
25183WAT     H275792   3.684   8.092   2.466
25184WAT      O75793   1.516   5.082   3.094
25184WAT     H175794   1.445   5.150   3.111
25184WAT     H275795   1.553   5.051   3.182
25185WAT      O75796   1.798   9.052   0.851
25185WAT     H175797   1.892   9.062   0.818
25185WAT     H275798   1.773   9.133   0.904
25186WAT      O75799   5.747   7.399   4.168
25186WAT     H175800   5.716   7.329   4.231
25186WAT     H275801   5.806   7.358   4.098
25187WAT      O75802   5.288   3.353   3.845
25187WAT     H175803   5.307   3.442   3.804
25187WAT     H275804   5.228   3.301   3.786
25188WAT      O75805   2.376   9.439   2.170
25188WAT     H175806   2.390   9.510   2.102
25188WAT     H275807   2.434   9.458   2.250
25189WAT      O75808   8.530   1.956   3.341
25189WAT     H175809   8.580   1.890   3.397
25189WAT     H275810   8.558   1.945   3.245
25190WAT      O75811   7.834   5.067   0.140
25190WAT     H175812   7.808   4.984   0.091
25190WAT     H275813   7.754   5.127   0.148
25191WAT      O75814   8.681   2.594   8.013
25191WAT     H175815   8.640   2.528   7.951
25191WAT     H275816   8.625   2.603   8.095
25192WAT      O75817   8.737   7.592   0.177
25192WAT     H175818   8.688   7.507   0.158
25192WAT     H275819   8.674   7.658   0.219
25193WAT      O75820   6.774   6.607   8.013
25193WAT     H175821   6.826   6.524   8.033
25193WAT     H275822   6.729   6.598   7.924
25194WAT      O75823   8.493   6.519   8.067
25194WAT     H175824   8.455   6.490   7.980
25194WAT     H275825   8.475   6.449   8.136
25195WAT      O75826   5.689   3.256   1.444
25195WAT     H175827   5.618   3.189   1.426
25195WAT     H275828   5.729   3.239   1.534
25196WAT      O75829   6.272   8.167   2.303
25196WAT     H175830   6.349   8.164   2.239
25196WAT     H275831   6.299   8.216   2.385
25197WAT      O75832   9.547   3.191   1.233
25197WAT     H175833   9.484   3.128   1.278
25197WAT     H275834   9.639   3.152   1.235
25198WAT      O75835   0.459   8.874   0.081
25198WAT     H175836   0.419   8.872  -0.010
25198WAT     H275837   0.544   8.927   0.078
25199WAT      O75838   4.789   6.319   9.570
25199WAT     H175839   4.714   6.280   9.623
25199WAT     H275840   4.790   6.278   9.478
25200WAT      O75841   2.647   7.073   0.378
25200WAT     H175842   2.720   7.099   0.442
25200WAT     H275843   2.684   7.067   0.286
25201WAT      O75844   9.685   6.821   8.748
25201WAT     H175845   9.697   6.734   8.700
25201WAT     H275846   9.597   6.861   8.722
25202WAT      O75847   7.225   2.545   9.150
25202WAT     H175848   7.188   2.609   9.218
25202WAT     H275849   7.171   2.551   9.066
25203WAT      O75850   4.733   1.716   3.684
25203WAT     H175851   4.806   1.753   3.626
25203WAT     H275852   4.728   1.617   3.672
25204WAT      O75853   3.425   6.858   0.122
25204WAT     H175854   3.358   6.802   0.072
25204WAT     H275855   3.488   6.798   0.171
25205WAT      O75856   2.266   5.778   7.708
25205WAT     H175857   2.255   5.734   7.619
25205WAT     H275858   2.180   5.775   7.758
25206WAT      O75859   1.798   2.454   6.928
25206WAT     H175860   1.779   2.552   6.925
25206WAT     H275861   1.808   2.425   7.023
25207WAT      O75862   1.706   1.908   2.014
25207WAT     H175863   1.607   1.924   2.011
25207WAT     H275864   1.738   1.882   1.923
25208WAT      O75865   8.729   6.937   6.324
25208WAT     H175866   8.676   7.018   6.301
25208WAT     H275867   8.806   6.963   6.383
25209WAT      O75868   9.004   0.715   9.362
25209WAT     H175869   9.101   0.721   9.385
25209WAT     H275870   8.986   0.768   9.279
25210WAT      O75871   8.085   6.376   5.887
25210WAT     H175872   8.018   6.449   5.877
25210WAT     H275873   8.157   6.388   5.819
25211WAT      O75874   3.119   0.781   9.317
25211WAT     H175875   3.067   0.725   9.253
25211WAT     H275876   3.199   0.731   9.348
25212WAT      O75877   9.313   5.269   6.820
25212WAT     H175878   9.351   5.328   6.748
25212WAT     H275879   9.220   5.300   6.842
25213WAT      O75880   2.052   6.901   7.215
25213WAT     H175881   1.995   6.983   7.227
25213WAT     H275882   2.082   6.895   7.120
25214WAT      O75883   8.928   0.959   0.586
25214WAT     H175884   8.994   0.928   0.518
25214WAT     H275885   8.900   1.053   0.565
25215WAT      O75886   9.619   7.623   3.096
25215WAT     H175887   9.613   7.663   3.187
25215WAT     H275888   9.536   7.644   3.045
25216WAT      O75889   9.185   4.673   6.502
25216WAT     H175890   9.182   4.688   6.601
25216WAT     H275891   9.240   4.744   6.459
25217WAT      O75892   3.785   6.494   2.956
25217WAT     H175893   3.832   6.438   2.888
25217WAT     H275894   3.710   6.443   2.996
25218WAT      O75895   4.216   5.575   7.208
25218WAT     H175896   4.282   5.531   7.269
25218WAT     H275897   4.124   5.561   7.244
25219WAT      O75898   3.337   4.119   6.973
25219WAT     H175899   3.264   4.134   7.040
25219WAT     H275900   3.423   4.101   7.021
25220WAT      O75901   1.149   7.522   2.101
25220WAT     H175902   1.144   7.445   2.165
25220WAT     H275903   1.063   7.573   2.104
25221WAT      O75904   0.621   7.880   4.668
25221WAT     H175905   0.571   7.930   4.738
25221WAT     H275906   0.601   7.782   4.676
25222WAT      O75907   8.148   5.701   9.114
25222WAT     H175908   8.096   5.667   9.192
25222WAT     H275909   8.084   5.726   9.040
25223WAT      O75910   3.137   2.642   3.126
25223WAT     H175911   3.103   2.652   3.032
25223WAT     H275912   3.215   2.703   3.139
25224WAT      O75913   0.149   8.542   1.705
25224WAT     H175914   0.188   8.533   1.614
25224WAT     H275915   0.129   8.638   1.724
25225WAT      O75916   4.770   8.410   7.870
25225WAT     H175917   4.855   8.460   7.886
25225WAT     H275918   4.719   8.454   7.797
25226WAT      O75919   7.570   4.983   2.098
25226WAT     H175920   7.488   4.934   2.067
25226WAT     H275921   7.649   4.921   2.096
25227WAT      O75922   2.996   1.234   8.082
25227WAT     H175923   2.979   1.216   8.179
25227WAT     H275924   3.034   1.326   8.072
25228WAT      O75925   5.797   4.830   8.012
25228WAT     H175926   5.794   4.929   8.027
25228WAT     H275927   5.807   4.783   8.099
25229WAT      O75928   6.813   1.199   9.041
25229WAT     H175929   6.868   1.244   8.970
25229WAT     H275930   6.740   1.261   9.071
25230WAT      O75931   2.802   9.493   1.957
25230WAT     H175932   2.707   9.480   1.931
25230WAT     H275933   2.844   9.404   1.976
25231WAT      O75934   0.053   0.314   0.584
25231WAT     H175935   0.071   0.230   0.636
25231WAT     H275936   0.092   0.392   0.634
25232WAT      O75937   0.060   3.594   9.591
25232WAT     H175938  -0.000   3.641   9.526
25232WAT     H275939   0.144   3.566   9.544
25233WAT      O75940   0.327   5.072   2.680
25233WAT     H175941   0.380   5.154   2.660
25233WAT     H275942   0.244   5.098   2.729
25234WAT      O75943   6.224   4.421   2.771
25234WAT     H175944   6.137   4.381   2.797
25234WAT     H275945   6.224   4.440   2.672
25235WAT      O75946   2.159   7.138   7.646
25235WAT     H175947   2.163   7.236   7.625
25235WAT     H275948   2.082   7.096   7.598
25236WAT      O75949   0.943   8.534   0.220
25236WAT     H175950   0.981   8.452   0.178
25236WAT     H275951   0.864   8.565   0.167
25237WAT      O75952   8.883   7.383   2.088
25237WAT     H175953   8.952   7.364   2.019
25237WAT     H275954   8.926   7.388   2.178
25238WAT      O75955   3.151   7.202   1.064
25238WAT     H175956   3.206   7.264   1.008
25238WAT     H275957   3.068   7.175   1.014
25239WAT      O75958   8.881   4.714   5.898
25239WAT     H175959   8.828   4.785   5.852
25239WAT     H275960   8.934   4.754   5.972
25240WAT      O75961   2.060   8.624   3.462
25240WAT     H175962   2.091   8.644   3.555
25240WAT     H275963   2.115   8.676   3.397
25241WAT      O75964   2.112   5.709   5.200
25241WAT     H175965   2.072   5.619   5.180
25241WAT     H275966   2.040   5.778   5.204
25242WAT      O75967   3.416   6.681   3.801
25242WAT     H175968   3.405   6.697   3.702
25242WAT     H275969   3.359   6.746   3.851
25243WAT      O75970   5.413   3.629   4.076
25243WAT     H175971   5.315   3.620   4.093
25243WAT     H275972   5.446   3.548   4.027
25244WAT      O75973   2.289   8.207   6.122
25244WAT     H175974   2.299   8.200   6.221
25244WAT     H275975   2.263   8.119   6.085
25245WAT      O75976   0.895   3.269   1.885
25245WAT     H175977   0.961   3.200   1.912
25245WAT     H275978   0.906   3.290   1.787
25246WAT      O75979   9.885   8.997   0.051
25246WAT     H175980   9.917   9.056   0.125
25246WAT     H275981   9.867   8.906   0.086
25247WAT      O75982   3.002   3.008   1.905
25247WAT     H175983   2.996   2.909   1.893
25247WAT     H275984   2.912   3.048   1.885
25248WAT      O75985   4.140   5.779   5.772
25248WAT     H175986   4.168   5.772   5.868
25248WAT     H275987   4.213   5.824   5.719
25249WAT      O75988   6.271   6.700   0.155
25249WAT     H175989   6.219   6.697   0.241
25249WAT     H275990   6.363   6.734   0.173
25250WAT      O75991   2.965   5.092   2.040
25250WAT     H175992   2.904   5.016   2.017
25250WAT     H275993   2.928   5.142   2.119
25251WAT      O75994   8.613   1.111   7.704
25251WAT     H175995   8.702   1.156   7.711
25251WAT     H275996   8.588   1.101   7.608
25252WAT      O75997   6.031   8.795   2.157
25252WAT     H175998   5.949   8.770   2.209
25252WAT     H275999   6.109   8.801   2.218
25253WAT      O76000   8.042   9.289   9.612
25253WAT     H176001   8.128   9.277   9.661
25253WAT     H276002   8.018   9.205   9.565
25254WAT      O76003   7.627   2.458   9.273
25254WAT     H176004   7.561   2.517   9.226
25254WAT     H276005   7.587   2.368   9.289
25255WAT      O76006   6.821   6.186   6.641
25255WAT     H176007   6.920   6.200   6.645
25255WAT     H276008   6.786   6.169   6.733
25256WAT      O76009   4.744   5.686   9.615
25256WAT     H176010   4.841   5.661   9.614
25256WAT     H276011   4.702   5.662   9.528
25257WAT      O76012   8.200   7.868   4.856
25257WAT     H176013   8.269   7.941   4.862
25257WAT     H276014   8.147   7.880   4.772
25258WAT      O76015   1.817   8.376   1.510
25258WAT     H176016   1.725   8.341   1.530
25258WAT     H276017   1.864   8.313   1.448
25259WAT      O76018   5.416   1.051   4.513
25259WAT     H176019   5.485   1.001   4.566
25259WAT     H276020   5.439   1.047   4.416
25260WAT      O76021   4.551   3.002   6.693
25260WAT     H176022   4.556   2.974   6.788
25260WAT     H276023   4.582   3.097   6.684
25261WAT      O76024   0.290   0.881   7.892
25261WAT     H176025   0.238   0.964   7.911
25261WAT     H276026   0.387   0.905   7.880
25262WAT      O76027   0.193   3.138   0.244
25262WAT     H176028   0.279   3.152   0.194
25262WAT     H276029   0.117   3.177   0.191
25263WAT      O76030   2.467   2.590   5.192
25263WAT     H176031   2.420   2.647   5.258
25263WAT     H276032   2.563   2.617   5.187
25264WAT      O76033   6.478   4.232   5.944
25264WAT     H176034   6.465   4.331   5.941
25264WAT     H276035   6.566   4.209   5.904
25265WAT      O76036   8.492   8.890   8.682
25265WAT     H176037   8.550   8.887   8.763
25265WAT     H276038   8.545   8.861   8.602
25266WAT      O76039   7.732   4.009   4.182
25266WAT     H176040   7.753   4.067   4.103
25266WAT     H276041   7.770   3.918   4.168
25267WAT      O76042   1.781   6.546   2.002
25267WAT     H176043   1.814   6.617   2.065
25267WAT     H276044   1.828   6.555   1.915
25268WAT      O76045   6.833   2.515   7.834
25268WAT     H176046   6.926   2.505   7.869
25268WAT     H276047   6.767   2.491   7.905
25269WAT      O76048   3.712   5.740   4.321
25269WAT     H176049   3.670   5.660   4.364
25269WAT     H276050   3.640   5.797   4.280
25270WAT      O76051   6.800   9.643   8.595
25270WAT     H176052   6.750   9.653   8.681
25270WAT     H276053   6.891   9.684   8.605
25271WAT      O76054   7.851   3.032   4.558
25271WAT     H176055   7.818   3.023   4.464
25271WAT     H276056   7.870   3.128   4.578
25272WAT      O76057   4.923   6.882   4.374
25272WAT     H176058   4.928   6.845   4.281
25272WAT     H276059   4.860   6.960   4.375
25273WAT      O76060   0.270   5.967   7.856
25273WAT     H176061   0.254   6.064   7.837
25273WAT     H276062   0.189   5.914   7.831
25274WAT      O76063   0.381   7.624   9.234
25274WAT     H176064   0.420   7.653   9.147
25274WAT     H276065   0.428   7.541   9.266
25275WAT      O76066   2.117   6.431   8.621
25275WAT     H176067   2.158   6.448   8.531
25275WAT     H276068   2.099   6.333   8.631
25276WAT      O76069   5.048   8.216   2.535
25276WAT     H176070   5.131   8.269   2.520
25276WAT     H276071   5.047   8.137   2.474
25277WAT      O76072   0.070   3.413   1.672
25277WAT     H176073   0.066   3.508   1.701
25277WAT     H276074   0.015   3.400   1.590
25278WAT      O76075   3.096   9.193   8.535
25278WAT     H176076   3.092   9.292   8.536
25278WAT     H276077   3.165   9.162   8.470
25279WAT      O76078   7.697   6.139   7.843
25279WAT     H176079   7.637   6.210   7.806
25279WAT     H276080   7.789   6.176   7.857
25280WAT      O76081   4.808   0.814   1.691
25280WAT     H176082   4.899   0.773   1.691
25280WAT     H276083   4.754   0.776   1.767
25281WAT      O76084   3.013   5.658   7.864
25281WAT     H176085   2.985   5.641   7.770
25281WAT     H276086   2.975   5.746   7.895
25282WAT      O76087   2.312   0.349   2.423
25282WAT     H176088   2.281   0.327   2.331
25282WAT     H276089   2.233   0.356   2.484
25283WAT      O76090   4.385   5.504   6.327
25283WAT     H176091   4.381   5.420   6.272
25283WAT     H276092   4.445   5.570   6.283
25284WAT      O76093   9.677   1.684   3.759
25284WAT     H176094   9.661   1.670   3.661
25284WAT     H276095   9.760   1.738   3.772
25285WAT      O76096   3.777   5.018   9.107
25285WAT     H176097   3.836   4.990   9.183
25285WAT     H276098   3.695   5.062   9.143
25286WAT      O76099   4.039   1.125   2.771
25286WAT     H176100   3.989   1.114   2.856
25286WAT     H276101   4.136   1.138   2.790
25287WAT      O76102   9.123   2.999   9.103
25287WAT     H176103   9.148   2.964   9.012
25287WAT     H276104   9.060   3.077   9.093
25288WAT      O76105   1.429   1.046   9.145
25288WAT     H176106   1.429   1.143   9.120
25288WAT     H276107   1.473   1.035   9.234
25289WAT      O76108   9.418   4.468   7.663
25289WAT     H176109   9.429   4.375   7.628
25289WAT     H276110   9.332   4.506   7.629
25290WAT      O76111   0.954   2.071   4.946
25290WAT     H176112   1.000   1.998   4.997
25290WAT     H276113   0.951   2.153   5.003
25291WAT      O76114   7.718   8.649   3.822
25291WAT     H176115   7.758   8.660   3.731
25291WAT     H276116   7.626   8.611   3.814
25292WAT      O76117   7.874   6.185   0.681
25292WAT     H176118   7.896   6.278   0.651
25292WAT     H276119   7.826   6.137   0.609
25293WAT      O76120   1.717   1.975   6.756
25293WAT     H176121   1.747   2.024   6.674
25293WAT     H276122   1.713   2.039   6.833
25294WAT      O76123   1.956   6.097   0.916
25294WAT     H176124   2.037   6.133   0.872
25294WAT     H276125   1.977   6.009   0.958
25295WAT      O76126   3.859   6.950   8.510
25295WAT     H176127   3.851   7.000   8.596
25295WAT     H276128   3.880   7.014   8.436
25296WAT      O76129   6.971   4.770   4.700
25296WAT     H176130   7.038   4.755   4.773
25296WAT     H276131   7.010   4.830   4.630
25297WAT      O76132   4.425   7.118   1.819
25297WAT     H176133   4.376   7.184   1.875
25297WAT     H276134   4.379   7.029   1.823
25298WAT      O76135   6.307   0.677   0.321
25298WAT     H176136   6.247   0.692   0.242
25298WAT     H276137   6.337   0.765   0.357
25299WAT      O76138   2.972   2.355   8.958
25299WAT     H176139   3.047   2.408   8.997
25299WAT     H276140   2.885   2.401   8.975
25300WAT      O76141   9.800   4.159   7.003
25300WAT     H176142   9.729   4.188   7.068
25300WAT     H276143   9.806   4.226   6.929
25301WAT      O76144   5.790   7.657   7.581
25301WAT     H176145   5.773   7.623   7.674
25301WAT     H276146   5.753   7.592   7.514
25302WAT      O76147   5.862   0.436   8.427
25302WAT     H176148   5.892   0.466   8.517
25302WAT     H276149   5.819   0.346   8.435
25303WAT      O76150   0.054   0.804   9.870
25303WAT     H176151   0.071   0.881   9.808
25303WAT     H276152   0.019   0.726   9.818
25304WAT      O76153   6.689   5.393   2.805
25304WAT     H176154   6.735   5.309   2.776
25304WAT     H276155   6.756   5.456   2.844
25305WAT      O76156   8.234   1.152   6.472
25305WAT     H176157   8.281   1.089   6.533
25305WAT     H276158   8.204   1.233   6.523
25306WAT      O76159   1.330   2.125   7.797
25306WAT     H176160   1.370   2.088   7.880
25306WAT     H276161   1.235   2.153   7.814
25307WAT      O76162   5.130   5.496   6.744
25307WAT     H176163   5.076   5.474   6.663
25307WAT     H276164   5.181   5.415   6.773
25308WAT      O76165   8.849   6.796   6.826
25308WAT     H176166   8.844   6.824   6.922
25308WAT     H276167   8.882   6.873   6.771
25309WAT      O76168   3.311   3.713   5.727
25309WAT     H176169   3.298   3.809   5.703
25309WAT     H276170   3.407   3.697   5.753
25310WAT      O76171   4.369   3.965   2.033
25310WAT     H176172   4.374   4.011   1.945
25310WAT     H276173   4.325   3.875   2.021
25311WAT      O76174   0.158   0.681   5.062
25311WAT     H176175   0.112   0.753   5.011
25311WAT     H276176   0.185   0.607   4.999
25312WAT      O76177   2.914   8.204   5.882
25312WAT     H176178   2.827   8.160   5.903
25312WAT     H276179   2.988   8.161   5.935
25313WAT      O76180   9.745   4.192   0.423
25313WAT     H176181   9.796   4.186   0.509
25313WAT     H276182   9.742   4.287   0.393
25314WAT      O76183   4.188   0.690   6.968
25314WAT     H176184   4.220   0.607   6.923
25314WAT     H276185   4.188   0.766   6.904
25315WAT      O76186   9.630   4.122   1.891
25315WAT     H176187   9.657   4.053   1.824
25315WAT     H276188   9.691   4.116   1.971
25316WAT      O76189   0.936   1.061   9.704
25316WAT     H176190   0.970   1.150   9.733
25316WAT     H276191   1.005   1.015   9.648
25317WAT      O76192   2.283   0.778   0.560
25317WAT     H176193   2.327   0.802   0.474
25317WAT     H276194   2.346   0.724   0.616
25318WAT      O76195   7.477   8.446   3.932
25318WAT     H176196   7.494   8.397   3.846
25318WAT     H276197   7.459   8.379   4.005
25319WAT      O76198   8.234   4.520   3.066
25319WAT     H176199   8.307   4.587   3.054
25319WAT     H276200   8.274   4.429   3.079
25320WAT      O76201   7.002   6.725   5.957
25320WAT     H176202   7.022   6.627   5.955
25320WAT     H276203   7.053   6.772   5.886
25321WAT      O76204   9.430   5.432   7.156
25321WAT     H176205   9.440   5.477   7.245
25321WAT     H276206   9.491   5.476   7.090
25322WAT      O76207   4.214   6.392   6.396
25322WAT     H176208   4.154   6.352   6.466
25322WAT     H276209   4.303   6.413   6.437
25323WAT      O76210   7.314   8.000   6.809
25323WAT     H176211   7.307   7.920   6.749
25323WAT     H276212   7.402   7.999   6.857
25324WAT      O76213   2.896   3.059   2.688
25324WAT     H176214   2.926   3.125   2.619
25324WAT     H276215   2.817   3.095   2.737
25325WAT      O76216   8.072   6.432   3.497
25325WAT     H176217   8.011   6.361   3.532
25325WAT     H276218   8.068   6.512   3.557
25326WAT      O76219   6.796   8.224   7.067
25326WAT     H176220   6.789   8.137   7.017
25326WAT     H276221   6.844   8.291   7.011
25327WAT      O76222   7.867   3.862   3.831
25327WAT     H176223   7.890   3.791   3.898
25327WAT     H276224   7.941   3.869   3.765
25328WAT      O76225   7.077   8.134   6.697
25328WAT     H176226   7.063   8.081   6.613
25328WAT     H276227   7.166   8.109   6.737
25329WAT      O76228   2.232   8.722   0.057
25329WAT     H176229   2.296   8.798   0.069
25329WAT     H276230   2.249   8.653   0.127
25330WAT      O76231   5.160   4.305   6.524
25330WAT     H176232   5.112   4.387   6.557
25330WAT     H276233   5.101   4.256   6.460
25331WAT      O76234   5.139   4.673   1.381
25331WAT     H176235   5.215   4.725   1.419
25331WAT     H276236   5.072   4.655   1.453
25332WAT      O76237   7.462   8.080   1.527
25332WAT     H176238   7.366   8.061   1.547
25332WAT     H276239   7.508   8.109   1.611
25333WAT      O76240   6.553   9.738   4.427
25333WAT     H176241   6.571   9.691   4.341
25333WAT     H276242   6.473   9.698   4.471
25334WAT      O76243   8.277   1.069   3.166
25334WAT     H176244   8.351   1.132   3.188
25334WAT     H276245   8.315   0.982   3.134
25335WAT      O76246   6.167   4.396   7.141
25335WAT     H176247   6.113   4.444   7.211
25335WAT     H276248   6.118   4.399   7.054
25336WAT      O76249   6.522   6.064   6.399
25336WAT     H176250   6.496   5.968   6.388
25336WAT     H276251   6.620   6.069   6.420
25337WAT      O76252   1.122   9.226   8.979
25337WAT     H176253   1.079   9.268   8.899
25337WAT     H276254   1.221   9.236   8.973
25338WAT      O76255   7.302   5.487   0.765
25338WAT     H176256   7.336   5.458   0.675
25338WAT     H276257   7.273   5.407   0.818
25339WAT      O76258   4.829   7.710   5.803
25339WAT     H176259   4.735   7.703   5.771
25339WAT     H276260   4.877   7.780   5.751
25340WAT      O76261   3.724   9.102   9.437
25340WAT     H176262   3.635   9.139   9.465
25340WAT     H276263   3.743   9.018   9.489
25341WAT      O76264   9.885   2.099   2.440
25341WAT     H176265   9.832   2.054   2.512
25341WAT     H276266   9.853   2.068   2.350
25342WAT      O76267   5.990   7.860   5.401
25342WAT     H176268   5.958   7.947   5.365
25342WAT     H276269   5.913   7.809   5.439
25343WAT      O76270   0.054   3.077   9.331
25343WAT     H176271  -0.039   3.047   9.353
25343WAT     H276272   0.054   3.121   9.241
25344WAT      O76273   5.190   0.105   4.736
25344WAT     H176274   5.121   0.055   4.788
25344WAT     H276275   5.204   0.195   4.779
25345WAT      O76276   1.470   0.852   7.746
25345WAT     H176277   1.423   0.765   7.753
25345WAT     H276278   1.420   0.913   7.684
25346WAT      O76279   8.226   1.086   2.152
25346WAT     H176280   8.324   1.071   2.148
25346WAT     H276281   8.207   1.182   2.173
25347WAT      O76282   7.112   2.560   7.921
25347WAT     H176283   7.081   2.521   8.008
25347WAT     H276284   7.185   2.503   7.883
25348WAT      O76285   4.675   0.681   2.397
25348WAT     H176286   4.774   0.690   2.393
25348WAT     H276287   4.651   0.611   2.464
25349WAT      O76288   7.136   7.037   7.259
25349WAT     H176289   7.050   7.071   7.221
25349WAT     H276290   7.210   7.101   7.237
25350WAT      O76291   1.076   4.017   7.609
25350WAT     H176292   0.981   3.986   7.609
25350WAT     H276293   1.079   4.116   7.595
25351WAT      O76294   8.854   2.198   3.225
25351WAT     H176295   8.802   2.138   3.164
25351WAT     H276296   8.940   2.153   3.250
25352WAT      O76297   8.281   8.494   6.068
25352WAT     H176298   8.278   8.564   5.997
25352WAT     H276299   8.294   8.404   6.025
25353WAT      O76300   8.621   6.085   8.451
25353WAT     H176301   8.564   6.005   8.471
25353WAT     H276302   8.609   6.112   8.355
25354WAT      O76303   2.469   7.570   3.473
25354WAT     H176304   2.432   7.538   3.386
25354WAT     H276305   2.394   7.602   3.531
25355WAT      O76306   6.452   2.763   9.773
25355WAT     H176307   6.359   2.729   9.787
25355WAT     H276308   6.479   2.818   9.852
25356WAT      O76309   9.111   5.540   1.434
25356WAT     H176310   9.018   5.566   1.407
25356WAT     H276311   9.143   5.602   1.506
25357WAT      O76312   9.182   3.581   7.362
25357WAT     H176313   9.209   3.659   7.306
25357WAT     H276314   9.263   3.533   7.395
25358WAT      O76315   4.673   5.352   8.313
25358WAT     H176316   4.727   5.434   8.298
25358WAT     H276317   4.582   5.363   8.272
25359WAT      O76318   0.753   8.723   9.792
25359WAT     H176319   0.715   8.719   9.885
25359WAT     H276320   0.727   8.810   9.750
25360WAT      O76321   6.226   5.265   9.642
25360WAT     H176322   6.157   5.305   9.581
25360WAT     H276323   6.181   5.202   9.706
25361WAT      O76324   6.175   7.879   0.732
25361WAT     H176325   6.125   7.929   0.660
25361WAT     H276326   6.259   7.928   0.754
25362WAT      O76327   2.961   6.488   4.513
25362WAT     H176328   2.986   6.571   4.563
25362WAT     H276329   2.970   6.409   4.573
25363WAT      O76330   5.370   5.996   1.003
25363WAT     H176331   5.351   6.000   1.101
25363WAT     H276332   5.421   5.913   0.982
25364WAT      O76333   8.732   9.310   9.718
25364WAT     H176334   8.788   9.340   9.795
25364WAT     H276335   8.635   9.314   9.744
25365WAT      O76336   3.606   6.885   6.968
25365WAT     H176337   3.674   6.823   7.008
25365WAT     H276338   3.616   6.976   7.008
25366WAT      O76339   2.322   7.837   0.112
25366WAT     H176340   2.320   7.808   0.208
25366WAT     H276341   2.271   7.923   0.103
25367WAT      O76342   0.063   8.594   5.172
25367WAT     H176343   0.010   8.527   5.120
25367WAT     H276344   0.156   8.560   5.184
25368WAT      O76345   1.364   1.118   7.860
25368WAT     H176346   1.316   1.064   7.929
25368WAT     H276347   1.331   1.093   7.769
25369WAT      O76348   6.967   8.291   5.894
25369WAT     H176349   7.056   8.282   5.850
25369WAT     H276350   6.904   8.339   5.832
25370WAT      O76351   2.005   2.888   1.032
25370WAT     H176352   1.909   2.910   1.053
25370WAT     H276353   2.033   2.936   0.950
25371WAT      O76354   8.341   0.851   2.993
25371WAT     H176355   8.401   0.771   2.980
25371WAT     H276356   8.291   0.869   2.908
25372WAT      O76357   5.227   0.278   3.018
25372WAT     H176358   5.155   0.341   2.991
25372WAT     H276359   5.270   0.311   3.103
25373WAT      O76360   0.866   1.736   4.686
25373WAT     H176361   0.907   1.773   4.603
25373WAT     H276362   0.839   1.812   4.746
25374WAT      O76363   6.395   4.052   7.899
25374WAT     H176364   6.449   4.051   7.815
25374WAT     H276365   6.419   4.133   7.953
25375WAT      O76366   4.613   3.728   1.729
25375WAT     H176367   4.516   3.742   1.709
25375WAT     H276368   4.625   3.709   1.827
25376WAT      O76369   1.275   3.063   1.603
25376WAT     H176370   1.195   3.063   1.544
25376WAT     H276371   1.265   3.133   1.674
25377WAT      O76372   0.700   6.880   8.857
25377WAT     H176373   0.737   6.876   8.949
25377WAT     H276374   0.605   6.849   8.857
25378WAT      O76375   3.488   7.554   3.132
25378WAT     H176376   3.567   7.596   3.176
25378WAT     H276377   3.503   7.547   3.034
25379WAT      O76378   8.413   0.477   9.118
25379WAT     H176379   8.442   0.523   9.034
25379WAT     H276380   8.363   0.541   9.175
25380WAT      O76381   5.326   4.158   5.195
25380WAT     H176382   5.318   4.066   5.234
25380WAT     H276383   5.240   4.207   5.208
25381WAT      O76384   9.368   5.871   9.580
25381WAT     H176385   9.426   5.838   9.654
25381WAT     H276386   9.291   5.921   9.617
25382WAT      O76387   7.765   6.605   7.538
25382WAT     H176388   7.718   6.652   7.613
25382WAT     H276389   7.839   6.550   7.574
25383WAT      O76390   9.280   2.906   9.433
25383WAT     H176391   9.181   2.915   9.425
25383WAT     H276392   9.321   2.996   9.447
25384WAT      O76393   8.019   8.926   1.828
25384WAT     H176394   7.924   8.910   1.800
25384WAT     H276395   8.077   8.927   1.747
25385WAT      O76396   5.876   0.306   2.989
25385WAT     H176397   5.886   0.371   2.914
25385WAT     H276398   5.961   0.302   3.041
25386WAT      O76399   0.554   2.832   2.513
25386WAT     H176400   0.465   2.821   2.557
25386WAT     H276401   0.625   2.793   2.572
25387WAT      O76402   3.490   2.562   9.361
25387WAT     H176403   3.443   2.650   9.356
25387WAT     H276404   3.466   2.507   9.280
25388WAT      O76405   1.206   7.116   2.096
25388WAT     H176406   1.281   7.161   2.143
25388WAT     H276407   1.242   7.060   2.021
25389WAT      O76408   0.735   3.576   4.684
25389WAT     H176409   0.727   3.670   4.719
25389WAT     H276410   0.752   3.579   4.586
25390WAT      O76411   7.811   4.614   3.310
25390WAT     H176412   7.814   4.685   3.380
25390WAT     H276413   7.753   4.539   3.342
25391WAT      O76414   3.883   0.575   9.747
25391WAT     H176415   3.919   0.502   9.689
25391WAT     H276416   3.913   0.561   9.841
25392WAT      O76417   2.061   1.383   3.691
25392WAT     H176418   2.084   1.365   3.595
25392WAT     H276419   1.998   1.461   3.696
25393WAT      O76420   2.940   4.919   1.019
25393WAT     H176421   2.977   4.966   0.939
25393WAT     H276422   2.841   4.912   1.011
25394WAT      O76423   2.112   5.527   7.240
25394WAT     H176424   2.034   5.466   7.251
25394WAT     H276425   2.120   5.586   7.320
25395WAT      O76426   7.457   0.251   5.384
25395WAT     H176427   7.379   0.303   5.419
25395WAT     H276428   7.535   0.261   5.446
25396WAT      O76429   0.367   2.510   5.070
25396WAT     H176430   0.357   2.440   5.140
25396WAT     H276431   0.404   2.593   5.111
25397WAT      O76432   0.791   9.748   2.855
25397WAT     H176433   0.883   9.711   2.842
25397WAT     H276434   0.723   9.680   2.826
25398WAT      O76435   3.717   7.605   8.661
25398WAT     H176436   3.672   7.552   8.589
25398WAT     H276437   3.648   7.644   8.722
25399WAT      O76438   1.956   5.972   9.202
25399WAT     H176439   1.993   6.064   9.218
25399WAT     H276440   1.972   5.915   9.282
25400WAT      O76441   5.897   3.696   6.248
25400WAT     H176442   5.979   3.663   6.200
25400WAT     H276443   5.884   3.643   6.332
25401WAT      O76444   3.257   0.898   2.863
25401WAT     H176445   3.348   0.933   2.884
25401WAT     H276446   3.200   0.973   2.830
25402WAT      O76447   5.635   4.433   2.731
25402WAT     H176448   5.651   4.452   2.828
25402WAT     H276449   5.582   4.507   2.690
25403WAT      O76450   2.667   0.425   4.295
25403WAT     H176451   2.759   0.464   4.295
25403WAT     H276452   2.604   0.486   4.344
25404WAT      O76453   0.040   6.201   6.202
25404WAT     H176454   0.071   6.295   6.187
25404WAT     H276455   0.010   6.191   6.297
25405WAT      O76456   0.209   6.768   0.506
25405WAT     H176457   0.236   6.797   0.414
25405WAT     H276458   0.114   6.738   0.505
25406WAT      O76459   0.680   8.177   4.186
25406WAT     H176460   0.646   8.087   4.212
25406WAT     H276461   0.776   8.170   4.161
25407WAT      O76462   9.165   7.167   5.089
25407WAT     H176463   9.180   7.114   5.172
25407WAT     H276464   9.252   7.200   5.054
25408WAT      O76465   9.246   0.105   6.366
25408WAT     H176466   9.317   0.044   6.403
25408WAT     H276467   9.172   0.113   6.432
25409WAT      O76468   5.452   5.522   0.248
25409WAT     H176469   5.446   5.573   0.162
25409WAT     H276470   5.530   5.555   0.301
25410WAT      O76471   6.911   8.991   8.165
25410WAT     H176472   6.840   9.002   8.095
25410WAT     H276473   6.912   8.896   8.197
25411WAT      O76474   6.968   6.895   0.834
25411WAT     H176475   6.998   6.875   0.741
25411WAT     H276476   7.046   6.888   0.897
25412WAT      O76477   9.858   4.646   1.703
25412WAT     H176478   9.761   4.644   1.728
25412WAT     H276479   9.868   4.617   1.608
25413WAT      O76480   6.133   8.305   2.738
25413WAT     H176481   6.050   8.252   2.722
25413WAT     H276482   6.202   8.279   2.670
25414WAT      O76483   7.171   0.810   7.711
25414WAT     H176484   7.098   0.810   7.779
25414WAT     H276485   7.148   0.873   7.637
25415WAT      O76486   9.814   2.134   1.929
25415WAT     H176487   9.778   2.194   1.857
25415WAT     H276488   9.892   2.178   1.973
25416WAT      O76489   2.369   0.131   9.249
25416WAT     H176490   2.335   0.057   9.192
25416WAT     H276491   2.468   0.121   9.261
25417WAT      O76492   8.708   4.259   5.964
25417WAT     H176493   8.807   4.272   5.969
25417WAT     H276494   8.686   4.161   5.964
25418WAT      O76495   7.859   3.560   0.153
25418WAT     H176496   7.786   3.493   0.141
25418WAT     H276497   7.821   3.652   0.145
25419WAT      O76498   0.024   1.398   9.012
25419WAT     H176499   0.069   1.318   8.974
25419WAT     H276500   0.058   1.480   8.967
25420WAT      O76501   0.907   8.371   0.798
25420WAT     H176502   0.855   8.453   0.824
25420WAT     H276503   0.925   8.374   0.700
25421WAT      O76504   1.998   3.962   8.315
25421WAT     H176505   2.028   4.011   8.397
25421WAT     H276506   1.898   3.956   8.315
25422WAT      O76507   1.902   4.102   9.053
25422WAT     H176508   1.829   4.049   9.097
25422WAT     H276509   1.947   4.045   8.984
25423WAT      O76510   7.555   0.589   8.825
25423WAT     H176511   7.520   0.680   8.803
25423WAT     H276512   7.562   0.535   8.741
25424WAT      O76513   3.935   8.074   7.240
25424WAT     H176514   4.010   8.009   7.251
25424WAT     H276515   3.874   8.041   7.168
25425WAT      O76516   1.008   4.711   1.475
25425WAT     H176517   0.969   4.627   1.514
25425WAT     H276518   1.094   4.732   1.520
25426WAT      O76519   1.943   0.215   6.439
25426WAT     H176520   1.852   0.240   6.471
25426WAT     H276521   2.012   0.255   6.500
25427WAT      O76522   4.599   0.204   1.223
25427WAT     H176523   4.633   0.147   1.298
25427WAT     H276524   4.513   0.246   1.249
25428WAT      O76525   3.848   0.880   3.755
25428WAT     H176526   3.799   0.793   3.745
25428WAT     H276527   3.939   0.872   3.714
25429WAT      O76528   2.641   4.102   1.253
25429WAT     H176529   2.659   4.080   1.348
25429WAT     H276530   2.710   4.166   1.219
25430WAT      O76531   2.299   4.144   1.278
25430WAT     H176532   2.365   4.218   1.272
25430WAT     H276533   2.315   4.078   1.204
25431WAT      O76534   1.040   2.319   5.089
25431WAT     H176535   1.057   2.253   5.163
25431WAT     H276536   1.123   2.326   5.033
25432WAT      O76537   3.277   3.821   0.341
25432WAT     H176538   3.337   3.798   0.265
25432WAT     H276539   3.212   3.892   0.312
25433WAT      O76540   8.012   7.571   7.090
25433WAT     H176541   8.031   7.669   7.090
25433WAT     H276542   8.068   7.527   7.019
25434WAT      O76543   9.285   9.763   9.434
25434WAT     H176544   9.244   9.677   9.465
25434WAT     H276545   9.283   9.767   9.334
25435WAT      O76546   4.099   7.738   1.705
25435WAT     H176547   4.008   7.776   1.689
25435WAT     H276548   4.158   7.808   1.746
25436WAT      O76549   9.107   5.418   5.593
25436WAT     H176550   9.153   5.405   5.505
25436WAT     H276551   9.027   5.358   5.597
25437WAT      O76552   3.611   7.985   9.867
25437WAT     H176553   3.575   7.992   9.960
25437WAT     H276554   3.564   8.050   9.808
25438WAT      O76555   7.103   5.915   4.022
25438WAT     H176556   7.010   5.945   4.042
25438WAT     H276557   7.146   5.880   4.105
25439WAT      O76558   7.411   8.891   5.858
25439WAT     H176559   7.430   8.953   5.935
25439WAT     H276560   7.334   8.926   5.805
25440WAT      O76561   3.245   4.662   4.739
25440WAT     H176562   3.307   4.728   4.697
25440WAT     H276563   3.270   4.569   4.710
25441WAT      O76564   6.262   7.275   3.523
25441WAT     H176565   6.283   7.350   3.586
25441WAT     H276566   6.257   7.310   3.429
25442WAT      O76567   6.840   4.287   2.724
25442WAT     H176568   6.796   4.255   2.640
25442WAT     H276569   6.914   4.224   2.749
25443WAT      O76570   4.282   3.221   4.560
25443WAT     H176571   4.219   3.168   4.503
25443WAT     H276572   4.374   3.215   4.523
25444WAT      O76573   8.685   5.325   0.552
25444WAT     H176574   8.760   5.349   0.491
25444WAT     H276575   8.606   5.294   0.499
25445WAT      O76576   8.888   7.405   3.309
25445WAT     H176577   8.907   7.433   3.403
25445WAT     H276578   8.953   7.448   3.247
25446WAT      O76579   6.628   0.834   3.006
25446WAT     H176580   6.628   0.811   2.908
25446WAT     H276581   6.540   0.876   3.030
25447WAT      O76582   7.309   8.973   1.995
25447WAT     H176583   7.348   8.897   1.943
25447WAT     H276584   7.283   8.942   2.086
25448WAT      O76585   8.622   1.675   0.729
25448WAT     H176586   8.534   1.722   0.737
25448WAT     H276587   8.685   1.712   0.797
25449WAT      O76588   5.770   8.342   1.301
25449WAT     H176589   5.845   8.294   1.347
25449WAT     H276590   5.804   8.382   1.216
25450WAT      O76591   3.645   4.601   8.488
25450WAT     H176592   3.584   4.680   8.489
25450WAT     H276593   3.617   4.538   8.561
25451WAT      O76594   1.647   2.440   2.706
25451WAT     H176595   1.625   2.537   2.706
25451WAT     H276596   1.737   2.426   2.746
25452WAT      O76597   8.471   3.352   0.293
25452WAT     H176598   8.422   3.420   0.239
25452WAT     H276599   8.563   3.339   0.256
25453WAT      O76600   6.039   7.034   0.131
25453WAT     H176601   5.977   6.992   0.065
25453WAT     H276602   6.126   7.056   0.086
25454WAT      O76603   4.180   1.778   2.287
25454WAT     H176604   4.164   1.873   2.315
25454WAT     H276605   4.127   1.758   2.205
25455WAT      O76606   9.220   4.676   8.521
25455WAT     H176607   9.213   4.578   8.504
25455WAT     H276608   9.209   4.694   8.619
25456WAT      O76609   1.861   7.132   1.683
25456WAT     H176610   1.827   7.060   1.743
25456WAT     H276611   1.840   7.108   1.588
25457WAT      O76612   4.847   2.856   6.485
25457WAT     H176613   4.883   2.949   6.491
25457WAT     H276614   4.822   2.823   6.576
25458WAT      O76615   8.051   0.464   1.525
25458WAT     H176616   8.044   0.524   1.604
25458WAT     H276617   7.964   0.465   1.474
25459WAT      O76618   4.939   9.217   3.938
25459WAT     H176619   4.994   9.134   3.938
25459WAT     H276620   4.854   9.201   3.987
25460WAT      O76621   2.420   7.842   4.107
25460WAT     H176622   2.451   7.801   4.022
25460WAT     H276623   2.381   7.933   4.088
25461WAT      O76624   9.263   8.525   3.312
25461WAT     H176625   9.202   8.449   3.290
25461WAT     H276626   9.337   8.492   3.371
25462WAT      O76627   2.123   8.396   9.450
25462WAT     H176628   2.218   8.367   9.443
25462WAT     H276629   2.068   8.321   9.488
25463WAT      O76630   7.408   9.233   0.284
25463WAT     H176631   7.401   9.276   0.194
25463WAT     H276632   7.483   9.166   0.284
25464WAT      O76633   3.037   4.707   5.692
25464WAT     H176634   2.956   4.725   5.636
25464WAT     H276635   3.096   4.788   5.691
25465WAT      O76636   1.062   7.389   8.702
25465WAT     H176637   1.039   7.296   8.672
25465WAT     H276638   1.153   7.390   8.742
25466WAT      O76639   3.565   1.896   7.071
25466WAT     H176640   3.618   1.813   7.050
25466WAT     H276641   3.597   1.971   7.012
25467WAT      O76642   6.092   2.031   4.556
25467WAT     H176643   6.156   2.024   4.633
25467WAT     H276644   6.041   1.945   4.548
25468WAT      O76645   7.456   8.853   3.852
25468WAT     H176646   7.425   8.930   3.909
25468WAT     H276647   7.528   8.803   3.900
25469WAT      O76648   4.497   0.161   2.976
25469WAT     H176649   4.409   0.156   3.024
25469WAT     H276650   4.513   0.254   2.945
25470WAT      O76651   3.566   0.470   3.737
25470WAT     H176652   3.576   0.498   3.832
25470WAT     H276653   3.494   0.401   3.730
25471WAT      O76654   0.376   9.549   8.663
25471WAT     H176655   0.374   9.630   8.721
25471WAT     H276656   0.329   9.568   8.577
25472WAT      O76657   0.635   7.735   3.614
25472WAT     H176658   0.572   7.730   3.536
25472WAT     H276659   0.715   7.789   3.588
25473WAT      O76660   9.393   6.762   6.775
25473WAT     H176661   9.364   6.667   6.767
25473WAT     H276662   9.397   6.788   6.871
25474WAT      O76663   5.217   0.622   7.779
25474WAT     H176664   5.184   0.697   7.836
25474WAT     H276665   5.173   0.537   7.807
25475WAT      O76666   1.199   1.727   3.315
25475WAT     H176667   1.270   1.796   3.300
25475WAT     H276668   1.130   1.764   3.377
25476WAT      O76669   7.308   1.029   7.020
25476WAT     H176670   7.398   0.991   7.038
25476WAT     H276671   7.239   0.957   7.032
25477WAT      O76672   5.372   6.792   5.877
25477WAT     H176673   5.383   6.751   5.968
25477WAT     H276674   5.462   6.797   5.833
25478WAT      O76675   8.724   2.232   8.960
25478WAT     H176676   8.667   2.158   8.995
25478WAT     H276677   8.735   2.302   9.031
25479WAT      O76678   7.427   3.300   4.568
25479WAT     H176679   7.414   3.381   4.625
25479WAT     H276680   7.524   3.289   4.546
25480WAT      O76681   8.032   7.040   2.131
25480WAT     H176682   7.984   6.959   2.165
25480WAT     H276683   8.131   7.022   2.129
25481WAT      O76684   2.209   1.150   7.737
25481WAT     H176685   2.289   1.203   7.764
25481WAT     H276686   2.148   1.207   7.681
25482WAT      O76687   2.050   5.754   2.600
25482WAT     H176688   1.978   5.688   2.580
25482WAT     H276689   2.020   5.816   2.672
25483WAT      O76690   3.158   6.073   0.468
25483WAT     H176691   3.172   6.128   0.386
25483WAT     H276692   3.060   6.054   0.480
25484WAT      O76693   5.518   4.499   0.587
25484WAT     H176694   5.478   4.453   0.508
25484WAT     H276695   5.551   4.590   0.559
25485WAT      O76696   8.200   2.784   8.066
25485WAT     H176697   8.296   2.802   8.087
25485WAT     H276698   8.153   2.871   8.050
25486WAT      O76699   6.712   0.534   9.011
25486WAT     H176700   6.643   0.598   9.043
25486WAT     H276701   6.667   0.459   8.962
25487WAT      O76702   8.867   2.339   0.996
25487WAT     H176703   8.956   2.297   1.014
25487WAT     H276704   8.803   2.314   1.068
25488WAT      O76705   3.920   3.349   6.337
25488WAT     H176706   3.828   3.356   6.375
25488WAT     H276707   3.960   3.441   6.331
25489WAT      O76708   9.340   0.326   3.101
25489WAT     H176709   9.308   0.239   3.138
25489WAT     H276710   9.433   0.316   3.065
25490WAT      O76711   1.125   1.719   6.633
25490WAT     H176712   1.119   1.814   6.662
25490WAT     H276713   1.200   1.674   6.680
25491WAT      O76714   4.520   8.499   3.784
25491WAT     H176715   4.497   8.458   3.696
25491WAT     H276716   4.506   8.598   3.779
25492WAT      O76717   7.582   9.749   7.643
25492WAT     H176718   7.547   9.707   7.560
25492WAT     H276719   7.523   9.726   7.720
25493WAT      O76720   1.748   3.936   5.803
25493WAT     H176721   1.738   3.967   5.898
25493WAT     H276722   1.713   4.007   5.742
25494WAT      O76723   9.507   2.560   4.645
25494WAT     H176724   9.481   2.517   4.559
25494WAT     H276725   9.579   2.506   4.689
25495WAT      O76726   3.354   0.111   0.705
25495WAT     H176727   3.355   0.186   0.772
25495WAT     H276728   3.287   0.043   0.732
25496WAT      O76729   2.262   6.968   5.627
25496WAT     H176730   2.223   7.060   5.632
25496WAT     H276731   2.355   6.968   5.664
25497WAT      O76732   4.922   4.732   5.499
25497WAT     H176733   4.963   4.730   5.408
25497WAT     H276734   4.915   4.639   5.535
25498WAT      O76735   2.150   1.731   9.625
25498WAT     H176736   2.102   1.650   9.658
25498WAT     H276737   2.120   1.811   9.677
25499WAT      O76738   9.006   0.811   4.787
25499WAT     H176739   9.081   0.799   4.723
25499WAT     H276740   8.921   0.828   4.736
25500WAT      O76741   6.242   0.257   5.192
25500WAT     H176742   6.261   0.270   5.290
25500WAT     H276743   6.300   0.319   5.139
25501WAT      O76744   8.923   1.185   9.865
25501WAT     H176745   9.011   1.169   9.912
25501WAT     H276746   8.936   1.175   9.767
25502WAT      O76747   9.570   0.047   6.186
25502WAT     H176748   9.506   0.031   6.261
25502WAT     H276749   9.656  -0.000   6.204
25503WAT      O76750   6.729   5.738   7.490
25503WAT     H176751   6.767   5.653   7.453
25503WAT     H276752   6.643   5.718   7.538
25504WAT      O76753   6.979   3.404   0.723
25504WAT     H176754   7.020   3.321   0.686
25504WAT     H276755   6.895   3.380   0.773
25505WAT      O76756   2.808   5.640   3.260
25505WAT     H176757   2.850   5.619   3.172
25505WAT     H276758   2.855   5.718   3.302
25506WAT      O76759   8.129   7.022   8.830
25506WAT     H176760   8.206   6.985   8.778
25506WAT     H276761   8.127   7.121   8.820
25507WAT      O76762   3.622   2.494   1.946
25507WAT     H176763   3.664   2.439   2.018
25507WAT     H276764   3.671   2.580   1.937
25508WAT      O76765   7.571   4.238   9.106
25508WAT     H176766   7.569   4.279   9.197
25508WAT     H276767   7.559   4.309   9.037
25509WAT      O76768   3.830   0.796   0.666
25509WAT     H176769   3.757   0.832   0.724
25509WAT     H276770   3.848   0.701   0.690
25510WAT      O76771   6.183   7.249   3.023
25510WAT     H176772   6.100   7.195   3.009
25510WAT     H276773   6.205   7.298   2.939
25511WAT      O76774   0.986   5.174   4.525
25511WAT     H176775   0.920   5.219   4.585
25511WAT     H276776   1.047   5.243   4.487
25512WAT      O76777   6.842   4.453   5.132
25512WAT     H176778   6.896   4.533   5.103
25512WAT     H276779   6.899   4.393   5.188
25513WAT      O76780   4.336   8.901   2.614
25513WAT     H176781   4.343   8.835   2.539
25513WAT     H276782   4.424   8.947   2.626
25514WAT      O76783   1.013   5.284   4.020
25514WAT     H176784   1.039   5.194   3.986
25514WAT     H276785   0.922   5.280   4.061
25515WAT      O76786   0.618   7.096   3.413
25515WAT     H176787   0.629   7.012   3.466
25515WAT     H276788   0.700   7.153   3.423
25516WAT      O76789   2.648   2.009   4.610
25516WAT     H176790   2.619   1.994   4.515
25516WAT     H276791   2.572   2.044   4.664
25517WAT      O76792   1.244   3.625   9.738
25517WAT     H176793   1.206   3.549   9.686
25517WAT     H276794   1.320   3.592   9.794
25518WAT      O76795   7.060   9.460   5.274
25518WAT     H176796   7.122   9.425   5.344
25518WAT     H276797   6.975   9.490   5.317
25519WAT      O76798   2.945   3.041   4.199
25519WAT     H176799   2.990   2.952   4.204
25519WAT     H276800   2.991   3.105   4.260
25520WAT      O76801   6.102   7.734   3.836
25520WAT     H176802   6.153   7.804   3.886
25520WAT     H276803   6.088   7.764   3.741
25521WAT      O76804   9.173   3.486   2.557
25521WAT     H176805   9.201   3.517   2.648
25521WAT     H276806   9.073   3.488   2.551
25522WAT      O76807   0.059   9.247   6.684
25522WAT     H176808   0.067   9.230   6.586
25522WAT     H276809   0.111   9.329   6.708
25523WAT      O76810   3.935   7.637   1.987
25523WAT     H176811   3.967   7.574   1.915
25523WAT     H276812   3.838   7.657   1.973
25524WAT      O76813   5.431   9.080   8.774
25524WAT     H176814   5.374   9.001   8.794
25524WAT     H276815   5.480   9.107   8.857
25525WAT      O76816   6.292   1.911   3.246
25525WAT     H176817   6.314   1.934   3.151
25525WAT     H276818   6.221   1.840   3.247
25526WAT      O76819   6.960   1.071   2.105
25526WAT     H176820   6.945   1.152   2.048
25526WAT     H276821   7.055   1.071   2.138
25527WAT      O76822   1.935   5.900   6.822
25527WAT     H176823   1.852   5.930   6.869
25527WAT     H276824   1.912   5.826   6.759
25528WAT      O76825   5.718   8.610   9.854
25528WAT     H176826   5.810   8.619   9.815
25528WAT     H276827   5.680   8.701   9.872
25529WAT      O76828   4.604   0.655   4.224
25529WAT     H176829   4.595   0.744   4.268
25529WAT     H276830   4.660   0.663   4.142
25530WAT      O76831   4.694   0.500   8.201
25530WAT     H176832   4.702   0.404   8.228
25530WAT     H276833   4.693   0.557   8.283
25531WAT      O76834   4.363   7.917   5.153
25531WAT     H176835   4.397   7.860   5.078
25531WAT     H276836   4.373   7.867   5.240
25532WAT      O76837   7.891   3.086   4.062
25532WAT     H176838   7.930   3.158   4.119
25532WAT     H276839   7.855   3.127   3.978
25533WAT      O76840   4.621   5.057   5.627
25533WAT     H176841   4.599   5.127   5.559
25533WAT     H276842   4.634   4.969   5.580
25534WAT      O76843   4.364   7.580   9.403
25534WAT     H176844   4.269   7.598   9.377
25534WAT     H276845   4.386   7.633   9.485
25535WAT      O76846   5.443   5.403   8.165
25535WAT     H176847   5.486   5.484   8.125
25535WAT     H276848   5.511   5.353   8.219
25536WAT      O76849   1.218   8.740   5.094
25536WAT     H176850   1.168   8.808   5.040
25536WAT     H276851   1.294   8.703   5.040
25537WAT      O76852   0.538   9.694   1.243
25537WAT     H176853   0.448   9.735   1.251
25537WAT     H276854   0.576   9.713   1.152
25538WAT      O76855   0.275   9.002   0.770
25538WAT     H176856   0.335   8.923   0.776
25538WAT     H276857   0.211   8.990   0.693
25539WAT      O76858   3.448   2.621   5.257
25539WAT     H176859   3.458   2.543   5.195
25539WAT     H276860   3.524   2.684   5.243
25540WAT      O76861   2.601   7.557   6.118
25540WAT     H176862   2.575   7.581   6.212
25540WAT     H276863   2.624   7.459   6.115
25541WAT      O76864   9.207   9.118   7.685
25541WAT     H176865   9.130   9.145   7.628
25541WAT     H276866   9.192   9.025   7.719
25542WAT      O76867   9.279   9.202   2.046
25542WAT     H176868   9.184   9.170   2.044
25542WAT     H276869   9.302   9.244   1.958
25543WAT      O76870   2.651   7.826   7.566
25543WAT     H176871   2.635   7.902   7.630
25543WAT     H276872   2.727   7.849   7.506
25544WAT      O76873   8.291   3.661   1.702
25544WAT     H176874   8.363   3.648   1.634
25544WAT     H276875   8.330   3.697   1.786
25545WAT      O76876   1.350   2.588   5.296
25545WAT     H176877   1.435   2.637   5.317
25545WAT     H276878   1.293   2.643   5.235
25546WAT      O76879   0.531   6.091   9.036
25546WAT     H176880   0.479   6.120   9.117
25546WAT     H276881   0.629   6.093   9.056
25547WAT      O76882   0.371   3.743   0.978
25547WAT     H176883   0.330   3.769   1.065
25547WAT     H276884   0.464   3.779   0.973
25548WAT      O76885   9.757   6.711   8.994
25548WAT     H176886   9.755   6.775   9.070
25548WAT     H276887   9.722   6.756   8.912
25549WAT      O76888   8.617   2.081   4.141
25549WAT     H176889   8.608   2.034   4.053
25549WAT     H276890   8.531   2.074   4.191
25550WAT      O76891   3.968   8.815   5.206
25550WAT     H176892   4.028   8.840   5.281
25550WAT     H276893   3.968   8.715   5.194
25551WAT      O76894   0.412   0.231   0.163
25551WAT     H176895   0.417   0.305   0.096
25551WAT     H276896   0.468   0.255   0.242
25552WAT      O76897   4.048   1.998   7.485
25552WAT     H176898   4.084   2.056   7.558
25552WAT     H276899   3.966   2.040   7.446
25553WAT      O76900   2.712   1.438   1.301
25553WAT     H176901   2.808   1.419   1.280
25553WAT     H276902   2.707   1.501   1.379
25554WAT      O76903   7.253   3.334   6.391
25554WAT     H176904   7.198   3.256   6.420
25554WAT     H276905   7.349   3.307   6.385
25555WAT      O76906   6.232   8.897   5.858
25555WAT     H176907   6.173   8.835   5.808
25555WAT     H276908   6.185   8.985   5.870
25556WAT      O76909   1.468   6.310   2.225
25556WAT     H176910   1.445   6.354   2.312
25556WAT     H276911   1.567   6.311   2.212
25557WAT      O76912   4.522   0.352   8.452
25557WAT     H176913   4.464   0.352   8.370
25557WAT     H276914   4.464   0.350   8.533
25558WAT      O76915   8.664   4.190   7.082
25558WAT     H176916   8.752   4.228   7.110
25558WAT     H276917   8.627   4.134   7.156
25559WAT      O76918   0.095   8.867   6.992
25559WAT     H176919   0.100   8.859   6.892
25559WAT     H276920   0.103   8.776   7.033
25560WAT      O76921   1.906   6.717   8.255
25560WAT     H176922   1.874   6.633   8.210
25560WAT     H276923   1.920   6.788   8.187
25561WAT      O76924   4.976   0.397   2.225
25561WAT     H176925   5.009   0.303   2.221
25561WAT     H276926   4.913   0.407   2.302
25562WAT      O76927   2.520   7.658   7.905
25562WAT     H176928   2.526   7.571   7.857
25562WAT     H276929   2.446   7.713   7.864
25563WAT      O76930   3.345   0.061   3.293
25563WAT     H176931   3.403   0.017   3.225
25563WAT     H276932   3.358   0.017   3.382
25564WAT      O76933   5.537   0.958   5.253
25564WAT     H176934   5.525   0.954   5.352
25564WAT     H276935   5.527   0.866   5.215
25565WAT      O76936   3.985   3.784   4.437
25565WAT     H176937   3.982   3.849   4.513
25565WAT     H276938   4.008   3.833   4.353
25566WAT      O76939   0.372   8.334   9.460
25566WAT     H176940   0.405   8.384   9.540
25566WAT     H276941   0.437   8.346   9.384
25567WAT      O76942   5.170   1.131   2.239
25567WAT     H176943   5.126   1.221   2.232
25567WAT     H276944   5.234   1.131   2.316
25568WAT      O76945   9.794   3.189   4.655
25568WAT     H176946   9.812   3.287   4.666
25568WAT     H276947   9.723   3.176   4.586
25569WAT      O76948   6.865   5.390   0.641
25569WAT     H176949   6.822   5.480   0.654
25569WAT     H276950   6.818   5.341   0.567
25570WAT      O76951   7.481   5.895   8.309
25570WAT     H176952   7.441   5.978   8.270
25570WAT     H276953   7.531   5.846   8.239
25571WAT      O76954   5.323   1.495   9.616
25571WAT     H176955   5.376   1.499   9.701
25571WAT     H276956   5.232   1.458   9.636
25572WAT      O76957   3.850   1.182   9.032
25572WAT     H176958   3.913   1.111   9.061
25572WAT     H276959   3.770   1.182   9.092
25573WAT      O76960   7.827   4.504   6.177
25573WAT     H176961   7.764   4.493   6.254
25573WAT     H276962   7.914   4.541   6.210
25574WAT      O76963   6.750   8.318   1.777
25574WAT     H176964   6.728   8.299   1.873
25574WAT     H276965   6.846   8.342   1.768
25575WAT      O76966   6.990   2.056   2.625
25575WAT     H176967   6.988   2.156   2.627
25575WAT     H276968   6.932   2.022   2.550
25576WAT      O76969   0.301   1.420   5.035
25576WAT     H176970   0.290   1.492   5.103
25576WAT     H276971   0.365   1.351   5.069
25577WAT      O76972   8.201   9.492   9.078
25577WAT     H176973   8.234   9.538   8.996
25577WAT     H276974   8.203   9.556   9.155
25578WAT      O76975   5.640   6.122   0.762
25578WAT     H176976   5.708   6.073   0.818
25578WAT     H276977   5.550   6.081   0.777
25579WAT      O76978   3.860   6.453   3.804
25579WAT     H176979   3.835   6.501   3.888
25579WAT     H276980   3.785   6.393   3.776
25580WAT      O76981   3.308   2.251   7.976
25580WAT     H176982   3.407   2.241   7.975
25580WAT     H276983   3.277   2.286   7.888
25581WAT      O76984   6.357   9.566   9.120
25581WAT     H176985   6.391   9.645   9.070
25581WAT     H276986   6.391   9.569   9.214
25582WAT      O76987   3.571   9.568   0.150
25582WAT     H176988   3.656   9.524   0.176
25582WAT     H276989   3.546   9.540   0.057
25583WAT      O76990   3.331   4.699   7.486
25583WAT     H176991   3.414   4.741   7.522
25583WAT     H276992   3.308   4.618   7.540
25584WAT      O76993   3.496   9.673   4.920
25584WAT     H176994   3.575   9.711   4.872
25584WAT     H276995   3.517   9.579   4.949
25585WAT      O76996   9.879   6.816   2.636
25585WAT     H176997   9.965   6.776   2.603
25585WAT     H276998   9.872   6.805   2.735
25586WAT      O76999   8.625   0.682   7.647
25586WAT     H177000   8.614   0.597   7.698
25586WAT     H277001   8.534   0.720   7.626
25587WAT      O77002   4.291   3.021   0.072
25587WAT     H177003   4.226   2.948   0.094
25587WAT     H277004   4.323   3.065   0.156
25588WAT      O77005   1.487   5.343   6.483
25588WAT     H177006   1.580   5.369   6.509
25588WAT     H277007   1.490   5.283   6.403
25589WAT      O77008   8.463   8.290   4.358
25589WAT     H177009   8.460   8.221   4.286
25589WAT     H277010   8.525   8.364   4.331
25590WAT      O77011   7.426   5.391   1.762
25590WAT     H177012   7.400   5.466   1.702
25590WAT     H277013   7.398   5.411   1.856
25591WAT      O77014   8.595   5.185   9.553
25591WAT     H177015   8.599   5.087   9.575
25591WAT     H277016   8.671   5.232   9.599
25592WAT      O77017   2.316   9.486   9.490
25592WAT     H177018   2.382   9.527   9.554
25592WAT     H277019   2.292   9.394   9.522
25593WAT      O77020   6.311   2.095   6.378
25593WAT     H177021   6.366   2.173   6.405
25593WAT     H277022   6.311   2.026   6.451
25594WAT      O77023   6.996   3.411   2.544
25594WAT     H177024   7.059   3.344   2.504
25594WAT     H277025   6.941   3.367   2.614
25595WAT      O77026   4.733   5.561   3.369
25595WAT     H177027   4.820   5.611   3.375
25595WAT     H277028   4.746   5.468   3.402
25596WAT      O77029   0.078   7.217   5.507
25596WAT     H177030   0.070   7.314   5.481
25596WAT     H277031   0.103   7.211   5.604
25597WAT      O77032   1.059   9.652   1.291
25597WAT     H177033   1.062   9.614   1.198
25597WAT     H277034   1.152   9.661   1.326
25598WAT      O77035   5.439   6.670   6.117
25598WAT     H177036   5.485   6.751   6.154
25598WAT     H277037   5.368   6.640   6.180
25599WAT      O77038   9.520   7.618   9.825
25599WAT     H177039   9.452   7.549   9.850
25599WAT     H277040   9.491   7.665   9.741
25600WAT      O77041   8.371   1.614   5.637
25600WAT     H177042   8.317   1.548   5.586
25600WAT     H277043   8.315   1.694   5.658
25601WAT      O77044   5.074   0.449   5.642
25601WAT     H177045   5.153   0.468   5.699
25601WAT     H277046   4.990   0.455   5.697
25602WAT      O77047   2.994   8.022   6.263
25602WAT     H177048   3.061   8.058   6.329
25602WAT     H277049   2.917   8.085   6.256
25603WAT      O77050   8.174   8.655   8.570
25603WAT     H177051   8.123   8.645   8.655
25603WAT     H277052   8.210   8.749   8.564
25604WAT      O77053   2.538   6.555   6.092
25604WAT     H177054   2.604   6.515   6.156
25604WAT     H277055   2.545   6.655   6.096
25605WAT      O77056   1.031   7.689   8.344
25605WAT     H177057   1.061   7.729   8.431
25605WAT     H277058   1.096   7.713   8.272
25606WAT      O77059   1.710   5.191   1.613
25606WAT     H177060   1.627   5.146   1.646
25606WAT     H277061   1.790   5.136   1.636
25607WAT      O77062   1.744   1.180   0.555
25607WAT     H177063   1.745   1.087   0.518
25607WAT     H277064   1.670   1.232   0.513
25608WAT      O77065   4.239   1.952   5.101
25608WAT     H177066   4.205   1.989   5.188
25608WAT     H277067   4.273   2.026   5.044
25609WAT      O77068   3.022   7.170   4.840
25609WAT     H177069   2.928   7.150   4.815
25609WAT     H277070   3.058   7.242   4.781
25610WAT      O77071   0.411   5.578   3.156
25610WAT     H177072   0.375   5.494   3.198
25610WAT     H277073   0.347   5.653   3.173
25611WAT      O77074   5.174   7.737   6.941
25611WAT     H177075   5.090   7.767   6.985
25611WAT     H277076   5.253   7.772   6.992
25612WAT      O77077   2.753   2.511   9.049
25612WAT     H177078   2.697   2.527   9.131
25612WAT     H277079   2.699   2.535   8.967
25613WAT      O77080   9.109   7.479   1.881
25613WAT     H177081   9.069   7.513   1.796
25613WAT     H277082   9.109   7.379   1.880
25614WAT      O77083   3.416   1.380   2.405
25614WAT     H177084   3.486   1.375   2.476
25614WAT     H277085   3.413   1.473   2.366
25615WAT      O77086   2.632   1.673   5.689
25615WAT     H177087   2.598   1.711   5.775
25615WAT     H277088   2.720   1.628   5.705
25616WAT      O77089   4.097   6.196   8.123
25616WAT     H177090   4.042   6.175   8.041
25616WAT     H277091   4.036   6.216   8.199
25617WAT      O77092   3.190   4.653   2.846
25617WAT     H177093   3.141   4.591   2.907
25617WAT     H277094   3.196   4.743   2.888
25618WAT      O77095   7.436   7.958   5.878
25618WAT     H177096   7.487   7.875   5.858
25618WAT     H277097   7.497   8.037   5.871
25619WAT      O77098   1.609   8.311   2.428
25619WAT     H177099   1.512   8.324   2.410
25619WAT     H277100   1.626   8.314   2.527
25620WAT      O77101   7.060   7.517   9.162
25620WAT     H177102   7.110   7.571   9.093
25620WAT     H277103   6.966   7.550   9.168
25621WAT      O77104   8.431   7.268   8.795
25621WAT     H177105   8.448   7.185   8.742
25621WAT     H277106   8.334   7.293   8.787
25622WAT      O77107   6.225   0.713   0.717
25622WAT     H177108   6.228   0.690   0.814
25622WAT     H277109   6.268   0.640   0.664
25623WAT      O77110   7.495   5.633   0.210
25623WAT     H177111   7.452   5.638   0.300
25623WAT     H277112   7.562   5.559   0.209
25624WAT      O77113   7.597   1.796   4.302
25624WAT     H177114   7.607   1.896   4.295
25624WAT     H277115   7.559   1.760   4.217
25625WAT      O77116   4.670   6.026   2.254
25625WAT     H177117   4.654   6.112   2.301
25625WAT     H277118   4.768   6.014   2.238
25626WAT      O77119   8.120   7.088   0.449
25626WAT     H177120   8.067   7.162   0.490
25626WAT     H277121   8.061   7.009   0.434
25627WAT      O77122   3.892   6.080   8.965
25627WAT     H177123   3.952   6.015   9.012
25627WAT     H277124   3.844   6.032   8.891
25628WAT      O77125   9.196   8.872   0.148
25628WAT     H177126   9.191   8.773   0.135
25628WAT     H277127   9.120   8.902   0.204
25629WAT      O77128   2.144   6.479   7.988
25629WAT     H177129   2.099   6.564   7.958
25629WAT     H277130   2.227   6.501   8.039
25630WAT      O77131   1.868   1.394   0.423
25630WAT     H177132   1.957   1.377   0.379
25630WAT     H277133   1.839   1.312   0.472
25631WAT      O77134   6.297   9.124   2.127
25631WAT     H177135   6.336   9.157   2.212
25631WAT     H277136   6.369   9.081   2.072
25632WAT      O77137   5.231   3.751   9.343
25632WAT     H177138   5.146   3.700   9.329
25632WAT     H277139   5.309   3.688   9.341
25633WAT      O77140   6.947   9.147   3.421
25633WAT     H177141   6.885   9.203   3.476
25633WAT     H277142   7.038   9.146   3.464
25634WAT      O77143   3.863   8.195   0.121
25634WAT     H177144   3.924   8.264   0.159
25634WAT     H277145   3.773   8.202   0.164
25635WAT      O77146   9.865   5.098   7.282
25635WAT     H177147   9.963   5.114   7.289
25635WAT     H277148   9.823   5.107   7.373
25636WAT      O77149   8.792   9.286   9.287
25636WAT     H177150   8.721   9.329   9.231
25636WAT     H277151   8.795   9.330   9.377
25637WAT      O77152   1.163   6.516   8.339
25637WAT     H177153   1.236   6.578   8.308
25637WAT     H277154   1.180   6.492   8.435
25638WAT      O77155   8.309   1.878   3.464
25638WAT     H177156   8.252   1.819   3.407
25638WAT     H277157   8.383   1.917   3.408
25639WAT      O77158   1.947   6.500   4.227
25639WAT     H177159   2.025   6.444   4.255
25639WAT     H277160   1.954   6.519   4.129
25640WAT      O77161   3.284   1.497   1.208
25640WAT     H177162   3.269   1.478   1.111
25640WAT     H277163   3.382   1.505   1.227
25641WAT      O77164   0.841   0.710   7.884
25641WAT     H177165   0.784   0.738   7.961
25641WAT     H277166   0.786   0.658   7.819
25642WAT      O77167   3.172   7.378   0.405
25642WAT     H177168   3.209   7.460   0.361
25642WAT     H277169   3.103   7.405   0.473
25643WAT      O77170   1.421   0.615   8.288
25643WAT     H177171   1.326   0.591   8.303
25643WAT     H277172   1.448   0.687   8.352
25644WAT      O77173   4.738   1.209   8.858
25644WAT     H177174   4.748   1.168   8.948
25644WAT     H277175   4.650   1.182   8.819
25645WAT      O77176   4.517   0.832   8.486
25645WAT     H177177   4.538   0.929   8.491
25645WAT     H277178   4.437   0.818   8.427
25646WAT      O77179   6.173   5.753   9.054
25646WAT     H177180   6.205   5.735   9.148
25646WAT     H277181   6.075   5.769   9.055
25647WAT      O77182   5.136   5.333   4.834
25647WAT     H177183   5.074   5.254   4.838
25647WAT     H277184   5.131   5.384   4.919
25648WAT      O77185   9.307   2.918   5.884
25648WAT     H177186   9.241   2.869   5.941
25648WAT     H277187   9.399   2.905   5.920
25649WAT      O77188   0.385   1.625   6.864
25649WAT     H177189   0.476   1.595   6.894
25649WAT     H277190   0.386   1.640   6.765
25650WAT      O77191   7.055   2.225   5.081
25650WAT     H177192   7.034   2.138   5.038
25650WAT     H277193   7.110   2.281   5.019
25651WAT      O77194   3.290   0.687   3.059
25651WAT     H177195   3.233   0.606   3.070
25651WAT     H277196   3.235   0.761   3.021
25652WAT      O77197   8.536   6.021   0.769
25652WAT     H177198   8.460   5.970   0.729
25652WAT     H277199   8.603   6.043   0.698
25653WAT      O77200   3.239   3.276   9.041
25653WAT     H177201   3.197   3.367   9.043
25653WAT     H277202   3.189   3.217   8.979
25654WAT      O77203   9.834   2.651   5.385
25654WAT     H177204   9.836   2.609   5.294
25654WAT     H277205   9.745   2.635   5.427
25655WAT      O77206   3.481   2.511   4.490
25655WAT     H177207   3.548   2.528   4.418
25655WAT     H277208   3.486   2.414   4.517
25656WAT      O77209   2.329   1.036   9.191
25656WAT     H177210   2.359   1.117   9.241
25656WAT     H277211   2.257   1.062   9.126
25657WAT      O77212   6.644   0.944   2.402
25657WAT     H177213   6.741   0.946   2.422
25657WAT     H277214   6.610   1.038   2.390
25658WAT      O77215   2.460   4.680   1.438
25658WAT     H177216   2.484   4.586   1.461
25658WAT     H277217   2.465   4.693   1.339
25659WAT      O77218   4.740   4.901   9.741
25659WAT     H177219   4.723   4.940   9.650
25659WAT     H277220   4.656   4.905   9.794
25660WAT      O77221   6.573   9.314   9.330
25660WAT     H177222   6.525   9.392   9.370
25660WAT     H277223   6.589   9.244   9.400
25661WAT      O77224   7.802   6.358   6.323
25661WAT     H177225   7.750   6.411   6.256
25661WAT     H277226   7.865   6.296   6.275
25662WAT      O77227   2.752   7.625   6.444
25662WAT     H177228   2.842   7.622   6.487
25662WAT     H277229   2.692   7.685   6.497
25663WAT      O77230   7.427   3.901   3.512
25663WAT     H177231   7.515   3.943   3.488
25663WAT     H277232   7.443   3.813   3.557
25664WAT      O77233   2.544   2.298   7.666
25664WAT     H177234   2.547   2.294   7.766
25664WAT     H277235   2.565   2.207   7.629
25665WAT      O77236   5.318   2.658   8.071
25665WAT     H177237   5.227   2.695   8.093
25665WAT     H277238   5.386   2.731   8.080
25666WAT      O77239   2.297   0.858   1.741
25666WAT     H177240   2.362   0.876   1.815
25666WAT     H277241   2.216   0.914   1.753
25667WAT      O77242   6.189   0.516   4.882
25667WAT     H177243   6.129   0.450   4.837
25667WAT     H277244   6.270   0.531   4.826
25668WAT      O77245   0.823   5.811   0.745
25668WAT     H177246   0.795   5.886   0.685
25668WAT     H277247   0.907   5.770   0.709
25669WAT      O77248   4.713   9.092   9.755
25669WAT     H177249   4.785   9.043   9.706
25669WAT     H277250   4.624   9.050   9.735
25670WAT      O77251   2.227   8.184   6.754
25670WAT     H177252   2.273   8.269   6.780
25670WAT     H277253   2.230   8.175   6.654
25671WAT      O77254   5.804   2.264   4.774
25671WAT     H177255   5.839   2.233   4.686
25671WAT     H277256   5.853   2.347   4.803
25672WAT      O77257   5.303   7.608   7.393
25672WAT     H177258   5.359   7.690   7.399
25672WAT     H277259   5.358   7.528   7.418
25673WAT      O77260   2.328   8.522   8.798
25673WAT     H177261   2.290   8.523   8.890
25673WAT     H277262   2.368   8.432   8.779
25674WAT      O77263   1.557   9.596   5.634
25674WAT     H177264   1.467   9.573   5.599
25674WAT     H277265   1.549   9.636   5.725
25675WAT      O77266   0.720   9.350   1.978
25675WAT     H177267   0.749   9.438   1.939
25675WAT     H277268   0.800   9.300   2.009
25676WAT      O77269   8.345   7.795   0.911
25676WAT     H177270   8.346   7.774   0.813
25676WAT     H277271   8.270   7.745   0.955
25677WAT      O77272   7.933   6.676   4.306
25677WAT     H177273   7.935   6.638   4.398
25677WAT     H277274   7.838   6.687   4.276
25678WAT      O77275   4.994   2.244   5.467
25678WAT     H177276   5.055   2.210   5.538
25678WAT     H277277   4.976   2.171   5.401
25679WAT      O77278   5.487   9.533   8.792
25679WAT     H177279   5.572   9.488   8.818
25679WAT     H277280   5.419   9.463   8.768
25680WAT      O77281   6.257   7.161   4.862
25680WAT     H177282   6.202   7.152   4.780
25680WAT     H277283   6.266   7.072   4.907
25681WAT      O77284   9.234   0.130   8.343
25681WAT     H177285   9.330   0.159   8.343
25681WAT     H277286   9.203   0.118   8.248
25682WAT      O77287   0.384   5.027   4.719
25682WAT     H177288   0.439   4.944   4.712
25682WAT     H277289   0.353   5.039   4.814
25683WAT      O77290   9.265   9.792   2.614
25683WAT     H177291   9.278   9.801   2.713
25683WAT     H277292   9.253   9.695   2.591
25684WAT      O77293   0.757   7.360   9.600
25684WAT     H177294   0.735   7.424   9.673
25684WAT     H277295   0.684   7.293   9.591
25685WAT      O77296   8.873   9.156   0.915
25685WAT     H177297   8.936   9.213   0.968
25685WAT     H277298   8.821   9.097   0.976
25686WAT      O77299   6.222   7.773   9.045
25686WAT     H177300   6.282   7.792   9.122
25686WAT     H277301   6.237   7.679   9.013
25687WAT      O77302   5.035   3.974   0.857
25687WAT     H177303   5.100   4.038   0.899
25687WAT     H277304   5.023   3.895   0.917
25688WAT      O77305   2.510   6.934   5.790
25688WAT     H177306   2.590   6.994   5.795
25688WAT     H277307   2.540   6.839   5.796
25689WAT      O77308   9.514   5.275   0.378
25689WAT     H177309   9.492   5.200   0.315
25689WAT     H277310   9.603   5.259   0.418
25690WAT      O77311   1.768   8.775   9.090
25690WAT     H177312   1.808   8.684   9.104
25690WAT     H277313   1.780   8.801   8.994
25691WAT      O77314   8.231   9.697   8.104
25691WAT     H177315   8.203   9.785   8.142
25691WAT     H277316   8.229   9.702   8.004
25692WAT      O77317   4.725   6.282   2.768
25692WAT     H177318   4.717   6.218   2.845
25692WAT     H277319   4.815   6.270   2.725
25693WAT      O77320   0.384   5.511   4.640
25693WAT     H177321   0.354   5.529   4.546
25693WAT     H277322   0.465   5.566   4.660
25694WAT      O77323   4.830   7.931   1.992
25694WAT     H177324   4.802   7.896   1.903
25694WAT     H277325   4.757   7.989   2.029
25695WAT      O77326   3.253   3.508   6.851
25695WAT     H177327   3.238   3.492   6.754
25695WAT     H277328   3.332   3.455   6.882
25696WAT      O77329   4.210   7.893   9.295
25696WAT     H177330   4.142   7.952   9.251
25696WAT     H277331   4.246   7.938   9.376
25697WAT      O77332   4.024   1.162   3.558
25697WAT     H177333   3.955   1.201   3.620
25697WAT     H277334   3.987   1.079   3.516
25698WAT      O77335   5.304   6.337   5.479
25698WAT     H177336   5.359   6.397   5.537
25698WAT     H277337   5.239   6.287   5.536
25699WAT      O77338   0.852   5.049   3.354
25699WAT     H177339   0.917   5.068   3.280
25699WAT     H277340   0.769   5.103   3.339
25700WAT      O77341   8.580   9.667   7.835
25700WAT     H177342   8.630   9.714   7.908
25700WAT     H277343   8.579   9.725   7.754
25701WAT      O77344   7.144   7.759   2.504
25701WAT     H177345   7.219   7.814   2.468
25701WAT     H277346   7.175   7.710   2.586
25702WAT      O77347   2.320   0.043   8.744
25702WAT     H177348   2.226   0.009   8.737
25702WAT     H277349   2.326   0.136   8.710
25703WAT      O77350   1.076   7.023   9.004
25703WAT     H177351   1.115   6.984   9.088
25703WAT     H277352   1.056   6.949   8.940
25704WAT      O77353   6.319   2.541   6.848
25704WAT     H177354   6.240   2.493   6.809
25704WAT     H277355   6.314   2.638   6.825
25705WAT      O77356   7.937   3.851   0.685
25705WAT     H177357   7.858   3.901   0.651
25705WAT     H277358   7.948   3.766   0.633
25706WAT      O77359   1.821   9.025   8.168
25706WAT     H177360   1.902   8.999   8.220
25706WAT     H277361   1.750   9.057   8.230
25707WAT      O77362   7.218   7.876   0.787
25707WAT     H177363   7.287   7.817   0.745
25707WAT     H277364   7.258   7.965   0.807
25708WAT      O77365   2.927   7.296   1.353
25708WAT     H177366   2.987   7.364   1.311
25708WAT     H277367   2.835   7.304   1.314
25709WAT      O77368   2.450   7.860   2.718
25709WAT     H177369   2.512   7.853   2.796
25709WAT     H277370   2.368   7.912   2.745
25710WAT      O77371   8.034   7.464   4.752
25710WAT     H177372   8.039   7.416   4.665
25710WAT     H277373   8.103   7.536   4.755
25711WAT      O77374   4.763   8.276   1.173
25711WAT     H177375   4.760   8.266   1.073
25711WAT     H277376   4.670   8.286   1.208
25712WAT      O77377   8.437   5.412   9.447
25712WAT     H177378   8.351   5.415   9.497
25712WAT     H277379   8.492   5.335   9.479
25713WAT      O77380   3.979   3.693   6.783
25713WAT     H177381   3.954   3.676   6.878
25713WAT     H277382   3.900   3.677   6.724
25714WAT      O77383   3.007   6.589   2.286
25714WAT     H177384   3.012   6.669   2.347
25714WAT     H277385   3.074   6.599   2.213
25715WAT      O77386   3.639   4.941   4.732
25715WAT     H177387   3.677   4.996   4.807
25715WAT     H277388   3.684   4.852   4.730
25716WAT      O77389   0.050   5.802   5.435
25716WAT     H177390   0.070   5.808   5.533
25716WAT     H277391  -0.003   5.719   5.417
25717WAT      O77392   1.363   5.565   9.716
25717WAT     H177393   1.411   5.492   9.764
25717WAT     H277394   1.428   5.630   9.678
25718WAT      O77395   6.252   3.147   7.293
25718WAT     H177396   6.294   3.059   7.314
25718WAT     H277397   6.152   3.139   7.302
25719WAT      O77398   2.854   7.257   1.645
25719WAT     H177399   2.874   7.313   1.564
25719WAT     H277400   2.840   7.162   1.617
25720WAT      O77401   3.309   4.031   4.782
25720WAT     H177402   3.248   4.037   4.703
25720WAT     H277403   3.291   4.107   4.844
25721WAT      O77404   5.876   2.241   7.875
25721WAT     H177405   5.875   2.153   7.827
25721WAT     H277406   5.866   2.315   7.809
25722WAT      O77407   1.138   6.168   7.955
25722WAT     H177408   1.078   6.138   8.029
25722WAT     H277409   1.172   6.260   7.974
25723WAT      O77410   2.646   4.831   3.913
25723WAT     H177411   2.675   4.795   4.001
25723WAT     H277412   2.661   4.762   3.842
25724WAT      O77413   2.848   4.774   5.129
25724WAT     H177414   2.946   4.794   5.138
25724WAT     H277415   2.826   4.762   5.032
25725WAT      O77416   5.291   1.741   3.054
25725WAT     H177417   5.317   1.791   2.971
25725WAT     H277418   5.318   1.645   3.045
25726WAT      O77419   6.412   6.384   3.207
25726WAT     H177420   6.395   6.323   3.130
25726WAT     H277421   6.501   6.362   3.247
25727WAT      O77422   8.887   9.461   9.881
25727WAT     H177423   8.878   9.463   9.980
25727WAT     H277424   8.938   9.542   9.850
25728WAT      O77425   1.066   7.004   0.588
25728WAT     H177426   1.159   6.966   0.586
25728WAT     H277427   1.060   7.079   0.522
25729WAT      O77428   8.945   2.076   5.517
25729WAT     H177429   8.855   2.049   5.554
25729WAT     H277430   8.975   2.160   5.562
25730WAT      O77431   5.718   1.302   3.959
25730WAT     H177432   5.720   1.397   3.992
25730WAT     H277433   5.781   1.292   3.882
25731WAT      O77434   4.211   6.862   0.815
25731WAT     H177435   4.134   6.919   0.848
25731WAT     H277436   4.179   6.803   0.741
25732WAT      O77437   3.152   3.646   2.401
25732WAT     H177438   3.117   3.579   2.335
25732WAT     H277439   3.085   3.720   2.412
25733WAT      O77440   2.553   8.081   9.729
25733WAT     H177441   2.500   8.041   9.654
25733WAT     H277442   2.523   8.175   9.744
25734WAT      O77443   9.540   3.202   1.698
25734WAT     H177444   9.519   3.233   1.791
25734WAT     H277445   9.631   3.160   1.696
25735WAT      O77446   6.464   8.983   1.918
25735WAT     H177447   6.406   9.013   1.842
25735WAT     H277448   6.469   8.883   1.919
25736WAT      O77449   6.081   2.964   5.354
25736WAT     H177450   6.137   3.036   5.312
25736WAT     H277451   6.078   2.884   5.294
25737WAT      O77452   1.821   0.676   4.819
25737WAT     H177453   1.809   0.682   4.918
25737WAT     H277454   1.866   0.759   4.786
25738WAT      O77455   6.411   6.263   9.615
25738WAT     H177456   6.426   6.355   9.651
25738WAT     H277457   6.492   6.207   9.632
25739WAT      O77458   6.672   5.327   6.940
25739WAT     H177459   6.713   5.269   6.869
25739WAT     H277460   6.723   5.318   7.025
25740WAT      O77461   3.394   9.520   6.437
25740WAT     H177462   3.445   9.540   6.354
25740WAT     H277463   3.412   9.591   6.505
25741WAT      O77464   1.975   9.081   5.898
25741WAT     H177465   2.068   9.047   5.884
25741WAT     H277466   1.913   9.036   5.834
25742WAT      O77467   1.467   9.348   3.727
25742WAT     H177468   1.461   9.294   3.643
25742WAT     H277469   1.469   9.445   3.704
25743WAT      O77470   5.866   3.589   2.112
25743WAT     H177471   5.950   3.586   2.167
25743WAT     H277472   5.792   3.629   2.166
25744WAT      O77473   3.140   5.145   5.836
25744WAT     H177474   3.133   5.211   5.761
25744WAT     H277475   3.050   5.134   5.878
25745WAT      O77476   7.797   2.401   2.801
25745WAT     H177477   7.703   2.435   2.790
25745WAT     H277478   7.797   2.301   2.795
25746WAT      O77479   0.561   1.212   6.965
25746WAT     H177480   0.543   1.298   7.013
25746WAT     H277481   0.657   1.188   6.973
25747WAT      O77482   7.011   9.823   2.284
25747WAT     H177483   7.001   9.734   2.327
25747WAT     H277484   6.949   9.889   2.328
25748WAT      O77485   8.086   9.356   4.716
25748WAT     H177486   8.006   9.334   4.770
25748WAT     H277487   8.079   9.313   4.626
25749WAT      O77488   6.258   6.341   1.348
25749WAT     H177489   6.257   6.333   1.248
25749WAT     H277490   6.231   6.434   1.374
25750WAT      O77491   6.869   0.655   8.821
25750WAT     H177492   6.853   0.616   8.911
25750WAT     H277493   6.955   0.618   8.783
25751WAT      O77494   1.169   0.392   2.028
25751WAT     H177495   1.111   0.473   2.038
25751WAT     H277496   1.111   0.310   2.031
25752WAT      O77497   5.998   9.121   5.701
25752WAT     H177498   5.924   9.070   5.657
25752WAT     H277499   5.963   9.168   5.781
25753WAT      O77500   2.755   6.702   2.527
25753WAT     H177501   2.733   6.631   2.459
25753WAT     H277502   2.807   6.775   2.482
25754WAT      O77503   4.714   5.226   3.155
25754WAT     H177504   4.801   5.266   3.185
25754WAT     H277505   4.676   5.170   3.229
25755WAT      O77506   6.765   2.001   2.852
25755WAT     H177507   6.821   1.952   2.784
25755WAT     H277508   6.741   2.091   2.815
25756WAT      O77509   1.599   5.762   1.994
25756WAT     H177510   1.597   5.716   1.905
25756WAT     H277511   1.657   5.711   2.057
25757WAT      O77512   6.222   4.717   0.082
25757WAT     H177513   6.275   4.798   0.109
25757WAT     H277514   6.282   4.653   0.034
25758WAT      O77515   5.826   2.174   9.890
25758WAT     H177516   5.845   2.241   9.819
25758WAT     H277517   5.798   2.220   9.974
25759WAT      O77518   0.491   6.718   5.983
25759WAT     H177519   0.529   6.795   5.934
25759WAT     H277520   0.492   6.637   5.925
25760WAT      O77521   7.478   5.974   7.948
25760WAT     H177522   7.439   6.000   8.037
25760WAT     H277523   7.541   6.045   7.918
25761WAT      O77524   9.065   1.569   8.788
25761WAT     H177525   9.107   1.495   8.735
25761WAT     H277526   9.000   1.530   8.853
25762WAT      O77527   7.579   0.973   6.769
25762WAT     H177528   7.618   0.953   6.858
25762WAT     H277529   7.523   1.055   6.774
25763WAT      O77530   4.620   2.620   4.856
25763WAT     H177531   4.619   2.689   4.928
25763WAT     H277532   4.711   2.577   4.852
25764WAT      O77533   5.332   0.809   4.068
25764WAT     H177534   5.378   0.748   4.002
25764WAT     H277535   5.316   0.898   4.025
25765WAT      O77536   8.541   9.784   7.572
25765WAT     H177537   8.590   9.751   7.491
25765WAT     H277538   8.526   9.882   7.565
25766WAT      O77539   3.025   6.469   2.910
25766WAT     H177540   2.955   6.525   2.865
25766WAT     H277541   3.006   6.372   2.894
25767WAT      O77542   2.220   4.166   9.271
25767WAT     H177543   2.197   4.263   9.262
25767WAT     H277544   2.251   4.131   9.183
25768WAT      O77545   2.840   9.830   5.127
25768WAT     H177546   2.811   9.883   5.207
25768WAT     H277547   2.939   9.842   5.114
25769WAT      O77548   0.804   1.284   3.777
25769WAT     H177549   0.829   1.320   3.867
25769WAT     H277550   0.773   1.359   3.719
25770WAT      O77551   6.167   6.451   8.718
25770WAT     H177552   6.159   6.548   8.738
25770WAT     H277553   6.083   6.404   8.746
25771WAT      O77554   8.101   9.084   5.222
25771WAT     H177555   8.084   9.009   5.285
25771WAT     H277556   8.119   9.168   5.273
25772WAT      O77557   5.948   5.639   8.422
25772WAT     H177558   5.850   5.635   8.400
25772WAT     H277559   5.982   5.547   8.437
25773WAT      O77560   1.635   1.487   1.921
25773WAT     H177561   1.536   1.496   1.926
25773WAT     H277562   1.675   1.511   2.009
25774WAT      O77563   1.689   5.572   4.915
25774WAT     H177564   1.631   5.581   4.995
25774WAT     H277565   1.650   5.504   4.853
25775WAT      O77566   3.327   4.361   2.722
25775WAT     H177567   3.340   4.425   2.799
25775WAT     H277568   3.232   4.332   2.720
25776WAT      O77569   7.506   7.172   3.213
25776WAT     H177570   7.414   7.147   3.241
25776WAT     H277571   7.522   7.269   3.231
25777WAT      O77572   2.999   0.258   7.763
25777WAT     H177573   2.915   0.273   7.816
25777WAT     H277574   3.072   0.227   7.824
25778WAT      O77575   6.034   6.926   2.237
25778WAT     H177576   6.109   6.861   2.226
25778WAT     H277577   5.948   6.876   2.242
25779WAT      O77578   6.385   3.000   3.846
25779WAT     H177579   6.414   3.009   3.751
25779WAT     H277580   6.414   3.080   3.898
25780WAT      O77581   7.927   3.685   5.788
25780WAT     H177582   7.967   3.733   5.866
25780WAT     H277583   7.974   3.597   5.775
25781WAT      O77584   6.596   3.654   1.787
25781WAT     H177585   6.500   3.650   1.762
25781WAT     H277586   6.622   3.571   1.836
25782WAT      O77587   6.349   4.105   5.343
25782WAT     H177588   6.434   4.144   5.378
25782WAT     H277589   6.276   4.173   5.348
25783WAT      O77590   4.362   2.792   8.903
25783WAT     H177591   4.375   2.872   8.961
25783WAT     H277592   4.302   2.815   8.827
25784WAT      O77593   1.768   7.383   6.111
25784WAT     H177594   1.682   7.410   6.068
25784WAT     H277595   1.808   7.462   6.157
25785WAT      O77596   9.449   8.558   3.074
25785WAT     H177597   9.459   8.462   3.044
25785WAT     H277598   9.408   8.560   3.165
25786WAT      O77599   3.944   1.268   4.173
25786WAT     H177600   3.894   1.187   4.207
25786WAT     H277601   3.931   1.344   4.237
25787WAT      O77602   5.258   8.867   3.153
25787WAT     H177603   5.317   8.831   3.081
25787WAT     H277604   5.289   8.959   3.178
25788WAT      O77605   3.805   3.589   2.327
25788WAT     H177606   3.811   3.586   2.427
25788WAT     H277607   3.713   3.617   2.300
25789WAT      O77608   5.000   3.705   0.435
25789WAT     H177609   5.046   3.733   0.351
25789WAT     H277610   4.983   3.606   0.432
25790WAT      O77611   8.195   6.182   0.523
25790WAT     H177612   8.157   6.107   0.577
25790WAT     H277613   8.276   6.218   0.569
25791WAT      O77614   8.465   9.442   1.797
25791WAT     H177615   8.449   9.490   1.884
25791WAT     H277616   8.377   9.421   1.754
25792WAT      O77617   8.514   1.334   0.594
25792WAT     H177618   8.584   1.316   0.663
25792WAT     H277619   8.540   1.291   0.507
25793WAT      O77620   6.146   7.809   3.569
25793WAT     H177621   6.165   7.879   3.500
25793WAT     H277622   6.111   7.727   3.525
25794WAT      O77623   5.990   2.613   2.037
25794WAT     H177624   5.941   2.639   2.120
25794WAT     H277625   6.059   2.682   2.016
25795WAT      O77626   3.209   0.092   5.953
25795WAT     H177627   3.268   0.149   6.011
25795WAT     H277628   3.240   0.096   5.859
25796WAT      O77629   5.143   2.893   5.532
25796WAT     H177630   5.157   2.901   5.434
25796WAT     H277631   5.222   2.849   5.574
25797WAT      O77632   6.294   2.557   3.102
25797WAT     H177633   6.386   2.593   3.115
25797WAT     H277634   6.260   2.520   3.188
25798WAT      O77635   7.006   8.869   0.692
25798WAT     H177636   6.957   8.782   0.690
25798WAT     H277637   7.015   8.900   0.787
25799WAT      O77638   1.054   0.330   4.632
25799WAT     H177639   1.133   0.269   4.642
25799WAT     H277640   1.085   0.425   4.631
25800WAT      O77641   6.786   9.030   9.390
25800WAT     H177642   6.880   9.044   9.357
25800WAT     H277643   6.725   9.020   9.311
25801WAT      O77644   1.356   1.764   7.550
25801WAT     H177645   1.344   1.748   7.648
25801WAT     H277646   1.355   1.862   7.532
25802WAT      O77647   2.699   3.961   6.819
25802WAT     H177648   2.646   3.880   6.796
25802WAT     H277649   2.748   3.945   6.905
25803WAT      O77650   2.371   1.307   4.054
25803WAT     H177651   2.436   1.238   4.086
25803WAT     H277652   2.342   1.364   4.132
25804WAT      O77653   3.014   3.795   2.701
25804WAT     H177654   2.960   3.879   2.696
25804WAT     H277655   3.110   3.819   2.712
25805WAT      O77656   3.779   7.369   7.430
25805WAT     H177657   3.690   7.414   7.438
25805WAT     H277658   3.766   7.276   7.396
25806WAT      O77659   2.868   8.669   6.056
25806WAT     H177660   2.812   8.720   5.990
25806WAT     H277661   2.928   8.606   6.007
25807WAT      O77662   7.530   7.646   3.071
25807WAT     H177663   7.599   7.713   3.099
25807WAT     H277664   7.442   7.668   3.114
25808WAT      O77665   1.210   1.466   2.290
25808WAT     H177666   1.134   1.525   2.318
25808WAT     H277667   1.291   1.523   2.274
25809WAT      O77668   1.841   4.173   4.506
25809WAT     H177669   1.847   4.263   4.550
25809WAT     H277670   1.902   4.110   4.553
25810WAT      O77671   4.544   9.769   9.747
25810WAT     H177672   4.514   9.765   9.651
25810WAT     H277673   4.633   9.814   9.752
25811WAT      O77674   3.456   2.044   5.714
25811WAT     H177675   3.441   1.947   5.732
25811WAT     H277676   3.374   2.084   5.674
25812WAT      O77677   2.108   6.419   4.628
25812WAT     H177678   2.056   6.351   4.680
25812WAT     H277679   2.190   6.444   4.679
25813WAT      O77680   2.103   9.803   3.142
25813WAT     H177681   2.163   9.727   3.167
25813WAT     H277682   2.157   9.875   3.099
25814WAT      O77683   8.673   3.455   9.627
25814WAT     H177684   8.712   3.504   9.550
25814WAT     H277685   8.721   3.368   9.639
25815WAT      O77686   7.763   6.910   0.351
25815WAT     H177687   7.754   7.004   0.385
25815WAT     H277688   7.673   6.875   0.325
25816WAT      O77689   6.582   0.144   5.435
25816WAT     H177690   6.678   0.159   5.409
25816WAT     H277691   6.563   0.046   5.438
25817WAT      O77692   6.243   4.790   7.235
25817WAT     H177693   6.284   4.836   7.313
25817WAT     H277694   6.315   4.753   7.176
25818WAT      O77695   5.066   7.055   3.579
25818WAT     H177696   5.144   7.061   3.640
25818WAT     H277697   5.089   7.099   3.492
25819WAT      O77698   2.459   5.521   7.348
25819WAT     H177699   2.474   5.527   7.249
25819WAT     H277700   2.547   5.515   7.394
25820WAT      O77701   0.436   9.765   0.556
25820WAT     H177702   0.485   9.694   0.505
25820WAT     H277703   0.348   9.728   0.587
25821WAT      O77704   5.641   2.053   8.811
25821WAT     H177705   5.704   2.055   8.888
25821WAT     H277706   5.583   2.134   8.813
25822WAT      O77707   2.821   6.715   4.712
25822WAT     H177708   2.858   6.745   4.624
25822WAT     H277709   2.723   6.736   4.717
25823WAT      O77710   5.749   4.406   5.755
25823WAT     H177711   5.687   4.485   5.756
25823WAT     H277712   5.702   4.326   5.791
25824WAT      O77713   2.562   1.979   8.010
25824WAT     H177714   2.650   1.934   7.998
25824WAT     H277715   2.528   1.963   8.103
25825WAT      O77716   8.834   5.519   7.441
25825WAT     H177717   8.846   5.616   7.421
25825WAT     H277718   8.837   5.467   7.355
25826WAT      O77719   7.801   1.798   4.662
25826WAT     H177720   7.821   1.744   4.744
25826WAT     H277721   7.704   1.786   4.637
25827WAT      O77722   2.769   7.798   1.352
25827WAT     H177723   2.728   7.887   1.336
25827WAT     H277724   2.732   7.758   1.436
25828WAT      O77725   5.654   7.615   1.634
25828WAT     H177726   5.714   7.538   1.654
25828WAT     H277727   5.564   7.581   1.606
25829WAT      O77728   4.292   1.000   0.370
25829WAT     H177729   4.286   0.983   0.469
25829WAT     H277730   4.388   1.013   0.345
25830WAT      O77731   1.206   1.505   0.942
25830WAT     H177732   1.273   1.444   0.984
25830WAT     H277733   1.184   1.472   0.851
25831WAT      O77734   7.865   4.097   5.285
25831WAT     H177735   7.881   3.999   5.297
25831WAT     H277736   7.807   4.112   5.205
25832WAT      O77737   7.117   1.722   8.431
25832WAT     H177738   7.140   1.651   8.365
25832WAT     H277739   7.154   1.810   8.400
25833WAT      O77740   4.937   0.525   5.235
25833WAT     H177741   4.936   0.452   5.303
25833WAT     H277742   4.844   0.559   5.221
25834WAT      O77743   6.379   2.847   5.075
25834WAT     H177744   6.318   2.777   5.112
25834WAT     H277745   6.332   2.935   5.071
25835WAT      O77746   9.755   8.052   2.099
25835WAT     H177747   9.693   8.064   2.177
25835WAT     H277748   9.765   8.139   2.051
25836WAT      O77749   9.190   6.385   1.699
25836WAT     H177750   9.271   6.422   1.743
25836WAT     H277751   9.207   6.377   1.600
25837WAT      O77752   8.623   7.290   9.722
25837WAT     H177753   8.578   7.204   9.748
25837WAT     H277754   8.553   7.356   9.694
25838WAT      O77755   4.239   9.283   8.590
25838WAT     H177756   4.334   9.275   8.620
25838WAT     H277757   4.213   9.200   8.541
25839WAT      O77758   9.034   1.515   2.013
25839WAT     H177759   8.966   1.469   1.956
25839WAT     H277760   9.099   1.564   1.955
25840WAT      O77761   1.374   5.858   7.406
25840WAT     H177762   1.346   5.798   7.481
25840WAT     H277763   1.403   5.802   7.328
25841WAT      O77764   5.845   3.046   0.022
25841WAT     H177765   5.941   3.021   0.009
25841WAT     H277766   5.834   3.087   0.113
25842WAT      O77767   7.343   4.987   4.518
25842WAT     H177768   7.245   4.985   4.501
25842WAT     H277769   7.364   4.934   4.600
25843WAT      O77770   8.537   2.725   1.792
25843WAT     H177771   8.467   2.788   1.827
25843WAT     H277772   8.626   2.771   1.793
25844WAT      O77773   4.168   9.413   6.861
25844WAT     H177774   4.215   9.350   6.800
25844WAT     H277775   4.166   9.504   6.821
25845WAT      O77776   4.437   7.183   9.828
25845WAT     H177777   4.495   7.205   9.750
25845WAT     H277778   4.420   7.084   9.830
25846WAT      O77779   8.536   5.282   8.570
25846WAT     H177780   8.478   5.210   8.607
25846WAT     H277781   8.488   5.370   8.574
25847WAT      O77782   7.082   4.282   0.331
25847WAT     H177783   6.984   4.268   0.343
25847WAT     H277784   7.117   4.340   0.405
25848WAT      O77785   0.157   6.171   2.624
25848WAT     H177786   0.090   6.110   2.583
25848WAT     H277787   0.156   6.161   2.724
25849WAT      O77788   8.330   6.520   2.222
25849WAT     H177789   8.253   6.477   2.175
25849WAT     H277790   8.408   6.458   2.221
25850WAT      O77791   1.554   2.689   2.666
25850WAT     H177792   1.564   2.779   2.710
25850WAT     H277793   1.480   2.693   2.599
25851WAT      O77794   5.927   9.000   3.453
25851WAT     H177795   5.977   8.916   3.431
25851WAT     H277796   5.991   9.068   3.488
25852WAT      O77797   7.430   4.611   5.510
25852WAT     H177798   7.350   4.563   5.474
25852WAT     H277799   7.498   4.622   5.437
25853WAT      O77800   1.853   4.023   3.534
25853WAT     H177801   1.773   4.012   3.593
25853WAT     H277802   1.931   3.974   3.573
25854WAT      O77803   7.542   7.460   0.726
25854WAT     H177804   7.446   7.455   0.698
25854WAT     H277805   7.600   7.465   0.645
25855WAT      O77806   9.667   7.959   0.538
25855WAT     H177807   9.691   7.863   0.521
25855WAT     H277808   9.729   8.018   0.487
25856WAT      O77809   2.599   2.882   5.878
25856WAT     H177810   2.588   2.783   5.885
25856WAT     H277811   2.545   2.916   5.800
25857WAT      O77812   0.576   2.510   0.174
25857WAT     H177813   0.509   2.584   0.168
25857WAT     H277814   0.621   2.498   0.086
25858WAT      O77815   6.573   3.466   6.574
25858WAT     H177816   6.508   3.445   6.648
25858WAT     H277817   6.556   3.404   6.497
25859WAT      O77818   9.431   3.048   6.554
25859WAT     H177819   9.472   3.105   6.483
25859WAT     H277820   9.377   3.105   6.615
25860WAT      O77821   5.935   5.038   9.131
25860WAT     H177822   5.836   5.047   9.141
25860WAT     H277823   5.957   4.945   9.100
25861WAT      O77824   6.788   2.875   4.269
25861WAT     H177825   6.809   2.879   4.367
25861WAT     H277826   6.864   2.831   4.221
25862WAT      O77827   4.476   4.542   6.645
25862WAT     H177828   4.561   4.499   6.672
25862WAT     H277829   4.400   4.479   6.660
25863WAT      O77830   3.624   1.278   9.418
25863WAT     H177831   3.632   1.222   9.336
25863WAT     H277832   3.534   1.321   9.421
25864WAT      O77833   4.515   8.248   4.222
25864WAT     H177834   4.557   8.158   4.207
25864WAT     H277835   4.475   8.281   4.136
25865WAT      O77836   8.184   1.602   2.169
25865WAT     H177837   8.274   1.640   2.193
25865WAT     H277838   8.169   1.613   2.071
25866WAT      O77839   6.240   9.628   8.800
25866WAT     H177840   6.283   9.538   8.812
25866WAT     H277841   6.311   9.698   8.794
25867WAT      O77842   8.048   0.066   8.198
25867WAT     H177843   7.994   0.000   8.146
25867WAT     H277844   8.039   0.157   8.158
25868WAT      O77845   0.871   4.121   6.087
25868WAT     H177846   0.840   4.156   6.176
25868WAT     H277847   0.793   4.115   6.025
25869WAT      O77848   8.038   6.060   5.504
25869WAT     H177849   8.114   6.036   5.564
25869WAT     H277850   8.054   6.150   5.464
25870WAT      O77851   1.114   7.217   0.407
25870WAT     H177852   1.100   7.306   0.450
25870WAT     H277853   1.191   7.221   0.344
25871WAT      O77854   2.657   6.038   4.125
25871WAT     H177855   2.636   6.127   4.084
25871WAT     H277856   2.573   5.986   4.135
25872WAT      O77857   3.499   1.979   9.769
25872WAT     H177858   3.546   1.984   9.681
25872WAT     H277859   3.402   1.962   9.754
25873WAT      O77860   1.853   2.024   7.088
25873WAT     H177861   1.789   2.065   7.024
25873WAT     H277862   1.846   1.924   7.084
25874WAT      O77863   3.632   1.617   6.375
25874WAT     H177864   3.704   1.671   6.333
25874WAT     H277865   3.665   1.524   6.393
25875WAT      O77866   4.706   1.550   9.219
25875WAT     H177867   4.618   1.588   9.249
25875WAT     H277868   4.714   1.559   9.120
25876WAT      O77869   6.289   0.045   4.273
25876WAT     H177870   6.265  -0.030   4.212
25876WAT     H277871   6.358   0.013   4.339
25877WAT      O77872   7.115   6.795   5.257
25877WAT     H177873   7.116   6.712   5.201
25877WAT     H277874   7.110   6.770   5.353
25878WAT      O77875   7.835   8.717   5.840
25878WAT     H177876   7.894   8.771   5.901
25878WAT     H277877   7.889   8.647   5.793
25879WAT      O77878   1.979   7.719   0.648
25879WAT     H177879   2.051   7.723   0.718
25879WAT     H277880   1.913   7.648   0.672
25880WAT      O77881   2.403   8.069   3.697
25880WAT     H177882   2.364   8.155   3.731
25880WAT     H277883   2.329   8.009   3.667
25881WAT      O77884   2.619   7.257   2.362
25881WAT     H177885   2.570   7.169   2.367
25881WAT     H277886   2.586   7.317   2.435
25882WAT      O77887   3.786   5.363   1.580
25882WAT     H177888   3.851   5.292   1.555
25882WAT     H277889   3.764   5.419   1.500
25883WAT      O77890   5.623   5.782   0.679
25883WAT     H177891   5.587   5.720   0.609
25883WAT     H277892   5.574   5.766   0.765
25884WAT      O77893   5.593   2.342   9.665
25884WAT     H177894   5.554   2.263   9.711
25884WAT     H277895   5.533   2.421   9.675
25885WAT      O77896   6.436   8.253   6.664
25885WAT     H177897   6.465   8.282   6.755
25885WAT     H277898   6.512   8.211   6.616
25886WAT      O77899   2.026   4.689   7.691
25886WAT     H177900   1.972   4.626   7.746
25886WAT     H277901   2.123   4.666   7.699
25887WAT      O77902   2.759   0.308   3.613
25887WAT     H177903   2.817   0.243   3.565
25887WAT     H277904   2.663   0.282   3.602
25888WAT      O77905   8.858   7.443   9.649
25888WAT     H177906   8.771   7.404   9.681
25888WAT     H277907   8.886   7.517   9.710
25889WAT      O77908   5.624   2.675   7.087
25889WAT     H177909   5.662   2.665   6.995
25889WAT     H277910   5.697   2.703   7.150
25890WAT      O77911   8.917   0.295   7.823
25890WAT     H177912   8.990   0.236   7.858
25890WAT     H277913   8.834   0.280   7.876
25891WAT      O77914   7.767   2.187   7.730
25891WAT     H177915   7.736   2.264   7.673
25891WAT     H277916   7.731   2.102   7.692
25892WAT      O77917   5.610   2.060   4.785
25892WAT     H177918   5.630   1.982   4.726
25892WAT     H277919   5.693   2.115   4.795
25893WAT      O77920   4.676   6.996   9.361
25893WAT     H177921   4.648   7.036   9.274
25893WAT     H277922   4.603   6.938   9.397
25894WAT      O77923   6.316   0.975   4.785
25894WAT     H177924   6.390   0.931   4.834
25894WAT     H277925   6.353   1.041   4.720
25895WAT      O77926   8.835   3.752   8.827
25895WAT     H177927   8.744   3.757   8.869
25895WAT     H277928   8.859   3.842   8.789
25896WAT      O77929   1.000   6.291   6.040
25896WAT     H177930   0.973   6.356   5.969
25896WAT     H277931   0.942   6.304   6.120
25897WAT      O77932   8.040   4.051   8.720
25897WAT     H177933   8.083   4.132   8.759
25897WAT     H277934   8.093   3.970   8.745
25898WAT      O77935   8.844   2.167   5.115
25898WAT     H177936   8.756   2.120   5.126
25898WAT     H277937   8.871   2.165   5.019
25899WAT      O77938   8.989   4.781   4.594
25899WAT     H177939   9.021   4.867   4.553
25899WAT     H277940   9.063   4.713   4.590
25900WAT      O77941   0.953   1.305   5.357
25900WAT     H177942   0.943   1.369   5.281
25900WAT     H277943   0.863   1.272   5.386
25901WAT      O77944   4.217   4.985   5.491
25901WAT     H177945   4.179   4.898   5.460
25901WAT     H277946   4.291   5.013   5.430
25902WAT      O77947   6.600   3.275   2.456
25902WAT     H177948   6.611   3.180   2.488
25902WAT     H277949   6.596   3.277   2.357
25903WAT      O77950   1.317   1.595   9.217
25903WAT     H177951   1.374   1.657   9.272
25903WAT     H277952   1.271   1.647   9.146
25904WAT      O77953   9.821   3.023   3.283
25904WAT     H177954   9.839   2.957   3.355
25904WAT     H277955   9.886   3.099   3.290
25905WAT      O77956   7.810   3.564   9.601
25905WAT     H177957   7.826   3.468   9.625
25905WAT     H277958   7.712   3.581   9.594
25906WAT      O77959   6.391   0.810   6.506
25906WAT     H177960   6.365   0.750   6.582
25906WAT     H277961   6.489   0.801   6.489
25907WAT      O77962   2.998   6.013   1.695
25907WAT     H177963   2.946   6.000   1.779
25907WAT     H277964   3.083   6.063   1.716
25908WAT      O77965   9.055   6.542   5.813
25908WAT     H177966   9.000   6.461   5.830
25908WAT     H277967   9.149   6.527   5.845
25909WAT      O77968   4.484   1.100   8.784
25909WAT     H177969   4.546   1.025   8.810
25909WAT     H277970   4.409   1.063   8.728
25910WAT      O77971   5.758   8.825   6.383
25910WAT     H177972   5.774   8.815   6.285
25910WAT     H277973   5.660   8.832   6.400
25911WAT      O77974   0.132   9.156   3.564
25911WAT     H177975   0.092   9.246   3.583
25911WAT     H277976   0.075   9.085   3.607
25912WAT      O77977   5.590   3.414   2.763
25912WAT     H177978   5.689   3.419   2.761
25912WAT     H277979   5.551   3.495   2.719
25913WAT      O77980   6.530   9.544   5.684
25913WAT     H177981   6.486   9.466   5.639
25913WAT     H277982   6.475   9.572   5.763
25914WAT      O77983   4.125   3.609   3.333
25914WAT     H177984   4.165   3.685   3.385
25914WAT     H277985   4.051   3.568   3.386
25915WAT      O77986   7.112   1.806   3.842
25915WAT     H177987   7.168   1.857   3.908
25915WAT     H277988   7.023   1.786   3.882
25916WAT      O77989   8.396   2.154   7.665
25916WAT     H177990   8.370   2.245   7.698
25916WAT     H277991   8.452   2.109   7.734
25917WAT      O77992   6.315   2.730   0.512
25917WAT     H177993   6.354   2.822   0.518
25917WAT     H277994   6.231   2.732   0.457
25918WAT      O77995   1.785   4.238   0.376
25918WAT     H177996   1.743   4.151   0.350
25918WAT     H277997   1.714   4.308   0.383
25919WAT      O77998   4.061   4.344   3.609
25919WAT     H177999   4.007   4.263   3.587
25919WAT     H278000   4.032   4.421   3.551
25920WAT      O78001   4.476   5.677   3.967
25920WAT     H178002   4.450   5.585   3.939
25920WAT     H278003   4.568   5.675   4.007
25921WAT      O78004   8.216   5.157   5.952
25921WAT     H178005   8.130   5.200   5.978
25921WAT     H278006   8.236   5.175   5.856
25922WAT      O78007   1.677   0.294   6.521
25922WAT     H178008   1.670   0.309   6.422
25922WAT     H278009   1.637   0.371   6.570
25923WAT      O78010   1.868   4.925   9.873
25923WAT     H178011   1.965   4.941   9.856
25923WAT     H278012   1.855   4.895   9.967
25924WAT      O78013   8.682   8.243   6.214
25924WAT     H178014   8.781   8.256   6.212
25924WAT     H278015   8.643   8.300   6.286
25925WAT      O78016   0.296   1.936   2.122
25925WAT     H178017   0.359   1.870   2.164
25925WAT     H278018   0.202   1.914   2.148
25926WAT      O78019   1.501   1.663   6.095
25926WAT     H178020   1.432   1.637   6.027
25926WAT     H278021   1.560   1.585   6.114
25927WAT      O78022   4.341   5.501   1.025
25927WAT     H178023   4.371   5.430   1.088
25927WAT     H278024   4.421   5.544   0.983
25928WAT      O78025   1.641   2.015   1.188
25928WAT     H178026   1.725   1.980   1.229
25928WAT     H278027   1.599   2.081   1.251
25929WAT      O78028   0.416   7.529   5.122
25929WAT     H178029   0.458   7.506   5.210
25929WAT     H278030   0.478   7.588   5.071
25930WAT      O78031   3.256   0.406   1.610
25930WAT     H178032   3.274   0.413   1.512
25930WAT     H278033   3.342   0.390   1.659
25931WAT      O78034   8.768   3.978   4.380
25931WAT     H178035   8.867   3.990   4.383
25931WAT     H278036   8.730   3.992   4.472
25932WAT      O78037   4.656   6.862   7.149
25932WAT     H178038   4.740   6.819   7.181
25932WAT     H278039   4.597   6.882   7.227
25933WAT      O78040   8.242   4.860   2.120
25933WAT     H178041   8.206   4.948   2.089
25933WAT     H278042   8.287   4.871   2.208
25934WAT      O78043   4.694   1.927   1.305
25934WAT     H178044   4.758   1.853   1.281
25934WAT     H278045   4.609   1.887   1.339
25935WAT      O78046   4.896   3.255   1.725
25935WAT     H178047   4.921   3.339   1.677
25935WAT     H278048   4.938   3.177   1.679
25936WAT      O78049   6.101   2.046   0.143
25936WAT     H178050   6.037   2.119   0.120
25936WAT     H278051   6.142   2.009   0.060
25937WAT      O78052   4.016   9.634   0.863
25937WAT     H178053   4.034   9.587   0.776
25937WAT     H278054   3.952   9.580   0.917
25938WAT      O78055   1.985   2.881   9.366
25938WAT     H178056   1.995   2.796   9.314
25938WAT     H278057   2.028   2.871   9.456
25939WAT      O78058   0.284   3.864   7.705
25939WAT     H178059   0.264   3.824   7.615
25939WAT     H278060   0.304   3.792   7.770
25940WAT      O78061   3.311   3.265   7.419
25940WAT     H178062   3.400   3.247   7.378
25940WAT     H278063   3.249   3.304   7.351
25941WAT      O78064   1.889   2.555   9.085
25941WAT     H178065   1.837   2.640   9.085
25941WAT     H278066   1.845   2.489   9.024
25942WAT      O78067   6.547   8.156   1.105
25942WAT     H178068   6.600   8.212   1.041
25942WAT     H278069   6.561   8.059   1.083
25943WAT      O78070   9.426   8.965   2.050
25943WAT     H178071   9.367   9.044   2.066
25943WAT     H278072   9.472   8.939   2.135
25944WAT      O78073   7.341   8.388   0.806
25944WAT     H178074   7.304   8.442   0.731
25944WAT     H278075   7.429   8.426   0.834
25945WAT      O78076   5.597   9.359   1.337
25945WAT     H178077   5.628   9.418   1.411
25945WAT     H278078   5.676   9.326   1.285
25946WAT      O78079   3.850   0.668   5.434
25946WAT     H178080   3.863   0.639   5.339
25946WAT     H278081   3.766   0.628   5.470
25947WAT      O78082   8.308   1.267   7.153
25947WAT     H178083   8.272   1.312   7.071
25947WAT     H278084   8.393   1.218   7.130
25948WAT      O78085   7.566   3.828   0.263
25948WAT     H178086   7.556   3.746   0.319
25948WAT     H278087   7.478   3.852   0.221
25949WAT      O78088   8.299   1.248   5.972
25949WAT     H178089   8.255   1.322   6.024
25949WAT     H278090   8.325   1.175   6.034
25950WAT      O78091   1.783   0.268   3.244
25950WAT     H178092   1.801   0.295   3.150
25950WAT     H278093   1.713   0.328   3.283
25951WAT      O78094   8.428   3.695   2.723
25951WAT     H178095   8.461   3.752   2.798
25951WAT     H278096   8.506   3.655   2.674
25952WAT      O78097   4.076   8.575   9.501
25952WAT     H178098   4.036   8.508   9.563
25952WAT     H278099   4.147   8.627   9.549
25953WAT      O78100   3.018   5.388   4.546
25953WAT     H178101   3.021   5.416   4.450
25953WAT     H278102   3.100   5.335   4.567
25954WAT      O78103   7.717   3.083   8.533
25954WAT     H178104   7.706   2.989   8.566
25954WAT     H278105   7.794   3.126   8.579
25955WAT      O78106   5.148   8.303   3.469
25955WAT     H178107   5.205   8.308   3.551
25955WAT     H278108   5.180   8.370   3.402
25956WAT      O78109   7.842   7.572   8.658
25956WAT     H178110   7.798   7.593   8.571
25956WAT     H278111   7.941   7.562   8.644
25957WAT      O78112   7.316   7.082   0.959
25957WAT     H178113   7.294   7.166   1.009
25957WAT     H278114   7.307   7.099   0.861
25958WAT      O78115   2.197   8.089   0.092
25958WAT     H178116   2.155   8.093   0.002
25958WAT     H278117   2.275   8.151   0.096
25959WAT      O78118   8.133   3.460   6.229
25959WAT     H178119   8.170   3.498   6.144
25959WAT     H278120   8.174   3.507   6.307
25960WAT      O78121   3.704   5.433   7.545
25960WAT     H178122   3.665   5.521   7.516
25960WAT     H278123   3.678   5.362   7.479
25961WAT      O78124   1.315   3.882   1.965
25961WAT     H178125   1.385   3.815   1.990
25961WAT     H278126   1.336   3.969   2.010
25962WAT      O78127   9.168   2.156   1.290
25962WAT     H178128   9.077   2.127   1.317
25962WAT     H278129   9.203   2.222   1.357
25963WAT      O78130   6.799   0.127   8.755
25963WAT     H178131   6.853   0.208   8.732
25963WAT     H278132   6.702   0.150   8.752
25964WAT      O78133   9.488   0.588   3.269
25964WAT     H178134   9.397   0.600   3.230
25964WAT     H278135   9.498   0.495   3.304
25965WAT      O78136   3.579   5.221   9.201
25965WAT     H178137   3.582   5.320   9.218
25965WAT     H278138   3.516   5.179   9.266
25966WAT      O78139   0.693   3.633   5.079
25966WAT     H178140   0.769   3.669   5.133
25966WAT     H278141   0.730   3.585   4.999
25967WAT      O78142   4.816   3.575   6.257
25967WAT     H178143   4.836   3.486   6.215
25967WAT     H278144   4.774   3.560   6.347
25968WAT      O78145   4.186   8.508   0.594
25968WAT     H178146   4.209   8.423   0.642
25968WAT     H278147   4.211   8.586   0.652
25969WAT      O78148   1.506   7.070   0.887
25969WAT     H178149   1.421   7.109   0.924
25969WAT     H278150   1.566   7.144   0.857
25970WAT      O78151   4.303   2.792   6.657
25970WAT     H178152   4.315   2.744   6.570
25970WAT     H278153   4.309   2.890   6.643
25971WAT      O78154   1.749   4.032   1.179
25971WAT     H178155   1.713   4.105   1.237
25971WAT     H278156   1.692   3.950   1.189
25972WAT      O78157   8.812   5.589   0.260
25972WAT     H178158   8.877   5.665   0.250
25972WAT     H278159   8.722   5.625   0.284
25973WAT      O78160   4.331   6.230   0.024
25973WAT     H178161   4.412   6.171   0.030
25973WAT     H278162   4.266   6.204   0.095
25974WAT      O78163   6.591   8.338   1.395
25974WAT     H178164   6.655   8.395   1.446
25974WAT     H278165   6.638   8.297   1.316
25975WAT      O78166   0.807   5.676   1.445
25975WAT     H178167   0.770   5.731   1.370
25975WAT     H278168   0.735   5.617   1.481
25976WAT      O78169   7.485   3.420   2.887
25976WAT     H178170   7.434   3.343   2.924
25976WAT     H278171   7.575   3.425   2.930
25977WAT      O78172   8.983   0.744   7.322
25977WAT     H178173   8.961   0.811   7.252
25977WAT     H278174   8.905   0.731   7.383
25978WAT      O78175   0.540   5.254   4.677
25978WAT     H178176   0.483   5.332   4.704
25978WAT     H278177   0.489   5.169   4.691
25979WAT      O78178   1.470   3.953   7.626
25979WAT     H178179   1.494   3.941   7.530
25979WAT     H278180   1.421   4.040   7.638
25980WAT      O78181   7.535   2.960   5.439
25980WAT     H178182   7.632   2.983   5.451
25980WAT     H278183   7.492   2.955   5.529
25981WAT      O78184   3.356   0.460   2.709
25981WAT     H178185   3.410   0.416   2.637
25981WAT     H278186   3.336   0.554   2.681
25982WAT      O78187   1.623   0.367   1.600
25982WAT     H178188   1.584   0.347   1.690
25982WAT     H278189   1.598   0.460   1.573
25983WAT      O78190   6.107   4.460   0.747
25983WAT     H178191   6.191   4.417   0.781
25983WAT     H278192   6.112   4.559   0.760
25984WAT      O78193   4.483   8.811   8.433
25984WAT     H178194   4.534   8.738   8.479
25984WAT     H278195   4.424   8.770   8.363
25985WAT      O78196   3.765   4.953   1.197
25985WAT     H178197   3.769   4.893   1.117
25985WAT     H278198   3.680   4.938   1.246
25986WAT      O78199   9.636   1.852   5.388
25986WAT     H178200   9.592   1.892   5.308
25986WAT     H278201   9.699   1.919   5.428
25987WAT      O78202   7.263   6.652   0.697
25987WAT     H178203   7.337   6.650   0.629
25987WAT     H278204   7.301   6.670   0.787
25988WAT      O78205   7.169   1.501   0.500
25988WAT     H178206   7.256   1.463   0.533
25988WAT     H278207   7.157   1.477   0.404
25989WAT      O78208   0.521   6.696   2.044
25989WAT     H178209   0.522   6.597   2.038
25989WAT     H278210   0.516   6.724   2.141
25990WAT      O78211   1.813   6.293   5.527
25990WAT     H178212   1.835   6.279   5.624
25990WAT     H278213   1.887   6.344   5.484
25991WAT      O78214   8.308   6.993   2.668
25991WAT     H178215   8.303   7.087   2.636
25991WAT     H278216   8.240   6.978   2.739
25992WAT      O78217   8.314   4.781   7.039
25992WAT     H178218   8.384   4.741   7.098
25992WAT     H278219   8.355   4.852   6.982
25993WAT      O78220   1.011   3.813   7.254
25993WAT     H178221   1.092   3.851   7.299
25993WAT     H278222   0.942   3.886   7.242
25994WAT      O78223   1.586   4.448   4.724
25994WAT     H178224   1.567   4.545   4.710
25994WAT     H278225   1.501   4.397   4.728
25995WAT      O78226   7.569   5.189   7.856
25995WAT     H178227   7.641   5.258   7.867
25995WAT     H278228   7.481   5.230   7.876
25996WAT      O78229   8.258   6.727   5.602
25996WAT     H178230   8.198   6.805   5.585
25996WAT     H278231   8.262   6.707   5.700
25997WAT      O78232   5.574   3.367   6.639
25997WAT     H178233   5.633   3.441   6.607
25997WAT     H278234   5.560   3.301   6.566
25998WAT      O78235   1.479   9.694   0.542
25998WAT     H178236   1.381   9.680   0.530
25998WAT     H278237   1.499   9.792   0.542
25999WAT      O78238   9.760   7.009   6.210
25999WAT     H178239   9.670   6.979   6.241
25999WAT     H278240   9.831   6.954   6.253
26000WAT      O78241   5.965   3.075   2.735
26000WAT     H178242   5.934   3.168   2.752
26000WAT     H278243   5.967   3.058   2.636
26001WAT      O78244   3.059   6.809   0.944
26001WAT     H178245   3.157   6.793   0.931
26001WAT     H278246   3.034   6.785   1.038
26002WAT      O78247   6.252   1.771   1.143
26002WAT     H178248   6.247   1.841   1.072
26002WAT     H278249   6.159   1.741   1.166
26003WAT      O78250   2.886   7.839   9.755
26003WAT     H178251   2.816   7.831   9.825
26003WAT     H278252   2.882   7.759   9.695
26004WAT      O78253   6.267   4.617   1.408
26004WAT     H178254   6.364   4.628   1.387
26004WAT     H278255   6.228   4.704   1.437
26005WAT      O78256   6.318   6.635   4.772
26005WAT     H178257   6.339   6.596   4.862
26005WAT     H278258   6.219   6.635   4.758
26006WAT      O78259   9.045   1.936   3.996
26006WAT     H178260   9.119   2.004   3.996
26006WAT     H278261   9.081   1.847   4.025
26007WAT      O78262   9.178   0.217   5.272
26007WAT     H178263   9.173   0.288   5.202
26007WAT     H278264   9.085   0.185   5.294
26008WAT      O78265   6.535   1.745   9.019
26008WAT     H178266   6.570   1.727   8.927
26008WAT     H278267   6.597   1.705   9.087
26009WAT      O78268   7.816   9.038   9.048
26009WAT     H178269   7.822   9.077   9.140
26009WAT     H278270   7.848   9.105   8.981
26010WAT      O78271   6.655   1.241   4.389
26010WAT     H178272   6.594   1.173   4.347
26010WAT     H278273   6.707   1.198   4.463
26011WAT      O78274   7.838   7.845   5.309
26011WAT     H178275   7.879   7.862   5.398
26011WAT     H278276   7.769   7.916   5.291
26012WAT      O78277   9.211   6.811   8.014
26012WAT     H178278   9.116   6.819   8.046
26012WAT     H278279   9.222   6.724   7.966
26013WAT      O78280   1.603   8.952   0.135
26013WAT     H178281   1.591   8.866   0.085
26013WAT     H278282   1.594   9.029   0.071
26014WAT      O78283   6.523   2.271   6.069
26014WAT     H178284   6.579   2.200   6.028
26014WAT     H278285   6.544   2.279   6.166
26015WAT      O78286   7.186   9.606   0.084
26015WAT     H178287   7.108   9.546   0.099
26015WAT     H278288   7.182   9.684   0.147
26016WAT      O78289   0.807   5.811   1.718
26016WAT     H178290   0.850   5.900   1.702
26016WAT     H278291   0.794   5.764   1.631
26017WAT      O78292   5.467   8.664   6.227
26017WAT     H178293   5.419   8.702   6.148
26017WAT     H278294   5.434   8.709   6.310
26018WAT      O78295   5.434   2.176   4.572
26018WAT     H178296   5.343   2.137   4.571
26018WAT     H278297   5.492   2.125   4.635
26019WAT      O78298   5.776   0.523   3.998
26019WAT     H178299   5.735   0.610   3.970
26019WAT     H278300   5.704   0.455   4.011
26020WAT      O78301   2.194   8.899   2.031
26020WAT     H178302   2.280   8.849   2.040
26020WAT     H278303   2.124   8.839   1.994
26021WAT      O78304   7.628   0.333   0.227
26021WAT     H178305   7.536   0.294   0.234
26021WAT     H278306   7.695   0.259   0.229
26022WAT      O78307   9.516   9.443   3.148
26022WAT     H178308   9.454   9.450   3.070
26022WAT     H278309   9.573   9.525   3.154
26023WAT      O78310   0.712   2.947   8.494
26023WAT     H178311   0.721   3.045   8.479
26023WAT     H278312   0.659   2.906   8.420
26024WAT      O78313   7.069   6.672   4.545
26024WAT     H178314   7.074   6.740   4.472
26024WAT     H278315   7.068   6.718   4.634
26025WAT      O78316   9.194   2.214   8.809
26025WAT     H178317   9.115   2.275   8.800
26025WAT     H278318   9.235   2.200   8.718
26026WAT      O78319   8.750   8.619   7.314
26026WAT     H178320   8.726   8.639   7.409
26026WAT     H278321   8.836   8.568   7.311
26027WAT      O78322   9.069   3.832   7.517
26027WAT     H178323   9.114   3.806   7.432
26027WAT     H278324   9.127   3.806   7.595
26028WAT      O78325   8.007   1.156   2.842
26028WAT     H178326   8.043   1.188   2.929
26028WAT     H278327   7.914   1.121   2.854
26029WAT      O78328   6.309   2.096   6.109
26029WAT     H178329   6.359   2.182   6.100
26029WAT     H278330   6.315   2.065   6.204
26030WAT      O78331   8.285   9.687   5.269
26030WAT     H178332   8.372   9.674   5.221
26030WAT     H278333   8.298   9.752   5.344
26031WAT      O78334   5.532   9.642   3.522
26031WAT     H178335   5.526   9.611   3.427
26031WAT     H278336   5.566   9.568   3.580
26032WAT      O78337   4.756   5.896   4.339
26032WAT     H178338   4.715   5.983   4.368
26032WAT     H278339   4.849   5.889   4.375
26033WAT      O78340   4.654   3.827   3.175
26033WAT     H178341   4.673   3.842   3.078
26033WAT     H278342   4.623   3.733   3.189
26034WAT      O78343   0.622   7.246   5.430
26034WAT     H178344   0.610   7.150   5.403
26034WAT     H278345   0.702   7.253   5.489
26035WAT      O78346   9.077   0.875   5.373
26035WAT     H178347   9.147   0.936   5.410
26035WAT     H278348   9.064   0.798   5.435
26036WAT      O78349   2.814   3.622   3.864
26036WAT     H178350   2.714   3.630   3.858
26036WAT     H278351   2.850   3.698   3.918
26037WAT      O78352   8.482   6.347   7.565
26037WAT     H178353   8.549   6.373   7.636
26037WAT     H278354   8.412   6.417   7.558
26038WAT      O78355   3.582   9.137   0.200
26038WAT     H178356   3.642   9.058   0.188
26038WAT     H278357   3.519   9.120   0.276
26039WAT      O78358   1.548   6.098   9.400
26039WAT     H178359   1.535   6.109   9.302
26039WAT     H278360   1.476   6.147   9.450
26040WAT      O78361   3.867   0.863   8.269
26040WAT     H178362   3.850   0.934   8.201
26040WAT     H278363   3.903   0.904   8.353
26041WAT      O78364   6.087   1.336   2.800
26041WAT     H178365   6.007   1.344   2.740
26041WAT     H278366   6.087   1.412   2.865
26042WAT      O78367   5.442   2.453   6.190
26042WAT     H178368   5.387   2.526   6.230
26042WAT     H278369   5.434   2.456   6.091
26043WAT      O78370   7.115   0.516   9.799
26043WAT     H178371   7.131   0.586   9.730
26043WAT     H278372   7.202   0.486   9.838
26044WAT      O78373   4.681   2.933   8.511
26044WAT     H178374   4.699   2.970   8.602
26044WAT     H278375   4.679   3.008   8.445
26045WAT      O78376   9.044   4.468   5.418
26045WAT     H178377   9.061   4.514   5.505
26045WAT     H278378   8.946   4.464   5.401
26046WAT      O78379   4.059   7.840   6.768
26046WAT     H178380   4.103   7.913   6.820
26046WAT     H278381   3.960   7.855   6.767
26047WAT      O78382   2.060   5.784   4.476
26047WAT     H178383   2.156   5.809   4.469
26047WAT     H278384   2.029   5.744   4.390
26048WAT      O78385   4.955   2.040   8.679
26048WAT     H178386   5.053   2.017   8.674
26048WAT     H278387   4.911   2.015   8.593
26049WAT      O78388   5.711   9.184   7.841
26049WAT     H178389   5.718   9.106   7.902
26049WAT     H278390   5.753   9.264   7.883
26050WAT      O78391   8.468   2.270   0.525
26050WAT     H178392   8.521   2.316   0.454
26050WAT     H278393   8.371   2.283   0.509
26051WAT      O78394   9.193   8.886   2.339
26051WAT     H178395   9.168   8.791   2.322
26051WAT     H278396   9.277   8.889   2.393
26052WAT      O78397   4.388   9.351   1.162
26052WAT     H178398   4.484   9.378   1.159
26052WAT     H278399   4.342   9.399   1.236
26053WAT      O78400   3.006   4.820   6.708
26053WAT     H178401   3.044   4.898   6.757
26053WAT     H278402   2.906   4.827   6.704
26054WAT      O78403   0.649   5.528   7.151
26054WAT     H178404   0.577   5.534   7.082
26054WAT     H278405   0.738   5.518   7.105
26055WAT      O78406   1.795   7.401   1.737
26055WAT     H178407   1.818   7.453   1.655
26055WAT     H278408   1.834   7.310   1.731
26056WAT      O78409   1.570   8.675   1.926
26056WAT     H178410   1.488   8.721   1.892
26056WAT     H278411   1.561   8.576   1.912
26057WAT      O78412   9.383   7.050   6.552
26057WAT     H178413   9.349   7.111   6.480
26057WAT     H278414   9.308   7.022   6.611
26058WAT      O78415   0.367   5.793   5.303
26058WAT     H178416   0.349   5.849   5.384
26058WAT     H278417   0.394   5.701   5.331
26059WAT      O78418   5.627   9.121   8.944
26059WAT     H178419   5.706   9.068   8.975
26059WAT     H278420   5.657   9.194   8.883
26060WAT      O78421   7.379   2.001   5.054
26060WAT     H178422   7.409   1.999   4.959
26060WAT     H278423   7.459   1.998   5.114
26061WAT      O78424   8.230   7.267   1.815
26061WAT     H178425   8.145   7.218   1.800
26061WAT     H278426   8.258   7.312   1.730
26062WAT      O78427   7.118   5.978   6.451
26062WAT     H178428   7.154   5.912   6.517
26062WAT     H278429   7.126   5.940   6.359
26063WAT      O78430   5.545   1.157   6.333
26063WAT     H178431   5.457   1.149   6.286
26063WAT     H278432   5.530   1.158   6.432
26064WAT      O78433   6.315   6.078   7.625
26064WAT     H178434   6.234   6.069   7.683
26064WAT     H278435   6.386   6.127   7.675
26065WAT      O78436   8.628   8.500   9.113
26065WAT     H178437   8.602   8.536   9.203
26065WAT     H278438   8.561   8.431   9.084
26066WAT      O78439   6.412   2.433   3.522
26066WAT     H178440   6.319   2.426   3.487
26066WAT     H278441   6.446   2.343   3.547
26067WAT      O78442   5.436   6.569   9.826
26067WAT     H178443   5.465   6.655   9.785
26067WAT     H278444   5.495   6.547   9.903
26068WAT      O78445   6.362   5.533   5.875
26068WAT     H178446   6.270   5.533   5.914
26068WAT     H278447   6.386   5.441   5.845
26069WAT      O78448   4.540   8.962   7.245
26069WAT     H178449   4.599   8.891   7.207
26069WAT     H278450   4.467   8.919   7.298
26070WAT      O78451   3.853   7.074   5.114
26070WAT     H178452   3.852   7.024   5.028
26070WAT     H278453   3.933   7.047   5.167
26071WAT      O78454   1.580   6.103   4.401
26071WAT     H178455   1.664   6.154   4.416
26071WAT     H278456   1.531   6.141   4.322
26072WAT      O78457   7.046   4.774   3.710
26072WAT     H178458   7.071   4.807   3.619
26072WAT     H278459   7.128   4.756   3.763
26073WAT      O78460   0.226   1.580   9.395
26073WAT     H178461   0.298   1.631   9.347
26073WAT     H278462   0.139   1.628   9.384
26074WAT      O78463   1.543   9.288   5.597
26074WAT     H178464   1.642   9.297   5.588
26074WAT     H278465   1.517   9.301   5.693
26075WAT      O78466   5.531   8.998   5.276
26075WAT     H178467   5.462   8.983   5.347
26075WAT     H278468   5.518   9.088   5.236
26076WAT      O78469   4.447   6.461   6.498
26076WAT     H178470   4.534   6.412   6.503
26076WAT     H278471   4.464   6.559   6.488
26077WAT      O78472   5.970   1.674   0.949
26077WAT     H178473   5.974   1.662   1.048
26077WAT     H278474   5.962   1.771   0.927
26078WAT      O78475   1.903   7.365   9.821
26078WAT     H178476   1.803   7.360   9.820
26078WAT     H278477   1.933   7.404   9.908
26079WAT      O78478   4.795   0.991   5.808
26079WAT     H178479   4.855   1.061   5.847
26079WAT     H278480   4.812   0.904   5.855
26080WAT      O78481   7.509   9.309   4.831
26080WAT     H178482   7.428   9.361   4.858
26080WAT     H278483   7.581   9.371   4.802
26081WAT      O78484   8.305   3.416   6.486
26081WAT     H178485   8.356   3.403   6.401
26081WAT     H278486   8.319   3.509   6.520
26082WAT      O78487   8.018   4.918   8.740
26082WAT     H178488   7.990   4.993   8.680
26082WAT     H278489   8.006   4.831   8.693
26083WAT      O78490   2.162   2.067   1.351
26083WAT     H178491   2.123   1.985   1.309
26083WAT     H278492   2.236   2.102   1.294
26084WAT      O78493   6.574   4.141   3.045
26084WAT     H178494   6.591   4.061   2.987
26084WAT     H278495   6.589   4.224   2.992
26085WAT      O78496   9.623   1.165   5.056
26085WAT     H178497   9.542   1.222   5.067
26085WAT     H278498   9.684   1.178   5.135
26086WAT      O78499   4.603   3.892   5.858
26086WAT     H178500   4.605   3.802   5.813
26086WAT     H278501   4.534   3.949   5.814
26087WAT      O78502   2.903   5.996   1.957
26087WAT     H178503   2.819   6.023   2.004
26087WAT     H278504   2.981   6.007   2.018
26088WAT      O78505   6.784   3.007   6.448
26088WAT     H178506   6.787   2.911   6.478
26088WAT     H278507   6.796   3.012   6.349
26089WAT      O78508   9.237   9.050   9.112
26089WAT     H178509   9.221   8.972   9.051
26089WAT     H278510   9.152   9.102   9.121
26090WAT      O78511   3.465   0.824   9.501
26090WAT     H178512   3.411   0.774   9.433
26090WAT     H278513   3.460   0.776   9.589
26091WAT      O78514   0.881   1.911   0.490
26091WAT     H178515   0.902   1.816   0.513
26091WAT     H278516   0.942   1.942   0.417
26092WAT      O78517   5.496   3.029   6.870
26092WAT     H178518   5.463   2.994   6.958
26092WAT     H278519   5.569   2.971   6.836
26093WAT      O78520   1.374   4.553   4.117
26093WAT     H178521   1.405   4.532   4.210
26093WAT     H278522   1.352   4.650   4.111
26094WAT      O78523   8.024   9.034   3.370
26094WAT     H178524   8.072   8.951   3.398
26094WAT     H278525   8.057   9.112   3.423
26095WAT      O78526   7.162   8.868   0.026
26095WAT     H178527   7.130   8.774   0.038
26095WAT     H278528   7.225   8.891   0.100
26096WAT      O78529   7.813   7.200   8.272
26096WAT     H178530   7.754   7.124   8.301
26096WAT     H278531   7.757   7.279   8.248
26097WAT      O78532   7.135   2.376   6.872
26097WAT     H178533   7.120   2.329   6.960
26097WAT     H278534   7.133   2.475   6.887
26098WAT      O78535   1.452   5.816   5.343
26098WAT     H178536   1.386   5.879   5.302
26098WAT     H278537   1.420   5.787   5.433
26099WAT      O78538   4.076   0.420   3.688
26099WAT     H178539   4.029   0.447   3.605
26099WAT     H278540   4.088   0.321   3.690
26100WAT      O78541   4.995   2.750   6.084
26100WAT     H178542   4.939   2.694   6.144
26100WAT     H278543   4.997   2.844   6.118
26101WAT      O78544   0.397   7.642   5.513
26101WAT     H178545   0.433   7.644   5.606
26101WAT     H278546   0.459   7.591   5.454
26102WAT      O78547   5.286   6.965   7.471
26102WAT     H178548   5.307   6.929   7.380
26102WAT     H278549   5.219   6.905   7.516
26103WAT      O78550   1.896   7.380   2.164
26103WAT     H178551   1.871   7.298   2.113
26103WAT     H278552   1.851   7.379   2.253
26104WAT      O78553   3.662   3.395   6.453
26104WAT     H178554   3.618   3.472   6.406
26104WAT     H278555   3.669   3.415   6.550
26105WAT      O78556   9.176   5.007   0.226
26105WAT     H178557   9.152   5.015   0.323
26105WAT     H278558   9.112   5.059   0.171
26106WAT      O78559   5.828   4.707   5.043
26106WAT     H178560   5.899   4.731   5.109
26106WAT     H278561   5.795   4.614   5.062
26107WAT      O78562   3.654   2.327   4.917
26107WAT     H178563   3.663   2.407   4.856
26107WAT     H278564   3.737   2.317   4.971
26108WAT      O78565   2.852   3.004   5.628
26108WAT     H178566   2.816   2.969   5.715
26108WAT     H278567   2.902   3.088   5.644
26109WAT      O78568   0.957   9.506   3.115
26109WAT     H178569   0.961   9.595   3.069
26109WAT     H278570   0.865   9.490   3.149
26110WAT      O78571   7.209   6.881   3.809
26110WAT     H178572   7.174   6.929   3.729
26110WAT     H278573   7.132   6.852   3.866
26111WAT      O78574   6.305   6.732   1.607
26111WAT     H178575   6.301   6.637   1.637
26111WAT     H278576   6.400   6.764   1.611
26112WAT      O78577   0.208   0.445   1.783
26112WAT     H178578   0.204   0.430   1.882
26112WAT     H278579   0.162   0.370   1.736
26113WAT      O78580   3.782   5.674   2.605
26113WAT     H178581   3.850   5.692   2.676
26113WAT     H278582   3.793   5.581   2.571
26114WAT      O78583   2.840   8.253   7.192
26114WAT     H178584   2.916   8.239   7.127
26114WAT     H278585   2.770   8.183   7.177
26115WAT      O78586   9.524   9.073   6.889
26115WAT     H178587   9.470   9.137   6.835
26115WAT     H278588   9.617   9.108   6.900
26116WAT      O78589   0.298   9.634   9.360
26116WAT     H178590   0.269   9.539   9.366
26116WAT     H278591   0.353   9.658   9.440
26117WAT      O78592   5.170   3.627   1.976
26117WAT     H178593   5.112   3.692   1.927
26117WAT     H278594   5.180   3.544   1.922
26118WAT      O78595   4.661   4.773   5.532
26118WAT     H178596   4.602   4.694   5.547
26118WAT     H278597   4.754   4.742   5.511
26119WAT      O78598   0.234   8.738   8.436
26119WAT     H178599   0.227   8.814   8.501
26119WAT     H278600   0.273   8.772   8.351
26120WAT      O78601   6.699   1.661   0.580
26120WAT     H178602   6.743   1.580   0.618
26120WAT     H278603   6.716   1.740   0.639
26121WAT      O78604   1.801   8.595   2.453
26121WAT     H178605   1.868   8.632   2.388
26121WAT     H278606   1.797   8.495   2.443
26122WAT      O78607   6.274   2.472   7.110
26122WAT     H178608   6.252   2.557   7.157
26122WAT     H278609   6.295   2.491   7.014
26123WAT      O78610   8.048   1.958   3.715
26123WAT     H178611   7.957   2.000   3.720
26123WAT     H278612   8.094   1.988   3.631
26124WAT      O78613   6.709   0.603   0.201
26124WAT     H178614   6.665   0.663   0.134
26124WAT     H278615   6.640   0.559   0.257
26125WAT      O78616   2.019   8.383   1.960
26125WAT     H178617   2.022   8.389   1.860
26125WAT     H278618   1.959   8.308   1.987
26126WAT      O78619   8.590   4.704   8.666
26126WAT     H178620   8.650   4.774   8.706
26126WAT     H278621   8.581   4.628   8.730
26127WAT      O78622   0.154   7.709   4.767
26127WAT     H178623   0.084   7.699   4.837
26127WAT     H278624   0.217   7.783   4.793
26128WAT      O78625   1.604   3.344   9.436
26128WAT     H178626   1.626   3.418   9.373
26128WAT     H278627   1.534   3.375   9.501
26129WAT      O78628   5.887   5.839   1.895
26129WAT     H178629   5.900   5.753   1.945
26129WAT     H278630   5.810   5.889   1.935
26130WAT      O78631   8.412   9.408   3.015
26130WAT     H178632   8.329   9.428   2.963
26130WAT     H278633   8.405   9.318   3.057
26131WAT      O78634   7.727   1.704   6.695
26131WAT     H178635   7.737   1.699   6.795
26131WAT     H278636   7.630   1.708   6.671
26132WAT      O78637   7.322   0.529   2.863
26132WAT     H178638   7.379   0.524   2.781
26132WAT     H278639   7.283   0.439   2.881
26133WAT      O78640   8.699   3.880   5.283
26133WAT     H178641   8.716   3.859   5.380
26133WAT     H278642   8.759   3.824   5.226
26134WAT      O78643   4.628   6.234   1.399
26134WAT     H178644   4.728   6.222   1.404
26134WAT     H278645   4.584   6.148   1.424
26135WAT      O78646   9.514   7.211   2.183
26135WAT     H178647   9.613   7.217   2.198
26135WAT     H278648   9.466   7.227   2.270
26136WAT      O78649   7.167   7.498   8.871
26136WAT     H178650   7.105   7.572   8.843
26136WAT     H278651   7.202   7.452   8.789
26137WAT      O78652   2.953   7.739   9.496
26137WAT     H178653   3.049   7.763   9.483
26137WAT     H278654   2.897   7.822   9.495
26138WAT      O78655   3.304   7.292   3.477
26138WAT     H178656   3.224   7.237   3.452
26138WAT     H278657   3.332   7.269   3.570
26139WAT      O78658   8.383   0.436   0.853
26139WAT     H178659   8.350   0.492   0.929
26139WAT     H278660   8.420   0.350   0.887
26140WAT      O78661   1.179   8.270   6.837
26140WAT     H178662   1.103   8.208   6.855
26140WAT     H278663   1.145   8.363   6.826
26141WAT      O78664   7.805   1.874   8.642
26141WAT     H178665   7.745   1.849   8.566
26141WAT     H278666   7.900   1.861   8.615
26142WAT      O78667   0.429   1.364   3.786
26142WAT     H178668   0.354   1.358   3.720
26142WAT     H278669   0.517   1.362   3.737
26143WAT      O78670   7.302   5.018   1.209
26143WAT     H178671   7.221   5.050   1.159
26143WAT     H278672   7.369   5.092   1.214
26144WAT      O78673   7.678   2.601   1.877
26144WAT     H178674   7.773   2.613   1.848
26144WAT     H278675   7.660   2.660   1.956
26145WAT      O78676   9.061   0.061   0.116
26145WAT     H178677   9.013   0.044   0.202
26145WAT     H278678   9.051   0.158   0.092
26146WAT      O78679   7.250   1.062   3.381
26146WAT     H178680   7.191   1.125   3.432
26146WAT     H278681   7.228   0.968   3.407
26147WAT      O78682   2.433   3.301   5.203
26147WAT     H178683   2.421   3.232   5.275
26147WAT     H278684   2.464   3.256   5.119
26148WAT      O78685   9.745   2.713   2.386
26148WAT     H178686   9.688   2.786   2.350
26148WAT     H278687   9.806   2.680   2.314
26149WAT      O78688   8.233   9.184   0.461
26149WAT     H178689   8.298   9.178   0.385
26149WAT     H278690   8.234   9.277   0.498
26150WAT      O78691   7.863   9.437   1.654
26150WAT     H178692   7.786   9.451   1.715
26150WAT     H278693   7.855   9.497   1.575
26151WAT      O78694   5.458   8.612   4.524
26151WAT     H178695   5.462   8.637   4.621
26151WAT     H278696   5.447   8.695   4.469
26152WAT      O78697   7.383   1.248   4.227
26152WAT     H178698   7.412   1.328   4.279
26152WAT     H278699   7.326   1.277   4.150
26153WAT      O78700   3.769   8.473   0.001
26153WAT     H178701   3.672   8.456   0.019
26153WAT     H278702   3.825   8.422   0.066
26154WAT      O78703   7.714   8.632   4.648
26154WAT     H178704   7.686   8.616   4.743
26154WAT     H278705   7.684   8.556   4.591
26155WAT      O78706   8.509   1.241   1.069
26155WAT     H178707   8.580   1.172   1.084
26155WAT     H278708   8.544   1.312   1.007
26156WAT      O78709   7.965   6.627   6.688
26156WAT     H178710   8.001   6.692   6.621
26156WAT     H278711   7.895   6.570   6.646
26157WAT      O78712   5.909   3.154   6.751
26157WAT     H178713   5.866   3.165   6.840
26157WAT     H278714   6.008   3.161   6.761
26158WAT      O78715   9.052   2.435   3.481
26158WAT     H178716   9.056   2.506   3.410
26158WAT     H278717   9.016   2.351   3.442
26159WAT      O78718   1.760   2.852   3.769
26159WAT     H178719   1.721   2.880   3.856
26159WAT     H278720   1.805   2.763   3.779
26160WAT      O78721   8.451   3.993   7.620
26160WAT     H178722   8.445   3.983   7.521
26160WAT     H278723   8.495   4.080   7.642
26161WAT      O78724   5.815   2.660   9.465
26161WAT     H178725   5.717   2.653   9.443
26161WAT     H278726   5.826   2.718   9.545
26162WAT      O78727   2.515   5.287   3.113
26162WAT     H178728   2.601   5.303   3.161
26162WAT     H278729   2.443   5.342   3.155
26163WAT      O78730   4.760   6.501   3.892
26163WAT     H178731   4.764   6.420   3.834
26163WAT     H278732   4.815   6.486   3.974
26164WAT      O78733   6.928   6.745   1.513
26164WAT     H178734   6.993   6.674   1.488
26164WAT     H278735   6.896   6.730   1.607
26165WAT      O78736   9.499   4.284   7.416
26165WAT     H178737   9.563   4.360   7.426
26165WAT     H278738   9.521   4.213   7.483
26166WAT      O78739   9.218   9.166   9.758
26166WAT     H178740   9.174   9.165   9.847
26166WAT     H278741   9.156   9.128   9.689
26167WAT      O78742   3.183   9.645   4.158
26167WAT     H178743   3.136   9.558   4.175
26167WAT     H278744   3.154   9.682   4.070
26168WAT      O78745   6.168   3.024   0.232
26168WAT     H178746   6.145   3.011   0.135
26168WAT     H278747   6.126   2.953   0.287
26169WAT      O78748   2.356   6.458   7.801
26169WAT     H178749   2.284   6.484   7.864
26169WAT     H278750   2.444   6.489   7.836
26170WAT      O78751   9.868   3.446   5.350
26170WAT     H178752   9.943   3.396   5.306
26170WAT     H278753   9.780   3.413   5.315
26171WAT      O78754   0.466   8.266   4.974
26171WAT     H178755   0.558   8.301   4.991
26171WAT     H278756   0.469   8.167   4.962
26172WAT      O78757   9.596   2.453   4.390
26172WAT     H178758   9.509   2.421   4.352
26172WAT     H278759   9.672   2.412   4.340
26173WAT      O78760   1.606   3.953   3.055
26173WAT     H178761   1.640   3.926   3.145
26173WAT     H278762   1.634   4.047   3.036
26174WAT      O78763   9.474   8.787   6.813
26174WAT     H178764   9.551   8.738   6.853
26174WAT     H278765   9.482   8.884   6.834
26175WAT      O78766   5.952   2.045   2.690
26175WAT     H178767   6.029   1.983   2.707
26175WAT     H278768   5.930   2.094   2.775
26176WAT      O78769   8.188   9.551   6.453
26176WAT     H178770   8.126   9.568   6.530
26176WAT     H278771   8.157   9.604   6.373
26177WAT      O78772   9.691   2.975   9.846
26177WAT     H178773   9.677   2.929   9.934
26177WAT     H278774   9.782   3.017   9.844
26178WAT      O78775   2.529   4.706   4.449
26178WAT     H178776   2.442   4.666   4.480
26178WAT     H278777   2.567   4.764   4.521
26179WAT      O78778   2.321   3.009   1.292
26179WAT     H178779   2.246   3.045   1.347
26179WAT     H278780   2.294   2.922   1.252
26180WAT      O78781   9.448   3.136   8.899
26180WAT     H178782   9.403   3.216   8.860
26180WAT     H278783   9.493   3.084   8.826
26181WAT      O78784   5.563   3.193   4.195
26181WAT     H178785   5.651   3.176   4.240
26181WAT     H278786   5.579   3.211   4.098
26182WAT      O78787   1.194   9.464   2.517
26182WAT     H178788   1.169   9.377   2.474
26182WAT     H278789   1.131   9.535   2.487
26183WAT      O78790   2.063   0.259   8.461
26183WAT     H178791   2.035   0.331   8.398
26183WAT     H278792   2.137   0.292   8.519
26184WAT      O78793   1.011   4.715   8.688
26184WAT     H178794   0.949   4.641   8.713
26184WAT     H278795   1.091   4.678   8.641
26185WAT      O78796   8.570   6.112   2.718
26185WAT     H178797   8.539   6.098   2.813
26185WAT     H278798   8.593   6.023   2.678
26186WAT      O78799   1.507   8.863   9.402
26186WAT     H178800   1.527   8.959   9.382
26186WAT     H278801   1.504   8.811   9.317
26187WAT      O78802   5.104   3.805   0.149
26187WAT     H178803   5.153   3.892   0.155
26187WAT     H278804   5.075   3.789   0.054
26188WAT      O78805   8.863   6.021   4.666
26188WAT     H178806   8.848   5.976   4.578
26188WAT     H278807   8.944   6.079   4.661
26189WAT      O78808   2.731   2.718   4.815
26189WAT     H178809   2.829   2.707   4.829
26189WAT     H278810   2.713   2.740   4.719
26190WAT      O78811   6.470   7.682   8.015
26190WAT     H178812   6.473   7.760   7.953
26190WAT     H278813   6.519   7.706   8.100
26191WAT      O78814   5.753   0.073   2.908
26191WAT     H178815   5.797  -0.016   2.921
26191WAT     H278816   5.810   0.144   2.948
26192WAT      O78817   7.435   1.583   5.739
26192WAT     H178818   7.343   1.593   5.776
26192WAT     H278819   7.466   1.669   5.699
26193WAT      O78820   2.559   2.431   8.854
26193WAT     H178821   2.490   2.457   8.786
26193WAT     H278822   2.518   2.433   8.945
26194WAT      O78823   4.544   2.651   0.756
26194WAT     H178824   4.474   2.615   0.817
26194WAT     H278825   4.621   2.587   0.751
26195WAT      O78826   6.336   9.812   3.079
26195WAT     H178827   6.426   9.852   3.062
26195WAT     H278828   6.276   9.881   3.120
26196WAT      O78829   0.830   0.262   1.532
26196WAT     H178830   0.882   0.209   1.599
26196WAT     H278831   0.889   0.285   1.455
26197WAT      O78832   7.677   6.807   6.610
26197WAT     H178833   7.715   6.810   6.518
26197WAT     H278834   7.730   6.866   6.670
26198WAT      O78835   9.741   6.219   5.393
26198WAT     H178836   9.807   6.291   5.372
26198WAT     H278837   9.762   6.137   5.340
26199WAT      O78838   5.817   4.294   2.474
26199WAT     H178839   5.761   4.359   2.525
26199WAT     H278840   5.883   4.343   2.417
26200WAT      O78841   4.873   4.835   2.493
26200WAT     H178842   4.920   4.892   2.561
26200WAT     H278843   4.847   4.890   2.414
26201WAT      O78844   1.209   6.466   1.198
26201WAT     H178845   1.292   6.468   1.255
26201WAT     H278846   1.133   6.429   1.252
26202WAT      O78847   5.485   7.419   1.240
26202WAT     H178848   5.389   7.426   1.267
26202WAT     H278849   5.502   7.478   1.162
26203WAT      O78850   9.773   2.979   6.298
26203WAT     H178851   9.769   2.921   6.379
26203WAT     H278852   9.810   2.928   6.221
26204WAT      O78853   6.449   8.149   4.707
26204WAT     H178854   6.420   8.127   4.613
26204WAT     H278855   6.412   8.081   4.770
26205WAT      O78856   9.258   2.044   2.051
26205WAT     H178857   9.254   2.096   2.136
26205WAT     H278858   9.172   1.994   2.038
26206WAT      O78859   0.222   1.259   6.204
26206WAT     H178860   0.164   1.213   6.137
26206WAT     H278861   0.245   1.350   6.171
26207WAT      O78862   4.987   5.661   6.420
26207WAT     H178863   5.010   5.569   6.453
26207WAT     H278864   4.975   5.722   6.499
26208WAT      O78865   4.569   2.458   7.862
26208WAT     H178866   4.508   2.504   7.926
26208WAT     H278867   4.662   2.458   7.899
26209WAT      O78868   4.930   4.473   5.566
26209WAT     H178869   5.018   4.457   5.520
26209WAT     H278870   4.867   4.399   5.543
26210WAT      O78871   0.403   6.175   6.028
26210WAT     H178872   0.376   6.270   6.020
26210WAT     H278873   0.322   6.118   6.039
26211WAT      O78874   0.821   4.011   1.754
26211WAT     H178875   0.889   4.084   1.743
26211WAT     H278876   0.730   4.051   1.764
26212WAT      O78877   1.050   6.435   4.524
26212WAT     H178878   1.029   6.360   4.588
26212WAT     H278879   0.981   6.507   4.534
26213WAT      O78880   1.200   9.683   0.523
26213WAT     H178881   1.193   9.745   0.445
26213WAT     H278882   1.165   9.729   0.605
26214WAT      O78883   8.874   1.326   3.002
26214WAT     H178884   8.952   1.386   2.984
26214WAT     H278885   8.892   1.235   2.963
26215WAT      O78886   5.975   4.476   2.338
26215WAT     H178887   6.034   4.462   2.258
26215WAT     H278888   5.898   4.534   2.312
26216WAT      O78889   1.302   8.707   6.301
26216WAT     H178890   1.213   8.728   6.341
26216WAT     H278891   1.291   8.679   6.205
26217WAT      O78892   2.191   4.051   0.643
26217WAT     H178893   2.193   4.064   0.742
26217WAT     H278894   2.216   4.136   0.597
26218WAT      O78895   3.677   0.383   5.597
26218WAT     H178896   3.592   0.361   5.549
26218WAT     H278897   3.670   0.474   5.638
26219WAT      O78898   3.361   7.173   3.729
26219WAT     H178899   3.351   7.126   3.817
26219WAT     H278900   3.441   7.233   3.732
26220WAT      O78901   9.143   2.866   3.441
26220WAT     H178902   9.215   2.919   3.395
26220WAT     H278903   9.088   2.927   3.497
26221WAT      O78904   1.754   7.064   7.783
26221WAT     H178905   1.759   7.116   7.868
26221WAT     H278906   1.680   7.101   7.726
26222WAT      O78907   9.560   5.075   5.080
26222WAT     H178908   9.470   5.107   5.050
26222WAT     H278909   9.630   5.140   5.050
26223WAT      O78910   7.804   5.385   2.416
26223WAT     H178911   7.792   5.297   2.371
26223WAT     H278912   7.893   5.389   2.460
26224WAT      O78913   3.425   2.932   6.478
26224WAT     H178914   3.330   2.932   6.448
26224WAT     H278915   3.477   2.999   6.426
26225WAT      O78916   7.247   2.914   1.303
26225WAT     H178917   7.307   2.970   1.246
26225WAT     H278918   7.153   2.920   1.268
26226WAT      O78919   5.018   4.417   9.296
26226WAT     H178920   5.071   4.483   9.351
26226WAT     H278921   4.934   4.393   9.346
26227WAT      O78922   2.379   2.410   4.682
26227WAT     H178923   2.422   2.320   4.690
26227WAT     H278924   2.315   2.410   4.606
26228WAT      O78925   4.545   1.097   7.092
26228WAT     H178926   4.454   1.130   7.116
26228WAT     H278927   4.547   1.071   6.996
26229WAT      O78928   4.648   4.027   8.134
26229WAT     H178929   4.570   4.073   8.177
26229WAT     H278930   4.615   3.967   8.061
26230WAT      O78931   9.350   2.938   8.482
26230WAT     H178932   9.402   2.918   8.399
26230WAT     H278933   9.302   2.855   8.512
26231WAT      O78934   8.258   1.372   0.278
26231WAT     H178935   8.298   1.387   0.187
26231WAT     H278936   8.292   1.441   0.341
26232WAT      O78937   9.546   1.111   2.710
26232WAT     H178938   9.569   1.068   2.623
26232WAT     H278939   9.458   1.076   2.742
26233WAT      O78940   5.807   2.594   4.032
26233WAT     H178941   5.795   2.507   4.079
26233WAT     H278942   5.867   2.653   4.086
26234WAT      O78943   0.906   5.741   3.189
26234WAT     H178944   0.854   5.657   3.174
26234WAT     H278945   0.854   5.802   3.248
26235WAT      O78946   4.249   3.410   3.180
26235WAT     H178947   4.227   3.485   3.241
26235WAT     H278948   4.167   3.353   3.166
26236WAT      O78949   5.604   1.358   7.893
26236WAT     H178950   5.581   1.456   7.893
26236WAT     H278951   5.522   1.305   7.916
26237WAT      O78952   6.882   3.786   9.480
26237WAT     H178953   6.902   3.688   9.475
26237WAT     H278954   6.966   3.837   9.460
26238WAT      O78955   4.646   9.134   3.276
26238WAT     H178956   4.561   9.090   3.245
26238WAT     H278957   4.654   9.124   3.376
26239WAT      O78958   3.835   0.042   3.633
26239WAT     H178959   3.916   0.097   3.612
26239WAT     H278960   3.784   0.085   3.708
26240WAT      O78961   8.664   1.325   1.317
26240WAT     H178962   8.621   1.255   1.260
26240WAT     H278963   8.698   1.399   1.259
26241WAT      O78964   0.217   3.506   3.900
26241WAT     H178965   0.215   3.499   3.999
26241WAT     H278966   0.129   3.477   3.863
26242WAT      O78967   9.233   4.106   3.623
26242WAT     H178968   9.155   4.046   3.609
26242WAT     H278969   9.317   4.059   3.597
26243WAT      O78970   6.300   0.829   5.159
26243WAT     H178971   6.384   0.780   5.137
26243WAT     H278972   6.221   0.776   5.126
26244WAT      O78973   7.427   6.529   5.111
26244WAT     H178974   7.488   6.454   5.086
26244WAT     H278975   7.427   6.541   5.210
26245WAT      O78976   7.549   6.796   3.381
26245WAT     H178977   7.629   6.775   3.437
26245WAT     H278978   7.573   6.864   3.312
26246WAT      O78979   5.479   7.442   8.405
26246WAT     H178980   5.473   7.500   8.323
26246WAT     H278981   5.558   7.469   8.459
26247WAT      O78982   2.592   7.840   6.556
26247WAT     H178983   2.642   7.871   6.637
26247WAT     H278984   2.494   7.853   6.569
26248WAT      O78985   9.861   7.472   5.353
26248WAT     H178986   9.795   7.533   5.397
26248WAT     H278987   9.895   7.514   5.269
26249WAT      O78988   6.955   6.120   0.384
26249WAT     H178989   6.954   6.170   0.471
26249WAT     H278990   6.864   6.086   0.364
26250WAT      O78991   9.406   1.108   7.189
26250WAT     H178992   9.319   1.157   7.192
26250WAT     H278993   9.443   1.110   7.096
26251WAT      O78994   2.447   2.853   5.607
26251WAT     H178995   2.513   2.916   5.565
26251WAT     H278996   2.493   2.768   5.633
26252WAT      O78997   8.434   7.006   6.865
26252WAT     H178998   8.433   6.981   6.961
26252WAT     H278999   8.426   6.923   6.809
26253WAT      O79000   0.715   2.749   5.936
26253WAT     H179001   0.629   2.799   5.942
26253WAT     H279002   0.762   2.774   5.852
26254WAT      O79003   7.401   9.604   5.789
26254WAT     H179004   7.473   9.535   5.795
26254WAT     H279005   7.321   9.573   5.841
26255WAT      O79006   4.717   9.443   2.841
26255WAT     H179007   4.663   9.460   2.923
26255WAT     H279008   4.658   9.452   2.760
26256WAT      O79009   8.313   4.563   0.648
26256WAT     H179010   8.281   4.469   0.653
26256WAT     H279011   8.234   4.625   0.654
26257WAT      O79012   7.824   7.969   6.319
26257WAT     H179013   7.747   8.016   6.362
26257WAT     H279014   7.875   8.033   6.261
26258WAT      O79015   6.628   1.933   0.717
26258WAT     H179016   6.694   1.996   0.756
26258WAT     H279017   6.574   1.979   0.646
26259WAT      O79018   5.333   0.881   6.950
26259WAT     H179019   5.302   0.815   7.018
26259WAT     H279020   5.266   0.954   6.941
26260WAT      O79021   4.239   2.662   3.291
26260WAT     H179022   4.287   2.578   3.317
26260WAT     H279023   4.244   2.674   3.192
26261WAT      O79024   1.963   6.654   9.687
26261WAT     H179025   1.983   6.687   9.779
26261WAT     H279026   2.048   6.626   9.642
26262WAT      O79027   2.427   1.231   6.017
26262WAT     H179028   2.497   1.181   5.967
26262WAT     H279029   2.397   1.177   6.096
26263WAT      O79030   1.162   8.763   7.338
26263WAT     H179031   1.109   8.685   7.370
26263WAT     H279032   1.142   8.781   7.242
26264WAT      O79033   5.761   5.179   1.124
26264WAT     H179034   5.713   5.095   1.149
26264WAT     H279035   5.742   5.250   1.192
26265WAT      O79036   6.196   6.549   6.603
26265WAT     H179037   6.116   6.601   6.572
26265WAT     H279038   6.270   6.559   6.537
26266WAT      O79039   8.510   7.009   5.682
26266WAT     H179040   8.451   7.004   5.602
26266WAT     H279041   8.455   6.993   5.765
26267WAT      O79042   2.225   5.488   2.201
26267WAT     H179043   2.165   5.567   2.193
26267WAT     H279044   2.301   5.510   2.263
26268WAT      O79045   9.210   3.798   3.202
26268WAT     H179046   9.266   3.746   3.137
26268WAT     H279047   9.155   3.734   3.257
26269WAT      O79048   8.392   3.249   8.313
26269WAT     H179049   8.443   3.241   8.227
26269WAT     H279050   8.361   3.159   8.341
26270WAT      O79051   6.581   9.055   4.347
26270WAT     H179052   6.598   8.957   4.360
26270WAT     H279053   6.567   9.098   4.436
26271WAT      O79054   9.164   8.178   9.301
26271WAT     H179055   9.163   8.128   9.215
26271WAT     H279056   9.259   8.200   9.325
26272WAT      O79057   2.439   1.361   2.055
26272WAT     H179058   2.397   1.271   2.047
26272WAT     H279059   2.369   1.429   2.078
26273WAT      O79060   1.481   1.967   1.583
26273WAT     H179061   1.532   1.881   1.584
26273WAT     H279062   1.516   2.026   1.510
26274WAT      O79063   6.642   7.771   1.982
26274WAT     H179064   6.702   7.760   2.061
26274WAT     H279065   6.629   7.869   1.964
26275WAT      O79066   7.407   1.497   1.560
26275WAT     H179067   7.455   1.565   1.615
26275WAT     H279068   7.314   1.530   1.540
26276WAT      O79069   8.255   6.910   9.282
26276WAT     H179070   8.201   6.885   9.362
26276WAT     H279071   8.289   7.003   9.292
26277WAT      O79072   0.607   3.900   4.526
26277WAT     H179073   0.584   3.848   4.444
26277WAT     H279074   0.522   3.925   4.574
26278WAT      O79075   2.400   4.329   8.690
26278WAT     H179076   2.397   4.429   8.692
26278WAT     H279077   2.307   4.293   8.699
26279WAT      O79078   7.095   1.931   0.250
26279WAT     H179079   7.188   1.947   0.217
26279WAT     H279080   7.099   1.881   0.337
26280WAT      O79081   7.220   1.877   4.325
26280WAT     H179082   7.144   1.930   4.360
26280WAT     H279083   7.282   1.853   4.400
26281WAT      O79084   9.598   3.311   9.039
26281WAT     H179085   9.568   3.236   8.980
26281WAT     H279086   9.547   3.308   9.125
26282WAT      O79087   6.009   4.626   7.537
26282WAT     H179088   6.028   4.541   7.585
26282WAT     H279089   5.997   4.700   7.603
26283WAT      O79090   5.917   5.548   7.670
26283WAT     H179091   5.933   5.645   7.653
26283WAT     H279092   6.002   5.504   7.699
26284WAT      O79093   6.201   8.289   6.351
26284WAT     H179094   6.192   8.337   6.439
26284WAT     H279095   6.159   8.343   6.279
26285WAT      O79096   6.515   0.816   7.922
26285WAT     H179097   6.572   0.849   7.846
26285WAT     H279098   6.449   0.887   7.947
26286WAT      O79099   1.283   0.988   0.039
26286WAT     H179100   1.333   1.064   0.081
26286WAT     H279101   1.282   1.000  -0.061
26287WAT      O79102   1.323   1.076   8.666
26287WAT     H179103   1.420   1.062   8.688
26287WAT     H279104   1.267   1.040   8.740
26288WAT      O79105   2.704   3.506   8.468
26288WAT     H179106   2.766   3.429   8.483
26288WAT     H279107   2.655   3.526   8.553
26289WAT      O79108   3.745   3.027   4.853
26289WAT     H179109   3.683   2.988   4.921
26289WAT     H279110   3.829   3.057   4.897
26290WAT      O79111   2.891   5.490   5.771
26290WAT     H179112   2.969   5.475   5.831
26290WAT     H279113   2.860   5.403   5.734
26291WAT      O79114   4.738   2.971   2.296
26291WAT     H179115   4.662   2.993   2.359
26291WAT     H279116   4.705   2.908   2.226
26292WAT      O79117   5.655   6.641   2.039
26292WAT     H179118   5.747   6.626   2.003
26292WAT     H279119   5.610   6.553   2.053
26293WAT      O79120   2.707   2.654   2.499
26293WAT     H179121   2.776   2.715   2.539
26293WAT     H279122   2.618   2.673   2.540
26294WAT      O79123   1.853   9.810   2.631
26294WAT     H179124   1.774   9.749   2.620
26294WAT     H279125   1.881   9.813   2.726
26295WAT      O79126   7.675   1.330   2.787
26295WAT     H179127   7.637   1.328   2.879
26295WAT     H279128   7.601   1.323   2.720
26296WAT      O79129   3.346   4.241   4.471
26296WAT     H179130   3.278   4.167   4.474
26296WAT     H279131   3.425   4.211   4.418
26297WAT      O79132   5.301   9.628   5.676
26297WAT     H179133   5.204   9.632   5.701
26297WAT     H279134   5.315   9.680   5.591
26298WAT      O79135   4.120   6.731   7.034
26298WAT     H179136   4.184   6.740   7.110
26298WAT     H279137   4.051   6.662   7.056
26299WAT      O79138   2.097   3.104   1.401
26299WAT     H179139   2.138   3.085   1.490
26299WAT     H279140   1.998   3.088   1.405
26300WAT      O79141   7.530   7.576   8.598
26300WAT     H179142   7.510   7.478   8.592
26300WAT     H279143   7.593   7.602   8.525
26301WAT      O79144   6.147   3.698   8.719
26301WAT     H179145   6.108   3.698   8.627
26301WAT     H279146   6.087   3.648   8.781
26302WAT      O79147   1.445   2.200   5.484
26302WAT     H179148   1.440   2.268   5.412
26302WAT     H279149   1.474   2.243   5.569
26303WAT      O79150   6.710   4.157   5.823
26303WAT     H179151   6.759   4.142   5.737
26303WAT     H279152   6.773   4.194   5.892
26304WAT      O79153   5.890   0.869   2.598
26304WAT     H179154   5.926   0.776   2.613
26304WAT     H279155   5.907   0.924   2.680
26305WAT      O79156   5.163   1.142   4.293
26305WAT     H179157   5.222   1.093   4.229
26305WAT     H279158   5.193   1.124   4.386
26306WAT      O79159   7.781   6.562   9.431
26306WAT     H179160   7.724   6.585   9.510
26306WAT     H279161   7.760   6.624   9.355
26307WAT      O79162   5.767   2.682   0.551
26307WAT     H179163   5.697   2.732   0.501
26307WAT     H279164   5.836   2.647   0.487
26308WAT      O79165   2.871   4.053   4.114
26308WAT     H179166   2.879   4.078   4.210
26308WAT     H279167   2.950   4.089   4.063
26309WAT      O79168   3.451   0.575   0.316
26309WAT     H179169   3.476   0.478   0.310
26309WAT     H279170   3.534   0.630   0.325
26310WAT      O79171   0.627   2.048   7.336
26310WAT     H179172   0.607   2.146   7.332
26310WAT     H279173   0.558   2.003   7.394
26311WAT      O79174   4.212   3.082   5.470
26311WAT     H179175   4.288   3.145   5.482
26311WAT     H279176   4.233   2.996   5.517
26312WAT      O79177   2.703   0.960   3.032
26312WAT     H179178   2.679   0.920   3.121
26312WAT     H279179   2.761   1.040   3.047
26313WAT      O79180   0.776   7.783   7.788
26313WAT     H179181   0.788   7.868   7.735
26313WAT     H279182   0.712   7.723   7.740
26314WAT      O79183   7.701   3.489   5.025
26314WAT     H179184   7.736   3.556   5.090
26314WAT     H279185   7.694   3.530   4.934
26315WAT      O79186   3.184   0.548   8.615
26315WAT     H179187   3.232   0.463   8.593
26315WAT     H279188   3.209   0.618   8.548
26316WAT      O79189   7.753   2.825   0.423
26316WAT     H179190   7.694   2.905   0.431
26316WAT     H279191   7.813   2.836   0.343
26317WAT      O79192   1.612   8.316   0.312
26317WAT     H179193   1.685   8.277   0.256
26317WAT     H279194   1.640   8.319   0.407
26318WAT      O79195   6.023   4.609   7.281
26318WAT     H179196   6.077   4.668   7.221
26318WAT     H279197   6.050   4.625   7.376
26319WAT      O79198   1.213   4.075   7.944
26319WAT     H179199   1.139   4.034   7.997
26319WAT     H279200   1.238   4.014   7.869
26320WAT      O79201   2.285   4.599   2.131
26320WAT     H179202   2.359   4.591   2.197
26320WAT     H279203   2.240   4.688   2.141
26321WAT      O79204   8.967   0.063   8.061
26321WAT     H179205   8.934   0.123   8.134
26321WAT     H279206   9.062   0.084   8.041
26322WAT      O79207   6.050   9.481   7.338
26322WAT     H179208   5.998   9.494   7.422
26322WAT     H279209   6.147   9.499   7.356
26323WAT      O79210   4.754   3.037   5.281
26323WAT     H179211   4.766   3.002   5.188
26323WAT     H279212   4.814   3.117   5.294
26324WAT      O79213   9.157   8.594   5.313
26324WAT     H179214   9.207   8.617   5.229
26324WAT     H279215   9.182   8.502   5.342
26325WAT      O79216   1.791   5.397   0.083
26325WAT     H179217   1.823   5.467   0.019
26325WAT     H279218   1.772   5.312   0.033
26326WAT      O79219   0.269   3.465   0.360
26326WAT     H179220   0.275   3.451   0.261
26326WAT     H279221   0.296   3.381   0.407
26327WAT      O79222   3.297   0.812   3.892
26327WAT     H179223   3.372   0.784   3.832
26327WAT     H279224   3.264   0.732   3.943
26328WAT      O79225   9.636   7.407   1.775
26328WAT     H179226   9.657   7.321   1.728
26328WAT     H279227   9.708   7.426   1.842
26329WAT      O79228   1.587   8.039   1.443
26329WAT     H179229   1.589   8.078   1.351
26329WAT     H279230   1.656   7.967   1.450
26330WAT      O79231   7.485   7.487   1.614
26330WAT     H179232   7.526   7.553   1.552
26330WAT     H279233   7.395   7.520   1.643
26331WAT      O79234   0.338   0.738   5.438
26331WAT     H179235   0.387   0.666   5.487
26331WAT     H279236   0.264   0.773   5.495
26332WAT      O79237   0.146   5.187   9.607
26332WAT     H179238   0.134   5.130   9.525
26332WAT     H279239   0.155   5.128   9.687
26333WAT      O79240   7.476   7.453   9.520
26333WAT     H179241   7.391   7.451   9.468
26333WAT     H279242   7.540   7.385   9.482
26334WAT      O79243   3.599   5.994   2.204
26334WAT     H179244   3.564   5.947   2.124
26334WAT     H279245   3.697   6.014   2.191
26335WAT      O79246   0.567   7.608   6.313
26335WAT     H179247   0.585   7.516   6.346
26335WAT     H279248   0.486   7.607   6.254
26336WAT      O79249   9.433   2.349   6.890
26336WAT     H179250   9.435   2.296   6.805
26336WAT     H279251   9.463   2.443   6.871
26337WAT      O79252   5.521   1.006   5.547
26337WAT     H179253   5.528   1.079   5.615
26337WAT     H279254   5.551   0.919   5.588
26338WAT      O79255   7.677   7.800   8.186
26338WAT     H179256   7.595   7.783   8.240
26338WAT     H279257   7.655   7.860   8.110
26339WAT      O79258   0.679   9.517   6.875
26339WAT     H179259   0.605   9.477   6.928
26339WAT     H279260   0.735   9.444   6.836
26340WAT      O79261   7.698   2.685   6.568
26340WAT     H179262   7.730   2.778   6.585
26340WAT     H279263   7.607   2.688   6.527
26341WAT      O79264   6.002   6.449   1.747
26341WAT     H179265   5.972   6.471   1.654
26341WAT     H279266   6.016   6.350   1.755
26342WAT      O79267   8.048   7.956   6.557
26342WAT     H179268   8.003   8.043   6.536
26342WAT     H279269   7.996   7.881   6.518
26343WAT      O79270   9.621   5.029   2.206
26343WAT     H179271   9.568   4.947   2.184
26343WAT     H279272   9.688   5.007   2.277
26344WAT      O79273   0.790   4.366   0.370
26344WAT     H179274   0.700   4.323   0.360
26344WAT     H279275   0.828   4.343   0.460
26345WAT      O79276   5.422   5.752   2.492
26345WAT     H179277   5.374   5.671   2.460
26345WAT     H279278   5.359   5.809   2.546
26346WAT      O79279   3.496   5.057   3.112
26346WAT     H179280   3.566   5.119   3.148
26346WAT     H279281   3.426   5.044   3.182
26347WAT      O79282   1.500   5.322   4.450
26347WAT     H179283   1.528   5.262   4.525
26347WAT     H279284   1.498   5.270   4.365
26348WAT      O79285   3.067   5.225   8.513
26348WAT     H179286   3.106   5.163   8.444
26348WAT     H279287   3.110   5.206   8.601
26349WAT      O79288   2.591   1.407   3.741
26349WAT     H179289   2.518   1.461   3.784
26349WAT     H279290   2.559   1.313   3.728
26350WAT      O79291   8.066   7.595   0.327
26350WAT     H179292   8.082   7.645   0.242
26350WAT     H279293   8.153   7.581   0.374
26351WAT      O79294   3.860   3.803   3.651
26351WAT     H179295   3.788   3.742   3.684
26351WAT     H279296   3.937   3.800   3.714
26352WAT      O79297   5.527   7.286   2.121
26352WAT     H179298   5.498   7.190   2.120
26352WAT     H279299   5.543   7.318   2.028
26353WAT      O79300   2.781   6.560   5.779
26353WAT     H179301   2.818   6.489   5.718
26353WAT     H279302   2.801   6.535   5.874
26354WAT      O79303   0.635   5.461   8.357
26354WAT     H179304   0.699   5.468   8.433
26354WAT     H279305   0.658   5.382   8.300
26355WAT      O79306   8.734   9.693   2.922
26355WAT     H179307   8.791   9.622   2.879
26355WAT     H279308   8.764   9.783   2.891
26356WAT      O79309   1.787   2.499   3.292
26356WAT     H179310   1.710   2.478   3.353
26356WAT     H279311   1.785   2.596   3.269
26357WAT      O79312   6.460   0.066   6.410
26357WAT     H179313   6.558   0.061   6.432
26357WAT     H279314   6.423  -0.027   6.405
26358WAT      O79315   3.883   3.275   8.234
26358WAT     H179316   3.898   3.274   8.135
26358WAT     H279317   3.903   3.184   8.271
26359WAT      O79318   3.758   6.694   3.367
26359WAT     H179319   3.680   6.633   3.351
26359WAT     H279320   3.801   6.670   3.454
26360WAT      O79321   3.988   0.245   8.071
26360WAT     H179322   4.023   0.339   8.065
26360WAT     H279323   4.043   0.194   8.138
26361WAT      O79324   1.248   7.684   7.292
26361WAT     H179325   1.318   7.754   7.302
26361WAT     H279326   1.285   7.607   7.240
26362WAT      O79327   4.589   8.956   5.137
26362WAT     H179328   4.529   8.880   5.164
26362WAT     H279329   4.683   8.934   5.162
26363WAT      O79330   2.259   3.983   2.322
26363WAT     H179331   2.292   3.942   2.237
26363WAT     H279332   2.246   4.082   2.309
26364WAT      O79333   9.521   2.143   7.707
26364WAT     H179334   9.430   2.110   7.684
26364WAT     H279335   9.516   2.236   7.742
26365WAT      O79336   5.582   7.163   1.227
26365WAT     H179337   5.617   7.122   1.143
26365WAT     H279338   5.548   7.255   1.208
26366WAT      O79339   1.080   0.974   2.569
26366WAT     H179340   1.056   1.060   2.614
26366WAT     H279341   1.157   0.988   2.508
26367WAT      O79342   8.283   2.038   4.484
26367WAT     H179343   8.217   2.034   4.409
26367WAT     H279344   8.323   1.948   4.497
26368WAT      O79345   4.257   1.478   3.903
26368WAT     H179346   4.183   1.545   3.911
26368WAT     H279347   4.281   1.465   3.807
26369WAT      O79348   3.781   6.466   1.186
26369WAT     H179349   3.843   6.389   1.171
26369WAT     H279350   3.781   6.491   1.283
26370WAT      O79351   1.455   7.422   0.417
26370WAT     H179352   1.380   7.464   0.467
26370WAT     H279353   1.536   7.480   0.422
26371WAT      O79354   8.447   4.999   2.561
26371WAT     H179355   8.378   4.946   2.512
26371WAT     H279356   8.414   5.091   2.578
26372WAT      O79357   8.063   5.865   1.987
26372WAT     H179358   7.983   5.815   2.020
26372WAT     H279359   8.068   5.856   1.887
26373WAT      O79360   7.324   0.458   5.787
26373WAT     H179361   7.252   0.516   5.826
26373WAT     H279362   7.340   0.381   5.848
26374WAT      O79363   1.379   1.088   1.490
26374WAT     H179364   1.414   1.007   1.442
26374WAT     H279365   1.285   1.105   1.461
26375WAT      O79366   9.597   9.736   3.497
26375WAT     H179367   9.645   9.649   3.486
26375WAT     H279368   9.593   9.760   3.594
26376WAT      O79369   8.277   7.663   1.690
26376WAT     H179370   8.230   7.746   1.659
26376WAT     H279371   8.264   7.653   1.789
26377WAT      O79372   5.931   8.196   9.244
26377WAT     H179373   5.891   8.115   9.201
26377WAT     H279374   5.868   8.233   9.311
26378WAT      O79375   2.568   4.479   8.093
26378WAT     H179376   2.647   4.486   8.032
26378WAT     H279377   2.598   4.447   8.183
26379WAT      O79378   2.172   4.762   2.834
26379WAT     H179379   2.203   4.673   2.866
26379WAT     H279380   2.198   4.775   2.738
26380WAT      O79381   1.234   5.300   6.583
26380WAT     H179382   1.188   5.389   6.576
26380WAT     H279383   1.329   5.309   6.552
26381WAT      O79384   8.246   4.097   5.074
26381WAT     H179385   8.341   4.110   5.103
26381WAT     H279386   8.232   4.144   4.987
26382WAT      O79387   3.822   3.810   3.352
26382WAT     H179388   3.836   3.794   3.450
26382WAT     H279389   3.812   3.722   3.305
26383WAT      O79390   3.688   9.455   9.283
26383WAT     H179391   3.601   9.409   9.268
26383WAT     H279392   3.700   9.527   9.215
26384WAT      O79393   3.875   2.952   8.604
26384WAT     H179394   3.812   3.003   8.663
26384WAT     H279395   3.825   2.877   8.560
26385WAT      O79396   8.298   4.306   5.258
26385WAT     H179397   8.282   4.235   5.188
26385WAT     H279398   8.211   4.331   5.300
26386WAT      O79399   3.325   1.823   8.326
26386WAT     H179400   3.383   1.742   8.329
26386WAT     H279401   3.353   1.881   8.249
26387WAT      O79402   3.243   0.388   8.225
26387WAT     H179403   3.311   0.443   8.175
26387WAT     H279404   3.230   0.301   8.178
26388WAT      O79405   7.453   9.403   8.106
26388WAT     H179406   7.480   9.319   8.152
26388WAT     H279407   7.526   9.471   8.115
26389WAT      O79408   4.983   5.844   4.969
26389WAT     H179409   5.073   5.805   4.992
26389WAT     H279410   4.916   5.816   5.037
26390WAT      O79411   6.147   0.753   0.125
26390WAT     H179412   6.193   0.764   0.036
26390WAT     H279413   6.109   0.841   0.154
26391WAT      O79414   0.116   3.116   3.914
26391WAT     H179415   0.091   3.115   4.011
26391WAT     H279416   0.212   3.140   3.905
26392WAT      O79417   2.152   5.847   5.644
26392WAT     H179418   2.052   5.848   5.636
26392WAT     H279419   2.190   5.781   5.579
26393WAT      O79420   4.434   5.853   1.379
26393WAT     H179421   4.410   5.926   1.443
26393WAT     H279422   4.444   5.892   1.287
26394WAT      O79423   7.871   0.453   8.612
26394WAT     H179424   7.954   0.502   8.638
26394WAT     H279425   7.871   0.363   8.656
26395WAT      O79426   4.936   1.775   4.231
26395WAT     H179427   4.892   1.859   4.199
26395WAT     H279428   4.970   1.723   4.152
26396WAT      O79429   7.785   9.425   9.546
26396WAT     H179430   7.875   9.392   9.575
26396WAT     H279431   7.796   9.504   9.486
26397WAT      O79432   8.702   7.198   7.557
26397WAT     H179433   8.705   7.296   7.536
26397WAT     H279434   8.775   7.176   7.621
26398WAT      O79435   9.474   8.304   0.161
26398WAT     H179436   9.415   8.339   0.088
26398WAT     H279437   9.545   8.246   0.121
26399WAT      O79438   6.116   8.240   3.642
26399WAT     H179439   6.112   8.236   3.742
26399WAT     H279440   6.175   8.314   3.614
26400WAT      O79441   3.715   2.886   3.599
26400WAT     H179442   3.657   2.843   3.529
26400WAT     H279443   3.744   2.976   3.567
26401WAT      O79444   5.691   3.887   1.065
26401WAT     H179445   5.714   3.830   1.144
26401WAT     H279446   5.648   3.830   0.994
26402WAT      O79447   2.779   5.339   0.556
26402WAT     H179448   2.772   5.248   0.516
26402WAT     H279449   2.780   5.408   0.483
26403WAT      O79450   1.168   6.572   0.684
26403WAT     H179451   1.194   6.536   0.773
26403WAT     H279452   1.147   6.497   0.622
26404WAT      O79453   6.665   2.940   7.255
26404WAT     H179454   6.752   2.897   7.230
26404WAT     H279455   6.680   3.037   7.272
26405WAT      O79456   1.033   9.105   5.176
26405WAT     H179457   1.084   9.084   5.093
26405WAT     H279458   1.096   9.107   5.254
26406WAT      O79459   0.793   7.538   8.398
26406WAT     H179460   0.877   7.580   8.362
26406WAT     H279461   0.791   7.441   8.373
26407WAT      O79462   5.595   8.064   7.036
26407WAT     H179463   5.684   8.071   6.991
26407WAT     H279464   5.609   8.059   7.135
26408WAT      O79465   8.260   6.492   7.618
26408WAT     H179466   8.304   6.571   7.575
26408WAT     H279467   8.162   6.507   7.623
26409WAT      O79468   5.574   1.067   8.758
26409WAT     H179469   5.647   1.122   8.717
26409WAT     H279470   5.486   1.111   8.741
26410WAT      O79471   0.117   4.855   1.795
26410WAT     H179472   0.178   4.820   1.866
26410WAT     H279473   0.100   4.784   1.727
26411WAT      O79474   7.831   9.257   7.269
26411WAT     H179475   7.851   9.304   7.355
26411WAT     H279476   7.916   9.247   7.216
26412WAT      O79477   7.911   5.173   1.525
26412WAT     H179478   7.825   5.203   1.566
26412WAT     H279479   7.972   5.252   1.514
26413WAT      O79480   4.031   4.830   9.161
26413WAT     H179481   3.944   4.789   9.187
26413WAT     H279482   4.095   4.760   9.131
26414WAT      O79483   8.974   8.863   2.563
26414WAT     H179484   9.046   8.871   2.493
26414WAT     H279485   8.885   8.864   2.518
26415WAT      O79486   4.779   5.458   3.694
26415WAT     H179487   4.744   5.406   3.772
26415WAT     H279488   4.748   5.417   3.609
26416WAT      O79489   3.091   2.898   8.931
26416WAT     H179490   3.186   2.872   8.944
26416WAT     H279491   3.085   2.996   8.912
26417WAT      O79492   9.055   6.778   7.285
26417WAT     H179493   9.085   6.758   7.191
26417WAT     H279494   9.000   6.701   7.319
26418WAT      O79495   0.712   7.929   5.424
26418WAT     H179496   0.618   7.940   5.457
26418WAT     H279497   0.722   7.975   5.336
26419WAT      O79498   0.309   5.919   5.052
26419WAT     H179499   0.358   6.002   5.080
26419WAT     H279500   0.325   5.846   5.118
26420WAT      O79501   8.563   2.602   3.523
26420WAT     H179502   8.551   2.516   3.474
26420WAT     H279503   8.538   2.590   3.619
26421WAT      O79504   6.630   8.409   4.351
26421WAT     H179505   6.649   8.455   4.265
26421WAT     H279506   6.689   8.328   4.360
26422WAT      O79507   3.056   2.809   3.394
26422WAT     H179508   3.003   2.761   3.324
26422WAT     H279509   2.994   2.854   3.458
26423WAT      O79510   8.443   6.546   0.239
26423WAT     H179511   8.482   6.590   0.320
26423WAT     H279512   8.344   6.539   0.249
26424WAT      O79513   5.699   8.962   8.033
26424WAT     H179514   5.654   8.875   8.015
26424WAT     H279515   5.790   8.945   8.070
26425WAT      O79516   0.797   1.580   1.191
26425WAT     H179517   0.754   1.560   1.279
26425WAT     H279518   0.894   1.556   1.195
26426WAT      O79519   2.206   3.764   4.041
26426WAT     H179520   2.194   3.700   4.117
26426WAT     H279521   2.294   3.811   4.051
26427WAT      O79522   6.720   5.128   0.122
26427WAT     H179523   6.759   5.170   0.040
26427WAT     H279524   6.621   5.144   0.124
26428WAT      O79525   1.664   1.795   3.107
26428WAT     H179526   1.613   1.755   3.031
26428WAT     H279527   1.703   1.883   3.078
26429WAT      O79528   7.818   0.789   9.704
26429WAT     H179529   7.889   0.855   9.728
26429WAT     H279530   7.788   0.741   9.787
26430WAT      O79531   9.093   4.446   1.589
26430WAT     H179532   9.023   4.379   1.613
26430WAT     H279533   9.096   4.517   1.659
26431WAT      O79534   2.795   1.898   6.762
26431WAT     H179535   2.805   1.801   6.740
26431WAT     H279536   2.824   1.953   6.684
26432WAT      O79537   5.253   5.650   9.551
26432WAT     H179538   5.293   5.596   9.625
26432WAT     H279539   5.305   5.735   9.539
26433WAT      O79540   1.586   0.981   3.077
26433WAT     H179541   1.596   0.884   3.097
26433WAT     H279542   1.622   1.036   3.152
26434WAT      O79543   6.304   4.972   5.554
26434WAT     H179544   6.382   4.910   5.550
26434WAT     H279545   6.319   5.050   5.492
26435WAT      O79546   0.503   2.831   1.161
26435WAT     H179547   0.596   2.825   1.197
26435WAT     H279548   0.447   2.757   1.200
26436WAT      O79549   3.489   8.074   7.730
26436WAT     H179550   3.479   8.173   7.737
26436WAT     H279551   3.441   8.030   7.806
26437WAT      O79552   7.303   1.342   2.929
26437WAT     H179553   7.214   1.370   2.966
26437WAT     H279554   7.300   1.245   2.906
26438WAT      O79555   0.487   4.440   5.211
26438WAT     H179556   0.444   4.527   5.187
26438WAT     H279557   0.499   4.436   5.310
26439WAT      O79558   6.606   4.410   0.696
26439WAT     H179559   6.593   4.497   0.743
26439WAT     H279560   6.607   4.336   0.763
26440WAT      O79561   2.002   7.900   7.074
26440WAT     H179562   1.915   7.859   7.100
26440WAT     H279563   2.043   7.945   7.153
26441WAT      O79564   4.987   7.369   5.571
26441WAT     H179565   5.002   7.271   5.586
26441WAT     H279566   5.030   7.397   5.485
26442WAT      O79567   5.934   4.233   1.255
26442WAT     H179568   5.939   4.182   1.170
26442WAT     H279569   5.976   4.322   1.243
26443WAT      O79570   8.561   7.704   3.820
26443WAT     H179571   8.478   7.730   3.771
26443WAT     H279572   8.546   7.618   3.868
26444WAT      O79573   1.400   0.491   7.821
26444WAT     H179574   1.364   0.536   7.902
26444WAT     H279575   1.353   0.525   7.740
26445WAT      O79576   2.338   1.653   8.130
26445WAT     H179577   2.341   1.752   8.144
26445WAT     H279578   2.276   1.631   8.056
26446WAT      O79579   5.360   1.239   2.409
26446WAT     H179580   5.312   1.325   2.388
26446WAT     H279581   5.411   1.249   2.494
26447WAT      O79582   5.299   2.843   3.159
26447WAT     H179583   5.218   2.895   3.133
26447WAT     H279584   5.291   2.749   3.125
26448WAT      O79585   8.191   4.821   3.204
26448WAT     H179586   8.229   4.806   3.113
26448WAT     H279587   8.184   4.734   3.253
26449WAT      O79588   6.618   2.253   6.315
26449WAT     H179589   6.710   2.216   6.304
26449WAT     H279590   6.623   2.346   6.352
26450WAT      O79591   9.445   9.009   0.165
26450WAT     H179592   9.488   8.996   0.076
26450WAT     H279593   9.362   8.954   0.171
26451WAT      O79594   4.326   0.609   4.225
26451WAT     H179595   4.304   0.694   4.273
26451WAT     H279596   4.424   0.592   4.231
26452WAT      O79597   8.742   3.813   4.150
26452WAT     H179598   8.658   3.864   4.130
26452WAT     H279599   8.782   3.847   4.235
26453WAT      O79600   7.783   1.567   2.716
26453WAT     H179601   7.875   1.553   2.680
26453WAT     H279602   7.745   1.479   2.744
26454WAT      O79603   0.042   5.441   9.073
26454WAT     H179604  -0.025   5.400   9.011
26454WAT     H279605   0.134   5.430   9.036
26455WAT      O79606   8.817   4.956   5.782
26455WAT     H179607   8.848   4.933   5.690
26455WAT     H279608   8.867   5.035   5.816
26456WAT      O79609   1.966   0.662   3.249
26456WAT     H179610   2.058   0.660   3.209
26456WAT     H279611   1.962   0.731   3.321
26457WAT      O79612   9.112   8.579   3.943
26457WAT     H179613   9.096   8.621   3.854
26457WAT     H279614   9.146   8.648   4.007
26458WAT      O79615   4.830   8.093   0.474
26458WAT     H179616   4.830   8.042   0.387
26458WAT     H279617   4.738   8.129   0.491
26459WAT      O79618   9.126   5.692   2.352
26459WAT     H179619   9.056   5.621   2.357
26459WAT     H279620   9.212   5.657   2.390
26460WAT      O79621   9.700   3.982   6.601
26460WAT     H179622   9.795   3.974   6.633
26460WAT     H279623   9.673   3.896   6.558
26461WAT      O79624   1.368   0.168   3.199
26461WAT     H179625   1.426   0.181   3.280
26461WAT     H279626   1.272   0.171   3.226
26462WAT      O79627   6.525   7.328   7.654
26462WAT     H179628   6.508   7.420   7.618
26462WAT     H279629   6.547   7.333   7.752
26463WAT      O79630   2.086   3.383   1.340
26463WAT     H179631   2.068   3.289   1.367
26463WAT     H279632   2.035   3.404   1.257
26464WAT      O79633   8.868   8.398   9.021
26464WAT     H179634   8.869   8.298   9.026
26464WAT     H279635   8.782   8.432   9.058
26465WAT      O79636   2.942   9.322   3.046
26465WAT     H179637   3.009   9.365   2.986
26465WAT     H279638   2.984   9.301   3.134
26466WAT      O79639   2.700   0.455   8.362
26466WAT     H179640   2.708   0.441   8.460
26466WAT     H279641   2.779   0.506   8.329
26467WAT      O79642   6.309   0.876   8.232
26467WAT     H179643   6.227   0.925   8.259
26467WAT     H279644   6.365   0.934   8.172
26468WAT      O79645   6.536   5.058   8.504
26468WAT     H179646   6.633   5.082   8.496
26468WAT     H279647   6.504   5.018   8.418
26469WAT      O79648   5.350   8.674   3.727
26469WAT     H179649   5.371   8.598   3.664
26469WAT     H279650   5.320   8.753   3.674
26470WAT      O79651   1.068   6.638   2.960
26470WAT     H179652   1.149   6.667   3.011
26470WAT     H279653   1.046   6.707   2.890
26471WAT      O79654   0.326   4.854   0.776
26471WAT     H179655   0.319   4.941   0.727
26471WAT     H279656   0.420   4.839   0.805
26472WAT      O79657   0.811   9.783   0.582
26472WAT     H179658   0.790   9.822   0.492
26472WAT     H279659   0.767   9.838   0.653
26473WAT      O79660   0.603   6.358   1.282
26473WAT     H179661   0.650   6.297   1.346
26473WAT     H279662   0.539   6.305   1.226
26474WAT      O79663   2.007   2.550   3.557
26474WAT     H179664   1.961   2.599   3.483
26474WAT     H279665   2.101   2.530   3.530
26475WAT      O79666   1.757   0.345   5.054
26475WAT     H179667   1.784   0.282   4.981
26475WAT     H279668   1.835   0.360   5.115
26476WAT      O79669   6.814   3.392   8.461
26476WAT     H179670   6.913   3.386   8.469
26476WAT     H279671   6.789   3.485   8.435
26477WAT      O79672   1.840   2.370   9.377
26477WAT     H179673   1.762   2.386   9.316
26477WAT     H279674   1.814   2.302   9.446
26478WAT      O79675   2.013   7.803   0.172
26478WAT     H179676   2.100   7.825   0.127
26478WAT     H279677   2.004   7.860   0.254
26479WAT      O79678   2.128   1.939   9.247
26479WAT     H179679   2.149   2.020   9.302
26479WAT     H279680   2.178   1.861   9.283
26480WAT      O79681   0.508   9.807   4.597
26480WAT     H179682   0.566   9.728   4.615
26480WAT     H279683   0.425   9.778   4.550
26481WAT      O79684   5.538   1.084   9.045
26481WAT     H179685   5.592   1.135   9.113
26481WAT     H279686   5.562   1.115   8.953
26482WAT      O79687   3.247   6.573   2.144
26482WAT     H179688   3.271   6.477   2.138
26482WAT     H279689   3.318   6.628   2.101
26483WAT      O79690   5.950   6.348   0.631
26483WAT     H179691   5.968   6.440   0.665
26483WAT     H279692   5.861   6.346   0.585
26484WAT      O79693   2.081   2.416   2.510
26484WAT     H179694   2.122   2.338   2.557
26484WAT     H279695   2.150   2.487   2.496
26485WAT      O79696   8.303   6.987   7.412
26485WAT     H179697   8.323   6.938   7.328
26485WAT     H279698   8.368   6.959   7.484
26486WAT      O79699   5.813   2.832   9.696
26486WAT     H179700   5.721   2.856   9.727
26486WAT     H279701   5.868   2.799   9.773
26487WAT      O79702   2.181   2.336   7.601
26487WAT     H179703   2.095   2.364   7.561
26487WAT     H279704   2.181   2.356   7.699
26488WAT      O79705   7.870   4.909   1.814
26488WAT     H179706   7.941   4.843   1.788
26488WAT     H279707   7.801   4.913   1.742
26489WAT      O79708   2.723   1.885   6.014
26489WAT     H179709   2.797   1.820   5.993
26489WAT     H279710   2.636   1.847   5.985
26490WAT      O79711   3.881   2.698   3.782
26490WAT     H179712   3.803   2.715   3.721
26490WAT     H279713   3.864   2.614   3.834
26491WAT      O79714   0.058   0.043   9.076
26491WAT     H179715  -0.039   0.055   9.057
26491WAT     H279716   0.098  -0.020   9.009
26492WAT      O79717   0.658   3.451   6.591
26492WAT     H179718   0.718   3.528   6.615
26492WAT     H279719   0.713   3.369   6.577
26493WAT      O79720   4.267   9.793   3.971
26493WAT     H179721   4.275   9.705   3.924
26493WAT     H279722   4.250   9.865   3.904
26494WAT      O79723   6.303   9.529   6.686
26494WAT     H179724   6.288   9.497   6.780
26494WAT     H279725   6.250   9.474   6.623
26495WAT      O79726   4.823   7.794   0.877
26495WAT     H179727   4.829   7.891   0.900
26495WAT     H279728   4.737   7.776   0.830
26496WAT      O79729   3.147   6.571   5.293
26496WAT     H179730   3.196   6.641   5.344
26496WAT     H279731   3.198   6.485   5.296
26497WAT      O79732   8.380   8.525   6.877
26497WAT     H179733   8.315   8.488   6.810
26497WAT     H279734   8.383   8.466   6.957
26498WAT      O79735   2.013   0.350   9.301
26498WAT     H179736   2.017   0.335   9.400
26498WAT     H279737   2.021   0.262   9.253
26499WAT      O79738   5.377   2.859   0.698
26499WAT     H179739   5.434   2.782   0.727
26499WAT     H279740   5.409   2.943   0.744
26500WAT      O79741   9.151   0.698   5.166
26500WAT     H179742   9.196   0.712   5.078
26500WAT     H279743   9.156   0.782   5.220
26501WAT      O79744   7.801   7.665   8.913
26501WAT     H179745   7.878   7.720   8.947
26501WAT     H279746   7.816   7.641   8.817
26502WAT      O79747   2.437   7.260   4.149
26502WAT     H179748   2.428   7.328   4.076
26502WAT     H279749   2.534   7.247   4.169
26503WAT      O79750   8.164   7.793   0.086
26503WAT     H179751   8.166   7.829  -0.007
26503WAT     H279752   8.221   7.849   0.145
26504WAT      O79753   7.404   8.741   3.236
26504WAT     H179754   7.346   8.778   3.308
26504WAT     H279755   7.482   8.694   3.278
26505WAT      O79756   9.698   3.249   5.374
26505WAT     H179757   9.709   3.149   5.381
26505WAT     H279758   9.601   3.272   5.369
26506WAT      O79759   0.334   0.424   2.911
26506WAT     H179760   0.297   0.443   2.820
26506WAT     H279761   0.434   0.430   2.909
26507WAT      O79762   5.325   4.916   1.483
26507WAT     H179763   5.420   4.905   1.452
26507WAT     H279764   5.318   4.886   1.578
26508WAT      O79765   7.486   2.901   8.735
26508WAT     H179766   7.569   2.858   8.699
26508WAT     H279767   7.407   2.867   8.684
26509WAT      O79768   0.113   7.321   3.455
26509WAT     H179769   0.062   7.244   3.494
26509WAT     H279770   0.062   7.406   3.470
26510WAT      O79771   6.860   8.174   6.329
26510WAT     H179772   6.821   8.161   6.238
26510WAT     H279773   6.787   8.172   6.397
26511WAT      O79774   6.680   6.333   3.286
26511WAT     H179775   6.724   6.340   3.196
26511WAT     H279776   6.735   6.382   3.353
26512WAT      O79777   2.294   2.553   4.967
26512WAT     H179778   2.347   2.570   5.050
26512WAT     H279779   2.343   2.590   4.888
26513WAT      O79780   9.112   5.488   1.000
26513WAT     H179781   9.037   5.429   0.973
26513WAT     H279782   9.076   5.577   1.030
26514WAT      O79783   9.829   0.471   6.972
26514WAT     H179784   9.914   0.516   6.943
26514WAT     H279785   9.778   0.531   7.033
26515WAT      O79786   0.117   3.034   4.587
26515WAT     H179787   0.207   3.070   4.562
26515WAT     H279788   0.050   3.108   4.589
26516WAT      O79789   6.791   3.371   7.858
26516WAT     H179790   6.803   3.335   7.765
26516WAT     H279791   6.839   3.312   7.923
26517WAT      O79792   8.118   6.842   9.546
26517WAT     H179793   8.055   6.765   9.529
26517WAT     H279794   8.099   6.880   9.636
26518WAT      O79795   9.191   6.864   3.682
26518WAT     H179796   9.152   6.956   3.687
26518WAT     H279797   9.263   6.855   3.751
26519WAT      O79798   8.505   6.551   0.588
26519WAT     H179799   8.409   6.578   0.583
26519WAT     H279800   8.559   6.609   0.527
26520WAT      O79801   2.564   6.953   2.991
26520WAT     H179802   2.632   6.991   3.054
26520WAT     H279803   2.484   7.013   2.988
26521WAT      O79804   5.461   4.300   9.253
26521WAT     H179805   5.481   4.346   9.340
26521WAT     H279806   5.545   4.292   9.199
26522WAT      O79807   2.152   9.043   5.679
26522WAT     H179808   2.224   9.105   5.648
26522WAT     H279809   2.067   9.065   5.633
26523WAT      O79810   5.806   9.095   4.750
26523WAT     H179811   5.729   9.148   4.787
26523WAT     H279812   5.848   9.042   4.824
26524WAT      O79813   3.307   7.908   0.276
26524WAT     H179814   3.404   7.907   0.300
26524WAT     H279815   3.252   7.904   0.359
26525WAT      O79816   0.106   2.260   0.266
26525WAT     H179817   0.176   2.270   0.337
26525WAT     H279818   0.149   2.264   0.176
26526WAT      O79819   6.159   9.232   7.913
26526WAT     H179820   6.102   9.228   7.831
26526WAT     H279821   6.205   9.145   7.927
26527WAT      O79822   1.738   8.014   7.558
26527WAT     H179823   1.724   8.041   7.463
26527WAT     H279824   1.757   8.096   7.613
26528WAT      O79825   8.691   0.715   0.660
26528WAT     H179826   8.620   0.780   0.687
26528WAT     H279827   8.780   0.746   0.695
26529WAT      O79828   2.581   0.372   9.142
26529WAT     H179829   2.598   0.275   9.159
26529WAT     H279830   2.496   0.400   9.186
26530WAT      O79831   7.158   0.763   5.349
26530WAT     H179832   7.197   0.798   5.434
26530WAT     H279833   7.076   0.815   5.325
26531WAT      O79834   1.279   5.808   0.452
26531WAT     H179835   1.374   5.787   0.425
26531WAT     H279836   1.279   5.847   0.544
26532WAT      O79837   4.662   1.687   6.415
26532WAT     H179838   4.644   1.669   6.318
26532WAT     H279839   4.583   1.733   6.456
26533WAT      O79840   0.456   3.615   3.452
26533WAT     H179841   0.428   3.711   3.442
26533WAT     H279842   0.460   3.572   3.362
26534WAT      O79843   4.209   1.714   9.502
26534WAT     H179844   4.158   1.782   9.448
26534WAT     H279845   4.205   1.625   9.456
26535WAT      O79846   8.653   6.102   4.064
26535WAT     H179847   8.639   6.039   3.988
26535WAT     H279848   8.661   6.196   4.029
26536WAT      O79849   7.964   6.820   0.500
26536WAT     H179850   7.875   6.841   0.458
26536WAT     H279851   7.991   6.727   0.478
26537WAT      O79852   0.348   3.503   5.515
26537WAT     H179853   0.410   3.470   5.586
26537WAT     H279854   0.256   3.514   5.554
26538WAT      O79855   6.793   1.442   3.489
26538WAT     H179856   6.821   1.478   3.400
26538WAT     H279857   6.837   1.495   3.562
26539WAT      O79858   7.248   4.317   6.593
26539WAT     H179859   7.248   4.416   6.605
26539WAT     H279860   7.164   4.279   6.632
26540WAT      O79861   2.065   6.430   3.476
26540WAT     H179862   2.031   6.471   3.392
26540WAT     H279863   2.040   6.333   3.479
26541WAT      O79864   0.591   0.172   2.072
26541WAT     H179865   0.646   0.236   2.125
26541WAT     H279866   0.497   0.206   2.067
26542WAT      O79867   9.850   7.053   0.198
26542WAT     H179868   9.898   7.141   0.189
26542WAT     H279869   9.779   7.060   0.267
26543WAT      O79870   5.321   1.283   7.435
26543WAT     H179871   5.405   1.229   7.436
26543WAT     H279872   5.285   1.287   7.342
26544WAT      O79873   1.943   0.255   7.644
26544WAT     H179874   1.872   0.206   7.694
26544WAT     H279875   1.951   0.348   7.679
26545WAT      O79876   8.067   0.082   3.888
26545WAT     H179877   8.109   0.136   3.962
26545WAT     H279878   7.985   0.037   3.923
26546WAT      O79879   8.730   4.074   9.008
26546WAT     H179880   8.718   4.172   9.025
26546WAT     H279881   8.763   4.030   9.092
26547WAT      O79882   1.149   1.386   3.957
26547WAT     H179883   1.116   1.463   3.903
26547WAT     H279884   1.232   1.413   4.006
26548WAT      O79885   1.104   9.459   7.374
26548WAT     H179886   1.093   9.547   7.420
26548WAT     H279887   1.199   9.449   7.344
26549WAT      O79888   1.825   1.924   4.607
26549WAT     H179889   1.874   2.009   4.628
26549WAT     H279890   1.847   1.894   4.514
26550WAT      O79891   7.304   0.984   1.485
26550WAT     H179892   7.364   1.064   1.496
26550WAT     H279893   7.352   0.912   1.435
26551WAT      O79894   1.987   2.533   8.765
26551WAT     H179895   1.957   2.559   8.674
26551WAT     H279896   2.051   2.601   8.800
26552WAT      O79897   0.911   3.824   0.646
26552WAT     H179898   0.817   3.811   0.615
26552WAT     H279899   0.929   3.921   0.659
26553WAT      O79900   8.108   2.168   0.686
26553WAT     H179901   8.065   2.084   0.651
26553WAT     H279902   8.141   2.222   0.610
26554WAT      O79903   7.251   9.519   1.112
26554WAT     H179904   7.157   9.519   1.079
26554WAT     H279905   7.290   9.427   1.101
26555WAT      O79906   1.137   9.224   7.623
26555WAT     H179907   1.109   9.320   7.629
26555WAT     H279908   1.169   9.205   7.531
26556WAT      O79909   9.137   1.769   8.578
26556WAT     H179910   9.101   1.711   8.651
26556WAT     H279911   9.236   1.757   8.571
26557WAT      O79912   0.291   3.491   2.761
26557WAT     H179913   0.354   3.445   2.823
26557WAT     H279914   0.267   3.429   2.686
26558WAT      O79915   3.713   9.085   5.373
26558WAT     H179916   3.763   9.078   5.287
26558WAT     H279917   3.777   9.074   5.449
26559WAT      O79918   3.231   6.693   7.337
26559WAT     H179919   3.320   6.705   7.292
26559WAT     H279920   3.192   6.605   7.310
26560WAT      O79921   5.015   6.957   0.749
26560WAT     H179922   5.047   6.946   0.843
26560WAT     H279923   4.921   6.992   0.750
26561WAT      O79924   1.817   8.164   2.355
26561WAT     H179925   1.746   8.235   2.351
26561WAT     H279926   1.829   8.135   2.450
26562WAT      O79927   6.307   9.219   0.174
26562WAT     H179928   6.269   9.227   0.082
26562WAT     H279929   6.406   9.210   0.169
26563WAT      O79930   4.762   0.178   6.688
26563WAT     H179931   4.747   0.181   6.589
26563WAT     H279932   4.688   0.227   6.735
26564WAT      O79933   0.305   5.225   5.625
26564WAT     H179934   0.288   5.321   5.602
26564WAT     H279935   0.339   5.219   5.719
26565WAT      O79936   9.147   8.199   8.699
26565WAT     H179937   9.227   8.150   8.665
26565WAT     H279938   9.167   8.297   8.702
26566WAT      O79939   3.299   5.763   9.859
26566WAT     H179940   3.380   5.705   9.866
26566WAT     H279941   3.256   5.750   9.770
26567WAT      O79942   5.482   3.882   5.343
26567WAT     H179943   5.576   3.905   5.368
26567WAT     H279944   5.422   3.901   5.421
26568WAT      O79945   9.211   3.553   5.322
26568WAT     H179946   9.221   3.604   5.236
26568WAT     H279947   9.223   3.615   5.399
26569WAT      O79948   7.563   2.603   5.463
26569WAT     H179949   7.476   2.609   5.511
26569WAT     H279950   7.632   2.654   5.514
26570WAT      O79951   5.584   6.551   5.932
26570WAT     H179952   5.523   6.577   6.006
26570WAT     H279953   5.609   6.632   5.879
26571WAT      O79954   0.299   3.677   4.310
26571WAT     H179955   0.240   3.717   4.381
26571WAT     H279956   0.384   3.729   4.305
26572WAT      O79957   3.051   6.214   6.621
26572WAT     H179958   3.111   6.260   6.556
26572WAT     H279959   3.067   6.251   6.713
26573WAT      O79960   6.659   7.080   8.475
26573WAT     H179961   6.644   7.132   8.559
26573WAT     H279962   6.716   7.134   8.413
26574WAT      O79963   4.927   8.869   6.146
26574WAT     H179964   4.923   8.956   6.097
26574WAT     H279965   5.001   8.871   6.212
26575WAT      O79966   4.521   6.676   9.854
26575WAT     H179967   4.604   6.632   9.822
26575WAT     H279968   4.462   6.610   9.900
26576WAT      O79969   4.735   0.433   1.142
26576WAT     H179970   4.699   0.341   1.155
26576WAT     H279971   4.701   0.493   1.214
26577WAT      O79972   2.916   2.720   5.292
26577WAT     H179973   2.919   2.691   5.387
26577WAT     H279974   3.007   2.712   5.251
26578WAT      O79975   8.684   8.906   8.887
26578WAT     H179976   8.750   8.969   8.847
26578WAT     H279977   8.646   8.946   8.971
26579WAT      O79978   1.788   9.057   7.580
26579WAT     H179979   1.801   8.962   7.551
26579WAT     H279980   1.693   9.070   7.608
26580WAT      O79981   8.977   1.410   9.620
26580WAT     H179982   9.005   1.464   9.700
26580WAT     H279983   8.890   1.445   9.586
26581WAT      O79984   7.762   6.704   8.359
26581WAT     H179985   7.780   6.797   8.389
26581WAT     H279986   7.815   6.685   8.276
26582WAT      O79987   2.073   8.727   0.500
26582WAT     H179988   1.982   8.747   0.535
26582WAT     H279989   2.073   8.637   0.456
26583WAT      O79990   0.828   4.769   3.606
26583WAT     H179991   0.863   4.863   3.603
26583WAT     H279992   0.869   4.721   3.684
26584WAT      O79993   7.227   0.830   9.861
26584WAT     H179994   7.222   0.916   9.911
26584WAT     H279995   7.305   0.833   9.798
26585WAT      O79996   4.651   9.664   6.839
26585WAT     H179997   4.569   9.714   6.865
26585WAT     H279998   4.671   9.680   6.743
26586WAT      O79999   4.567   2.745   4.171
26586WAT     H180000   4.656   2.710   4.144
26586WAT     H280001   4.512   2.671   4.208
26587WAT      O80002   2.377   3.735   4.757
26587WAT     H180003   2.343   3.641   4.763
26587WAT     H280004   2.387   3.761   4.661
26588WAT      O80005   9.726   0.641   4.527
26588WAT     H180006   9.738   0.635   4.626
26588WAT     H280007   9.643   0.592   4.499
26589WAT      O80008   9.716   7.389   3.028
26589WAT     H180009   9.796   7.361   3.080
26589WAT     H280010   9.688   7.481   3.056
26590WAT      O80011   1.345   7.304   4.305
26590WAT     H180012   1.365   7.344   4.394
26590WAT     H280013   1.262   7.345   4.267
26591WAT      O80014   5.361   0.343   5.340
26591WAT     H180015   5.454   0.307   5.346
26591WAT     H280016   5.299   0.270   5.311
26592WAT      O80017   0.836   2.365   4.605
26592WAT     H180018   0.908   2.430   4.582
26592WAT     H280019   0.807   2.379   4.700
26593WAT      O80020   9.425   6.485   6.656
26593WAT     H180021   9.347   6.431   6.688
26593WAT     H280022   9.510   6.444   6.690
26594WAT      O80023   3.819   6.322   8.590
26594WAT     H180024   3.889   6.362   8.650
26594WAT     H280025   3.849   6.329   8.495
26595WAT      O80026   3.114   8.769   6.825
26595WAT     H180027   3.030   8.776   6.879
26595WAT     H280028   3.103   8.700   6.753
26596WAT      O80029   0.176   1.315   2.705
26596WAT     H180030   0.232   1.392   2.673
26596WAT     H280031   0.182   1.310   2.805
26597WAT      O80032   5.603   0.724   0.058
26597WAT     H180033   5.631   0.762  -0.030
26597WAT     H280034   5.565   0.797   0.115
26598WAT      O80035   7.035   0.574   4.026
26598WAT     H180036   7.109   0.622   4.072
26598WAT     H280037   7.021   0.485   4.070
26599WAT      O80038   6.877   1.427   1.656
26599WAT     H180039   6.872   1.362   1.581
26599WAT     H280040   6.972   1.453   1.672
26600WAT      O80041   7.907   4.086   6.383
26600WAT     H180042   7.951   4.166   6.342
26600WAT     H280043   7.810   4.105   6.399
26601WAT      O80044   4.080   5.559   3.336
26601WAT     H180045   4.077   5.659   3.334
26601WAT     H280046   4.167   5.528   3.299
26602WAT      O80047   4.342   0.757   7.269
26602WAT     H180048   4.276   0.781   7.341
26602WAT     H280049   4.297   0.765   7.180
26603WAT      O80050   2.073   3.234   6.631
26603WAT     H180051   1.995   3.174   6.617
26603WAT     H280052   2.051   3.326   6.598
26604WAT      O80053   5.343   9.408   5.997
26604WAT     H180054   5.246   9.393   6.013
26604WAT     H280055   5.375   9.484   6.055
26605WAT      O80056   0.992   4.431   1.579
26605WAT     H180057   0.920   4.423   1.511
26605WAT     H280058   1.008   4.343   1.623
26606WAT      O80059   8.942   2.383   1.460
26606WAT     H180060   8.860   2.369   1.516
26606WAT     H280061   9.021   2.348   1.509
26607WAT      O80062   0.502   3.378   4.382
26607WAT     H180063   0.478   3.332   4.296
26607WAT     H280064   0.583   3.435   4.367
26608WAT      O80065   1.582   2.939   8.626
26608WAT     H180066   1.564   2.957   8.723
26608WAT     H280067   1.533   2.857   8.597
26609WAT      O80068   6.058   4.472   1.698
26609WAT     H180069   6.108   4.412   1.635
26609WAT     H280070   6.010   4.416   1.766
26610WAT      O80071   7.552   6.265   6.988
26610WAT     H180072   7.627   6.305   7.042
26610WAT     H280073   7.529   6.176   7.026
26611WAT      O80074   4.086   1.452   9.726
26611WAT     H180075   4.082   1.469   9.628
26611WAT     H280076   4.154   1.512   9.768
26612WAT      O80077   6.511   3.832   7.983
26612WAT     H180078   6.459   3.913   7.958
26612WAT     H280079   6.477   3.753   7.932
26613WAT      O80080   3.568   2.711   6.877
26613WAT     H180081   3.487   2.698   6.819
26613WAT     H280082   3.539   2.738   6.968
26614WAT      O80083   2.061   0.572   7.988
26614WAT     H180084   2.151   0.530   7.981
26614WAT     H280085   2.067   0.653   8.047
26615WAT      O80086   6.209   0.261   7.043
26615WAT     H180087   6.296   0.307   7.030
26615WAT     H280088   6.136   0.329   7.052
26616WAT      O80089   8.434   5.959   7.740
26616WAT     H180090   8.404   6.023   7.670
26616WAT     H280091   8.413   5.866   7.711
26617WAT      O80092   4.734   7.457   0.440
26617WAT     H180093   4.800   7.390   0.471
26617WAT     H280094   4.671   7.479   0.514
26618WAT      O80095   1.724   6.374   3.955
26618WAT     H180096   1.664   6.443   3.913
26618WAT     H280097   1.677   6.286   3.957
26619WAT      O80098   3.177   2.659   5.134
26619WAT     H180099   3.223   2.641   5.048
26619WAT     H280100   3.245   2.664   5.208
26620WAT      O80101   3.167   0.905   1.337
26620WAT     H180102   3.213   0.816   1.343
26620WAT     H280103   3.228   0.977   1.368
26621WAT      O80104   4.209   3.416   1.049
26621WAT     H180105   4.239   3.375   1.135
26621WAT     H280106   4.158   3.500   1.069
26622WAT      O80107   8.221   4.433   0.971
26622WAT     H180108   8.257   4.442   0.878
26622WAT     H280109   8.269   4.495   1.033
26623WAT      O80110   1.888   4.785   0.222
26623WAT     H180111   1.854   4.744   0.307
26623WAT     H280112   1.885   4.717   0.149
26624WAT      O80113   0.525   9.164   9.779
26624WAT     H180114   0.547   9.193   9.686
26624WAT     H280115   0.609   9.158   9.833
26625WAT      O80116   5.131   7.687   3.077
26625WAT     H180117   5.088   7.663   2.990
26625WAT     H280118   5.207   7.750   3.060
26626WAT      O80119   2.263   0.658   5.029
26626WAT     H180120   2.264   0.558   5.030
26626WAT     H280121   2.345   0.692   4.983
26627WAT      O80122   7.154   4.682   0.512
26627WAT     H180123   7.226   4.701   0.579
26627WAT     H280124   7.146   4.583   0.499
26628WAT      O80125   4.735   1.947   0.500
26628WAT     H180126   4.644   1.910   0.482
26628WAT     H280127   4.753   2.024   0.439
26629WAT      O80128   7.639   7.763   6.213
26629WAT     H180129   7.717   7.812   6.252
26629WAT     H280130   7.598   7.819   6.140
26630WAT      O80131   5.821   4.868   0.203
26630WAT     H180132   5.821   4.768   0.203
26630WAT     H280133   5.795   4.901   0.293
26631WAT      O80134   5.188   7.840   1.184
26631WAT     H180135   5.182   7.918   1.247
26631WAT     H280136   5.102   7.789   1.185
26632WAT      O80137   8.985   9.813   4.018
26632WAT     H180138   9.084   9.825   4.020
26632WAT     H280139   8.960   9.751   3.943
26633WAT      O80140   9.640   8.869   2.220
26633WAT     H180141   9.735   8.887   2.245
26633WAT     H280142   9.581   8.883   2.300
26634WAT      O80143   4.378   6.747   4.975
26634WAT     H180144   4.439   6.669   4.994
26634WAT     H280145   4.360   6.796   5.060
26635WAT      O80146   3.337   7.262   8.542
26635WAT     H180147   3.294   7.255   8.632
26635WAT     H280148   3.304   7.345   8.496
26636WAT      O80149   1.030   2.458   7.470
26636WAT     H180150   1.123   2.436   7.501
26636WAT     H280151   1.006   2.400   7.392
26637WAT      O80152   5.884   5.869   4.894
26637WAT     H180153   5.922   5.961   4.894
26637WAT     H280154   5.946   5.807   4.943
26638WAT      O80155   8.909   0.342   8.617
26638WAT     H180156   8.837   0.363   8.684
26638WAT     H280157   8.964   0.266   8.652
26639WAT      O80158   1.756   0.543   6.219
26639WAT     H180159   1.732   0.609   6.148
26639WAT     H280160   1.696   0.463   6.212
26640WAT      O80161   4.055   7.031   7.368
26640WAT     H180162   3.956   7.035   7.351
26640WAT     H280163   4.077   7.086   7.449
26641WAT      O80164   3.100   1.826   5.751
26641WAT     H180165   3.045   1.869   5.823
26641WAT     H280166   3.039   1.781   5.685
26642WAT      O80167   6.380   4.320   9.437
26642WAT     H180168   6.448   4.247   9.438
26642WAT     H280169   6.426   4.408   9.426
26643WAT      O80170   1.969   8.892   7.852
26643WAT     H180171   2.001   8.819   7.792
26643WAT     H280172   1.907   8.855   7.920
26644WAT      O80173   1.425   6.201   4.188
26644WAT     H180174   1.486   6.176   4.113
26644WAT     H280175   1.370   6.122   4.215
26645WAT      O80176   0.660   8.106   5.209
26645WAT     H180177   0.592   8.043   5.171
26645WAT     H280178   0.613   8.180   5.259
26646WAT      O80179   7.347   2.250   8.019
26646WAT     H180180   7.345   2.317   7.945
26646WAT     H280181   7.254   2.230   8.049
26647WAT      O80182   6.358   8.042   3.919
26647WAT     H180183   6.337   8.026   4.015
26647WAT     H280184   6.457   8.052   3.909
26648WAT      O80185   7.439   6.644   4.268
26648WAT     H180186   7.372   6.703   4.222
26648WAT     H280187   7.393   6.592   4.341
26649WAT      O80188   9.197   1.229   8.394
26649WAT     H180189   9.121   1.186   8.345
26649WAT     H280190   9.281   1.217   8.341
26650WAT      O80191   2.480   3.260   1.083
26650WAT     H180192   2.513   3.300   1.169
26650WAT     H280193   2.475   3.161   1.092
26651WAT      O80194   0.473   4.305   3.968
26651WAT     H180195   0.418   4.311   3.885
26651WAT     H280196   0.566   4.337   3.949
26652WAT      O80197   5.146   7.404   1.974
26652WAT     H180198   5.070   7.450   1.928
26652WAT     H280199   5.220   7.469   1.989
26653WAT      O80200   9.803   6.371   7.588
26653WAT     H180201   9.765   6.392   7.498
26653WAT     H280202   9.899   6.345   7.578
26654WAT      O80203   7.593   2.619   4.484
26654WAT     H180204   7.623   2.539   4.537
26654WAT     H280205   7.672   2.663   4.442
26655WAT      O80206   1.672   4.516   0.763
26655WAT     H180207   1.672   4.602   0.712
26655WAT     H280208   1.580   4.501   0.801
26656WAT      O80209   7.331   2.704   2.072
26656WAT     H180210   7.252   2.765   2.064
26656WAT     H280211   7.363   2.679   1.981
26657WAT      O80212   5.476   5.980   6.399
26657WAT     H180213   5.537   6.028   6.335
26657WAT     H280214   5.494   6.012   6.492
26658WAT      O80215   7.230   5.666   2.781
26658WAT     H180216   7.315   5.688   2.829
26658WAT     H280217   7.162   5.737   2.800
26659WAT      O80218   7.622   6.315   1.935
26659WAT     H180219   7.593   6.393   1.879
26659WAT     H280220   7.544   6.282   1.989
26660WAT      O80221   5.005   5.047   0.791
26660WAT     H180222   4.925   5.050   0.732
26660WAT     H280223   5.038   4.952   0.798
26661WAT      O80224   6.404   0.670   4.522
26661WAT     H180225   6.401   0.770   4.524
26661WAT     H280226   6.463   0.640   4.448
26662WAT      O80227   7.036   9.241   6.415
26662WAT     H180228   6.986   9.286   6.488
26662WAT     H280229   7.025   9.142   6.423
26663WAT      O80230   0.910   8.206   8.333
26663WAT     H180231   1.003   8.227   8.363
26663WAT     H280232   0.872   8.284   8.285
26664WAT      O80233   8.897   4.223   1.676
26664WAT     H180234   8.964   4.186   1.740
26664WAT     H280235   8.859   4.148   1.621
26665WAT      O80236   0.426   2.203   1.148
26665WAT     H180237   0.447   2.182   1.052
26665WAT     H280238   0.509   2.191   1.203
26666WAT      O80239   6.658   4.239   7.524
26666WAT     H180240   6.728   4.277   7.584
26666WAT     H280241   6.598   4.179   7.575
26667WAT      O80242   1.018   3.717   8.317
26667WAT     H180243   0.984   3.624   8.332
26667WAT     H280244   1.104   3.713   8.267
26668WAT      O80245   9.047   5.869   7.544
26668WAT     H180246   9.010   5.960   7.529
26668WAT     H280247   9.145   5.869   7.523
26669WAT      O80248   8.100   1.487   6.027
26669WAT     H180249   8.164   1.524   6.095
26669WAT     H280250   8.011   1.473   6.071
26670WAT      O80251   2.485   1.906   8.512
26670WAT     H180252   2.563   1.863   8.557
26670WAT     H280253   2.444   1.973   8.573
26671WAT      O80254   1.612   8.618   4.239
26671WAT     H180255   1.559   8.591   4.320
26671WAT     H280256   1.609   8.545   4.171
26672WAT      O80257   5.559   4.097   5.639
26672WAT     H180258   5.640   4.047   5.609
26672WAT     H280259   5.583   4.157   5.715
26673WAT      O80260   4.381   7.612   6.822
26673WAT     H180261   4.407   7.516   6.833
26673WAT     H280262   4.308   7.619   6.754
26674WAT      O80263   9.331   4.485   2.936
26674WAT     H180264   9.306   4.561   2.876
26674WAT     H280265   9.262   4.413   2.929
26675WAT      O80266   8.760   2.148   1.565
26675WAT     H180267   8.829   2.128   1.495
26675WAT     H280268   8.755   2.073   1.630
26676WAT      O80269   7.376   7.932   2.446
26676WAT     H180270   7.403   8.028   2.443
26676WAT     H280271   7.442   7.877   2.396
26677WAT      O80272   8.922   0.125   1.571
26677WAT     H180273   8.972   0.121   1.484
26677WAT     H280274   8.850   0.055   1.571
26678WAT      O80275   6.349   3.299   8.829
26678WAT     H180276   6.409   3.377   8.811
26678WAT     H280277   6.398   3.233   8.887
26679WAT      O80278   5.708   1.232   0.239
26679WAT     H180279   5.660   1.232   0.327
26679WAT     H280280   5.692   1.145   0.192
26680WAT      O80281   8.667   5.934   9.873
26680WAT     H180282   8.627   5.959   9.785
26680WAT     H280283   8.758   5.974   9.881
26681WAT      O80284   8.256   8.831   8.795
26681WAT     H180285   8.290   8.803   8.884
26681WAT     H280286   8.330   8.870   8.741
26682WAT      O80287   0.938   2.507   5.494
26682WAT     H180288   1.032   2.527   5.520
26682WAT     H280289   0.922   2.535   5.400
26683WAT      O80290   5.093   9.536   2.486
26683WAT     H180291   5.178   9.560   2.533
26683WAT     H280292   5.016   9.548   2.548
26684WAT      O80293   4.832   4.600   8.356
26684WAT     H180294   4.792   4.661   8.424
26684WAT     H280295   4.814   4.636   8.264
26685WAT      O80296   7.949   2.277   5.819
26685WAT     H180297   8.047   2.286   5.837
26685WAT     H280298   7.898   2.323   5.891
26686WAT      O80299   3.880   9.615   1.419
26686WAT     H180300   3.896   9.688   1.352
26686WAT     H280301   3.834   9.538   1.375
26687WAT      O80302   5.212   7.114   2.294
26687WAT     H180303   5.289   7.125   2.356
26687WAT     H280304   5.240   7.057   2.216
26688WAT      O80305   4.320   2.901   7.071
26688WAT     H180306   4.419   2.913   7.078
26688WAT     H280307   4.286   2.955   6.993
26689WAT      O80308   0.591   8.690   4.151
26689WAT     H180309   0.516   8.725   4.206
26689WAT     H280310   0.614   8.756   4.080
26690WAT      O80311   3.473   7.217   9.428
26690WAT     H180312   3.495   7.291   9.364
26690WAT     H280313   3.475   7.129   9.380
26691WAT      O80314   0.578   7.147   2.913
26691WAT     H180315   0.574   7.195   3.001
26691WAT     H280316   0.546   7.208   2.840
26692WAT      O80317   7.998   5.577   1.288
26692WAT     H180318   8.082   5.573   1.234
26692WAT     H280319   7.963   5.671   1.287
26693WAT      O80320   8.727   4.437   1.626
26693WAT     H180321   8.800   4.393   1.678
26693WAT     H280322   8.731   4.536   1.640
26694WAT      O80323   9.158   1.884   2.478
26694WAT     H180324   9.059   1.889   2.484
26694WAT     H280325   9.185   1.798   2.436
26695WAT      O80326   3.821   8.694   8.373
26695WAT     H180327   3.827   8.642   8.459
26695WAT     H280328   3.820   8.792   8.394
26696WAT      O80329   3.954   2.077   5.580
26696WAT     H180330   4.024   2.072   5.652
26696WAT     H280331   3.865   2.095   5.621
26697WAT      O80332   8.126   8.834   7.312
26697WAT     H180333   8.027   8.844   7.304
26697WAT     H280334   8.164   8.797   7.228
26698WAT      O80335   5.419   0.900   0.497
26698WAT     H180336   5.403   0.803   0.516
26698WAT     H280337   5.484   0.908   0.421
26699WAT      O80338   4.505   4.801   8.582
26699WAT     H180339   4.603   4.784   8.576
26699WAT     H280340   4.479   4.812   8.678
26700WAT      O80341   7.421   6.149   3.259
26700WAT     H180342   7.457   6.108   3.342
26700WAT     H280343   7.370   6.080   3.207
26701WAT      O80344   6.235   3.446   0.562
26701WAT     H180345   6.188   3.534   0.554
26701WAT     H280346   6.169   3.371   0.553
26702WAT      O80347   4.504   3.538   7.058
26702WAT     H180348   4.460   3.558   6.971
26702WAT     H280349   4.443   3.562   7.133
26703WAT      O80350   0.565   0.856   7.609
26703WAT     H180351   0.485   0.835   7.554
26703WAT     H280352   0.536   0.899   7.695
26704WAT      O80353   4.039   8.552   5.133
26704WAT     H180354   3.972   8.498   5.082
26704WAT     H280355   4.119   8.568   5.075
26705WAT      O80356   6.494   5.029   0.853
26705WAT     H180357   6.575   4.984   0.816
26705WAT     H280358   6.496   5.127   0.831
26706WAT      O80359   4.230   8.635   3.622
26706WAT     H180360   4.233   8.697   3.544
26706WAT     H280361   4.307   8.654   3.683
26707WAT      O80362   8.725   6.418   1.132
26707WAT     H180363   8.746   6.349   1.201
26707WAT     H280364   8.685   6.374   1.051
26708WAT      O80365   1.133   1.934   9.139
26708WAT     H180366   1.066   1.989   9.088
26708WAT     H280367   1.184   1.877   9.075
26709WAT      O80368   6.813   8.448   5.655
26709WAT     H180369   6.869   8.499   5.590
26709WAT     H280370   6.799   8.355   5.621
26710WAT      O80371   1.562   1.961   7.369
26710WAT     H180372   1.486   1.991   7.427
26710WAT     H280373   1.601   1.878   7.407
26711WAT      O80374   6.475   2.770   6.817
26711WAT     H180375   6.439   2.816   6.735
26711WAT     H280376   6.531   2.692   6.790
26712WAT      O80377   4.549   8.625   4.558
26712WAT     H180378   4.553   8.725   4.552
26712WAT     H280379   4.634   8.586   4.523
26713WAT      O80380   8.406   3.799   8.442
26713WAT     H180381   8.438   3.744   8.519
26713WAT     H280382   8.442   3.762   8.357
26714WAT      O80383   5.960   4.886   2.289
26714WAT     H180384   6.023   4.846   2.222
26714WAT     H280385   5.940   4.819   2.360
26715WAT      O80386   4.460   6.334   3.709
26715WAT     H180387   4.559   6.324   3.711
26715WAT     H280388   4.435   6.420   3.665
26716WAT      O80389   3.556   5.668   8.733
26716WAT     H180390   3.545   5.630   8.825
26716WAT     H280391   3.466   5.691   8.696
26717WAT      O80392   1.312   0.604   8.041
26717WAT     H180393   1.231   0.660   8.022
26717WAT     H280394   1.353   0.634   8.127
26718WAT      O80395   6.308   2.644   1.276
26718WAT     H180396   6.254   2.609   1.200
26718WAT     H280397   6.325   2.571   1.342
26719WAT      O80398   3.577   6.014   7.792
26719WAT     H180399   3.486   5.978   7.771
26719WAT     H280400   3.608   6.072   7.717
26720WAT      O80401   9.708   2.598   6.271
26720WAT     H180402   9.767   2.600   6.190
26720WAT     H280403   9.618   2.634   6.248
26721WAT      O80404   2.037   4.943   7.099
26721WAT     H180405   2.008   5.010   7.031
26721WAT     H280406   2.011   4.851   7.068
26722WAT      O80407   7.247   8.016   8.270
26722WAT     H180408   7.295   8.007   8.357
26722WAT     H280409   7.288   8.089   8.216
26723WAT      O80410   8.905   2.633   6.121
26723WAT     H180411   8.821   2.595   6.083
26723WAT     H280412   8.882   2.703   6.189
26724WAT      O80413   4.743   2.698   7.379
26724WAT     H180414   4.655   2.745   7.380
26724WAT     H280415   4.757   2.652   7.467
26725WAT      O80416   4.336   2.287   2.606
26725WAT     H180417   4.387   2.248   2.529
26725WAT     H280418   4.399   2.335   2.667
26726WAT      O80419   1.673   7.990   3.589
26726WAT     H180420   1.681   8.059   3.516
26726WAT     H280421   1.576   7.975   3.610
26727WAT      O80422   5.034   1.745   8.291
26727WAT     H180423   5.127   1.713   8.310
26727WAT     H280424   5.020   1.749   8.192
26728WAT      O80425   8.654   7.566   7.082
26728WAT     H180426   8.667   7.495   7.013
26728WAT     H280427   8.716   7.643   7.063
26729WAT      O80428   9.386   3.502   6.517
26729WAT     H180429   9.426   3.514   6.607
26729WAT     H280430   9.289   3.478   6.526
26730WAT      O80431   6.318   5.811   6.852
26730WAT     H180432   6.356   5.748   6.784
26730WAT     H280433   6.390   5.841   6.914
26731WAT      O80434   8.241   0.363   9.411
26731WAT     H180435   8.263   0.266   9.416
26731WAT     H280436   8.319   0.417   9.442
26732WAT      O80437   1.338   3.446   4.635
26732WAT     H180438   1.246   3.407   4.629
26732WAT     H280439   1.374   3.432   4.727
26733WAT      O80440   1.080   7.941   7.277
26733WAT     H180441   1.090   7.876   7.202
26733WAT     H280442   1.158   7.933   7.339
26734WAT      O80443   9.696   7.533   7.223
26734WAT     H180444   9.734   7.626   7.215
26734WAT     H280445   9.707   7.486   7.135
26735WAT      O80446   1.767   5.014   0.541
26735WAT     H180447   1.670   5.006   0.516
26735WAT     H280448   1.794   5.110   0.537
26736WAT      O80449   7.992   4.777   4.162
26736WAT     H180450   7.979   4.856   4.102
26736WAT     H280451   7.957   4.799   4.254
26737WAT      O80452   5.517   3.050   5.901
26737WAT     H180453   5.525   2.953   5.926
26737WAT     H280454   5.537   3.062   5.804
26738WAT      O80455   3.041   9.043   2.727
26738WAT     H180456   3.044   8.945   2.706
26738WAT     H280457   2.948   9.070   2.751
26739WAT      O80458   3.109   1.482   3.158
26739WAT     H180459   3.144   1.522   3.073
26739WAT     H280460   3.184   1.442   3.210
26740WAT      O80461   6.253   2.588   8.748
26740WAT     H180462   6.176   2.625   8.695
26740WAT     H280463   6.332   2.647   8.735
26741WAT      O80464   1.599   6.463   1.103
26741WAT     H180465   1.581   6.374   1.144
26741WAT     H280466   1.556   6.468   1.013
26742WAT      O80467   4.283   5.355   7.781
26742WAT     H180468   4.188   5.371   7.808
26742WAT     H280469   4.326   5.292   7.845
26743WAT      O80470   0.042   2.568   1.410
26743WAT     H180471   0.050   2.616   1.323
26743WAT     H280472  -0.006   2.481   1.397
26744WAT      O80473   2.171   4.049   5.886
26744WAT     H180474   2.123   4.131   5.855
26744WAT     H280475   2.257   4.074   5.930
26745WAT      O80476   9.438   6.559   5.645
26745WAT     H180477   9.410   6.608   5.727
26745WAT     H280478   9.359   6.513   5.604
26746WAT      O80479   4.699   2.584   7.641
26746WAT     H180480   4.659   2.539   7.722
26746WAT     H280481   4.793   2.611   7.661
26747WAT      O80482   7.855   6.553   4.529
26747WAT     H180483   7.894   6.488   4.595
26747WAT     H280484   7.756   6.559   4.543
26748WAT      O80485   3.351   2.832   1.863
26748WAT     H180486   3.273   2.860   1.918
26748WAT     H280487   3.425   2.801   1.922
26749WAT      O80488   4.807   8.353   8.555
26749WAT     H180489   4.752   8.286   8.605
26749WAT     H280490   4.883   8.306   8.510
26750WAT      O80491   6.029   7.131   1.330
26750WAT     H180492   5.948   7.075   1.346
26750WAT     H280493   6.111   7.074   1.334
26751WAT      O80494   6.251   3.918   1.003
26751WAT     H180495   6.170   3.859   1.012
26751WAT     H280496   6.272   3.932   0.906
26752WAT      O80497   9.836   0.876   3.120
26752WAT     H180498   9.817   0.847   3.214
26752WAT     H280499   9.758   0.853   3.062
26753WAT      O80500   5.360   1.695   0.613
26753WAT     H180501   5.281   1.753   0.592
26753WAT     H280502   5.424   1.698   0.536
26754WAT      O80503   2.024   3.167   5.600
26754WAT     H180504   2.116   3.138   5.627
26754WAT     H280505   2.000   3.251   5.648
26755WAT      O80506   9.771   8.132   0.319
26755WAT     H180507   9.698   8.123   0.251
26755WAT     H280508   9.832   8.207   0.294
26756WAT      O80509   1.218   0.088   3.938
26756WAT     H180510   1.194   0.132   4.024
26756WAT     H280511   1.275   0.008   3.956
26757WAT      O80512   8.839   1.857   2.811
26757WAT     H180513   8.931   1.892   2.825
26757WAT     H280514   8.826   1.831   2.716
26758WAT      O80515   2.917   9.634   8.917
26758WAT     H180516   2.875   9.545   8.938
26758WAT     H280517   2.933   9.684   9.002
26759WAT      O80518   8.135   1.192   8.493
26759WAT     H180519   8.196   1.269   8.477
26759WAT     H280520   8.187   1.116   8.531
26760WAT      O80521   7.914   3.139   7.054
26760WAT     H180522   7.869   3.217   7.011
26760WAT     H280523   7.894   3.056   7.001
26761WAT      O80524   1.619   9.102   5.123
26761WAT     H180525   1.614   9.057   5.211
26761WAT     H280526   1.532   9.149   5.105
26762WAT      O80527   4.169   4.721   8.636
26762WAT     H180528   4.225   4.666   8.574
26762WAT     H280529   4.164   4.815   8.601
26763WAT      O80530   1.885   3.120   3.631
26763WAT     H180531   1.850   3.027   3.626
26763WAT     H280532   1.893   3.158   3.539
26764WAT      O80533   8.447   4.749   3.119
26764WAT     H180534   8.457   4.802   3.035
26764WAT     H280535   8.469   4.807   3.198
26765WAT      O80536   7.642   2.316   3.124
26765WAT     H180537   7.697   2.397   3.104
26765WAT     H280538   7.685   2.263   3.197
26766WAT      O80539   5.984   5.622   0.075
26766WAT     H180540   5.935   5.551   0.127
26766WAT     H280541   6.060   5.657   0.129
26767WAT      O80542   4.504   7.807   3.337
26767WAT     H180543   4.502   7.784   3.435
26767WAT     H280544   4.510   7.723   3.283
26768WAT      O80545   9.146   1.369   6.739
26768WAT     H180546   9.147   1.284   6.685
26768WAT     H280547   9.210   1.434   6.699
26769WAT      O80548   5.645   4.848   0.900
26769WAT     H180549   5.553   4.855   0.861
26769WAT     H280550   5.668   4.751   0.913
26770WAT      O80551   9.091   4.466   2.631
26770WAT     H180552   9.047   4.421   2.709
26770WAT     H280553   9.151   4.539   2.665
26771WAT      O80554   3.762   3.342   4.797
26771WAT     H180555   3.676   3.390   4.810
26771WAT     H280556   3.749   3.244   4.812
26772WAT      O80557   8.680   6.312   7.363
26772WAT     H180558   8.651   6.352   7.275
26772WAT     H280559   8.613   6.335   7.433
26773WAT      O80560   1.032   1.288   5.643
26773WAT     H180561   1.031   1.194   5.674
26773WAT     H280562   0.994   1.293   5.551
26774WAT      O80563   8.897   4.163   4.992
26774WAT     H180564   8.863   4.136   5.083
26774WAT     H280565   8.997   4.158   4.992
26775WAT      O80566   5.279   8.345   2.463
26775WAT     H180567   5.282   8.350   2.363
26775WAT     H280568   5.342   8.274   2.494
26776WAT      O80569   6.448   5.378   6.496
26776WAT     H180570   6.450   5.384   6.596
26776WAT     H280571   6.542   5.366   6.462
26777WAT      O80572   3.992   0.025   1.718
26777WAT     H180573   4.007   0.103   1.779
26777WAT     H280574   3.903  -0.016   1.738
26778WAT      O80575   4.523   2.538   2.978
26778WAT     H180576   4.537   2.444   3.008
26778WAT     H280577   4.601   2.594   3.005
26779WAT      O80578   5.502   8.556   2.713
26779WAT     H180579   5.584   8.580   2.663
26779WAT     H280580   5.525   8.497   2.790
26780WAT      O80581   9.233   6.394   5.563
26780WAT     H180582   9.244   6.378   5.661
26780WAT     H280583   9.243   6.307   5.513
26781WAT      O80584   8.574   9.411   9.131
26781WAT     H180585   8.509   9.417   9.207
26781WAT     H280586   8.529   9.372   9.051
26782WAT      O80587   4.013   7.329   6.770
26782WAT     H180588   4.075   7.267   6.818
26782WAT     H280589   3.953   7.374   6.836
26783WAT      O80590   3.831   2.247   3.228
26783WAT     H180591   3.805   2.221   3.135
26783WAT     H280592   3.798   2.178   3.293
26784WAT      O80593   8.911   6.094   8.850
26784WAT     H180594   8.930   6.107   8.947
26784WAT     H280595   8.842   6.022   8.838
26785WAT      O80596   5.420   4.113   3.074
26785WAT     H180597   5.404   4.042   3.005
26785WAT     H280598   5.442   4.199   3.028
26786WAT      O80599   2.173   1.675   1.845
26786WAT     H180600   2.118   1.756   1.867
26786WAT     H280601   2.264   1.684   1.886
26787WAT      O80602   9.048   8.572   7.622
26787WAT     H180603   9.112   8.496   7.638
26787WAT     H280604   8.958   8.547   7.659
26788WAT      O80605   1.809   8.280   0.094
26788WAT     H180606   1.754   8.207   0.055
26788WAT     H280607   1.789   8.366   0.047
26789WAT      O80608   1.166   4.835   9.194
26789WAT     H180609   1.075   4.820   9.154
26789WAT     H280610   1.189   4.757   9.253
26790WAT      O80611   4.809   2.233   1.912
26790WAT     H180612   4.734   2.260   1.972
26790WAT     H280613   4.892   2.284   1.937
26791WAT      O80614   9.664   4.016   8.355
26791WAT     H180615   9.643   4.004   8.258
26791WAT     H280616   9.707   3.933   8.390
26792WAT      O80617   2.906   6.126   7.241
26792WAT     H180618   2.931   6.220   7.218
26792WAT     H280619   2.815   6.106   7.205
26793WAT      O80620   1.281   4.280   1.018
26793WAT     H180621   1.206   4.233   0.971
26793WAT     H280622   1.310   4.226   1.096
26794WAT      O80623   0.917   6.094   3.270
26794WAT     H180624   0.907   6.193   3.262
26794WAT     H280625   1.005   6.073   3.312
26795WAT      O80626   4.521   4.093   9.398
26795WAT     H180627   4.598   4.120   9.340
26795WAT     H280628   4.541   4.118   9.493
26796WAT      O80629   8.908   4.394   5.747
26796WAT     H180630   8.935   4.393   5.843
26796WAT     H280631   8.961   4.464   5.698
26797WAT      O80632   9.021   0.298   6.466
26797WAT     H180633   8.960   0.237   6.414
26797WAT     H280634   8.989   0.392   6.458
26798WAT      O80635   1.557   9.308   4.380
26798WAT     H180636   1.549   9.391   4.325
26798WAT     H280637   1.602   9.237   4.326
26799WAT      O80638   9.089   6.328   4.113
26799WAT     H180639   9.063   6.320   4.016
26799WAT     H280640   9.142   6.412   4.126
26800WAT      O80641   3.657   1.088   6.695
26800WAT     H180642   3.564   1.058   6.719
26800WAT     H280643   3.676   1.062   6.600
26801WAT      O80644   6.674   8.878   9.621
26801WAT     H180645   6.712   8.875   9.528
26801WAT     H280646   6.748   8.862   9.687
26802WAT      O80647   7.340   3.777   8.654
26802WAT     H180648   7.324   3.865   8.700
26802WAT     H280649   7.379   3.794   8.564
26803WAT      O80650   8.265   8.034   8.760
26803WAT     H180651   8.348   7.998   8.719
26803WAT     H280652   8.261   8.006   8.856
26804WAT      O80653   2.304   0.960   4.465
26804WAT     H180654   2.307   0.956   4.365
26804WAT     H280655   2.398   0.960   4.500
26805WAT      O80656   4.154   9.079   7.098
26805WAT     H180657   4.250   9.052   7.093
26805WAT     H280658   4.109   9.060   7.011
26806WAT      O80659   1.299   0.349   0.300
26806WAT     H180660   1.375   0.382   0.357
26806WAT     H280661   1.262   0.425   0.247
26807WAT      O80662   6.390   6.634   0.528
26807WAT     H180663   6.366   6.549   0.575
26807WAT     H280664   6.487   6.631   0.502
26808WAT      O80665   1.232   7.072   7.547
26808WAT     H180666   1.282   7.064   7.633
26808WAT     H280667   1.193   7.164   7.539
26809WAT      O80668   2.621   4.718   8.235
26809WAT     H180669   2.587   4.647   8.174
26809WAT     H280670   2.590   4.699   8.329
26810WAT      O80671   2.875   6.811   1.254
26810WAT     H180672   2.788   6.831   1.299
26810WAT     H280673   2.951   6.835   1.314
26811WAT      O80674   1.976   5.130   5.176
26811WAT     H180675   2.059   5.074   5.180
26811WAT     H280676   1.977   5.196   5.252
26812WAT      O80677   7.828   4.245   5.838
26812WAT     H180678   7.855   4.175   5.772
26812WAT     H280679   7.892   4.321   5.834
26813WAT      O80680   3.112   4.507   7.939
26813WAT     H180681   3.103   4.604   7.920
26813WAT     H280682   3.200   4.474   7.904
26814WAT      O80683   4.864   1.172   6.013
26814WAT     H180684   4.864   1.083   6.058
26814WAT     H280685   4.941   1.226   6.047
26815WAT      O80686   4.356   5.547   8.315
26815WAT     H180687   4.377   5.450   8.327
26815WAT     H280688   4.407   5.601   8.383
26816WAT      O80689   0.047   1.894   0.401
26816WAT     H180690   0.147   1.897   0.398
26816WAT     H280691   0.018   1.848   0.485
26817WAT      O80692   7.951   7.030   3.548
26817WAT     H180693   7.907   7.064   3.465
26817WAT     H280694   7.896   7.053   3.627
26818WAT      O80695   1.591   7.519   2.707
26818WAT     H180696   1.681   7.500   2.666
26818WAT     H280697   1.596   7.604   2.759
26819WAT      O80698   7.910   1.496   6.714
26819WAT     H180699   7.918   1.460   6.807
26819WAT     H280700   7.838   1.565   6.711
26820WAT      O80701   3.496   1.080   0.744
26820WAT     H180702   3.529   0.992   0.781
26820WAT     H280703   3.573   1.144   0.738
26821WAT      O80704   5.353   1.930   8.430
26821WAT     H180705   5.305   2.018   8.424
26821WAT     H280706   5.451   1.946   8.436
26822WAT      O80707   3.753   1.862   7.402
26822WAT     H180708   3.779   1.948   7.359
26822WAT     H280709   3.824   1.794   7.386
26823WAT      O80710   2.334   4.357   4.819
26823WAT     H180711   2.253   4.342   4.762
26823WAT     H280712   2.336   4.452   4.850
26824WAT      O80713   8.718   3.974   8.572
26824WAT     H180714   8.738   4.056   8.519
26824WAT     H280715   8.703   3.897   8.510
26825WAT      O80716   8.783   7.472   6.634
26825WAT     H180717   8.704   7.521   6.598
26825WAT     H280718   8.861   7.534   6.641
26826WAT      O80719   1.784   1.731   0.538
26826WAT     H180720   1.817   1.717   0.444
26826WAT     H280721   1.737   1.819   0.544
26827WAT      O80722   6.048   1.586   5.240
26827WAT     H180723   5.985   1.509   5.227
26827WAT     H280724   6.030   1.657   5.173
26828WAT      O80725   6.894   5.502   5.725
26828WAT     H180726   6.882   5.427   5.790
26828WAT     H280727   6.824   5.495   5.653
26829WAT      O80728   2.496   0.839   9.144
26829WAT     H180729   2.427   0.911   9.154
26829WAT     H280730   2.540   0.847   9.054
26830WAT      O80731   9.619   9.549   1.589
26830WAT     H180732   9.688   9.571   1.520
26830WAT     H280733   9.655   9.478   1.649
26831WAT      O80734   1.919   0.976   7.472
26831WAT     H180735   1.957   1.026   7.394
26831WAT     H280736   1.991   0.924   7.517
26832WAT      O80737   3.222   6.149   1.731
26832WAT     H180738   3.309   6.100   1.737
26832WAT     H280739   3.214   6.213   1.807
26833WAT      O80740   9.415   9.129   8.633
26833WAT     H180741   9.337   9.098   8.688
26833WAT     H280742   9.477   9.052   8.617
26834WAT      O80743   8.861   5.105   4.746
26834WAT     H180744   8.807   5.148   4.674
26834WAT     H280745   8.909   5.175   4.798
26835WAT      O80746   7.416   0.743   5.705
26835WAT     H180747   7.396   0.657   5.753
26835WAT     H280748   7.491   0.790   5.751
26836WAT      O80749   0.905   5.632   9.117
26836WAT     H180750   0.805   5.641   9.127
26836WAT     H280751   0.925   5.567   9.044
26837WAT      O80752   3.591   2.452   2.814
26837WAT     H180753   3.515   2.514   2.795
26837WAT     H280754   3.571   2.401   2.898
26838WAT      O80755   8.598   1.763   9.677
26838WAT     H180756   8.573   1.668   9.694
26838WAT     H280757   8.698   1.770   9.668
26839WAT      O80758   1.320   0.539   4.849
26839WAT     H180759   1.245   0.544   4.916
26839WAT     H280760   1.283   0.552   4.757
26840WAT      O80761   3.104   6.177   0.223
26840WAT     H180762   3.083   6.267   0.261
26840WAT     H280763   3.083   6.177   0.126
26841WAT      O80764   7.747   2.256   1.198
26841WAT     H180765   7.716   2.323   1.265
26841WAT     H280766   7.675   2.187   1.184
26842WAT      O80767   9.373   2.006   1.771
26842WAT     H180768   9.418   1.919   1.754
26842WAT     H280769   9.364   2.021   1.870
26843WAT      O80770   2.368   6.371   9.838
26843WAT     H180771   2.299   6.440   9.861
26843WAT     H280772   2.452   6.416   9.807
26844WAT      O80773   2.382   2.890   7.549
26844WAT     H180774   2.303   2.830   7.553
26844WAT     H280775   2.384   2.949   7.630
26845WAT      O80776   5.029   7.236   7.021
26845WAT     H180777   5.046   7.160   7.084
26845WAT     H280778   5.114   7.287   7.007
26846WAT      O80779   6.619   1.384   9.146
26846WAT     H180780   6.558   1.382   9.067
26846WAT     H280781   6.570   1.349   9.226
26847WAT      O80782   5.158   3.403   1.547
26847WAT     H180783   5.078   3.452   1.513
26847WAT     H280784   5.231   3.408   1.479
26848WAT      O80785   0.568   3.796   6.429
26848WAT     H180786   0.543   3.701   6.415
26848WAT     H280787   0.576   3.842   6.340
26849WAT      O80788   7.497   1.468   8.005
26849WAT     H180789   7.565   1.522   7.957
26849WAT     H280790   7.541   1.388   8.046
26850WAT      O80791   0.788   5.894   0.112
26850WAT     H180792   0.767   5.988   0.137
26850WAT     H280793   0.738   5.831   0.173
26851WAT      O80794   8.414   4.650   1.452
26851WAT     H180795   8.401   4.554   1.427
26851WAT     H280796   8.354   4.707   1.396
26852WAT      O80797   0.846   0.559   6.757
26852WAT     H180798   0.812   0.653   6.761
26852WAT     H280799   0.939   0.556   6.795
26853WAT      O80800   5.290   4.825   4.255
26853WAT     H180801   5.199   4.825   4.297
26853WAT     H280802   5.288   4.769   4.172
26854WAT      O80803   7.465   7.997   9.458
26854WAT     H180804   7.398   7.929   9.486
26854WAT     H280805   7.499   8.046   9.538
26855WAT      O80806   6.248   7.839   4.396
26855WAT     H180807   6.253   7.788   4.310
26855WAT     H280808   6.227   7.775   4.471
26856WAT      O80809   3.905   9.361   0.548
26856WAT     H180810   3.843   9.346   0.471
26856WAT     H280811   3.857   9.342   0.634
26857WAT      O80812   6.278   6.785   6.129
26857WAT     H180813   6.368   6.828   6.128
26857WAT     H280814   6.207   6.854   6.114
26858WAT      O80815   6.781   8.690   7.904
26858WAT     H180816   6.874   8.717   7.926
26858WAT     H280817   6.736   8.762   7.852
26859WAT      O80818   1.207   0.384   2.358
26859WAT     H180819   1.219   0.388   2.259
26859WAT     H280820   1.295   0.367   2.402
26860WAT      O80821   3.610   8.991   2.734
26860WAT     H180822   3.630   8.945   2.647
26860WAT     H280823   3.632   8.930   2.809
26861WAT      O80824   0.666   4.691   2.374
26861WAT     H180825   0.715   4.656   2.453
26861WAT     H280826   0.576   4.647   2.368
26862WAT      O80827   7.055   6.197   6.009
26862WAT     H180828   6.986   6.136   5.970
26862WAT     H280829   7.061   6.181   6.108
26863WAT      O80830   6.330   0.706   5.605
26863WAT     H180831   6.423   0.731   5.582
26863WAT     H280832   6.327   0.666   5.696
26864WAT      O80833   7.906   7.228   7.785
26864WAT     H180834   7.918   7.212   7.883
26864WAT     H280835   7.969   7.170   7.734
26865WAT      O80836   0.812   5.872   3.771
26865WAT     H180837   0.879   5.881   3.698
26865WAT     H280838   0.814   5.778   3.805
26866WAT      O80839   1.199   4.083   1.444
26866WAT     H180840   1.191   4.042   1.353
26866WAT     H280841   1.218   4.181   1.436
26867WAT      O80842   6.521   9.034   5.867
26867WAT     H180843   6.453   8.996   5.804
26867WAT     H280844   6.602   8.975   5.869
26868WAT      O80845   1.521   5.930   3.571
26868WAT     H180846   1.523   5.878   3.657
26868WAT     H280847   1.499   6.026   3.590
26869WAT      O80848   8.084   8.132   7.222
26869WAT     H180849   8.183   8.124   7.214
26869WAT     H280850   8.050   8.069   7.293
26870WAT      O80851   3.677   5.394   3.728
26870WAT     H180852   3.692   5.303   3.689
26870WAT     H280853   3.659   5.385   3.826
26871WAT      O80854   5.837   6.883   1.313
26871WAT     H180855   5.814   6.786   1.317
26871WAT     H280856   5.771   6.936   1.366
26872WAT      O80857   0.081   3.443   6.180
26872WAT     H180858   0.137   3.366   6.151
26872WAT     H280859   0.125   3.489   6.257
26873WAT      O80860   9.429   7.597   6.100
26873WAT     H180861   9.468   7.519   6.149
26873WAT     H280862   9.482   7.614   6.017
26874WAT      O80863   2.384   4.098   3.646
26874WAT     H180864   2.385   4.144   3.735
26874WAT     H280865   2.293   4.103   3.607
26875WAT      O80866   4.726   1.161   0.913
26875WAT     H180867   4.816   1.120   0.905
26875WAT     H280868   4.686   1.172   0.822
26876WAT      O80869   1.796   9.038   5.690
26876WAT     H180870   1.776   8.959   5.632
26876WAT     H280871   1.777   9.123   5.640
26877WAT      O80872   5.489   9.284   8.361
26877WAT     H180873   5.473   9.201   8.307
26877WAT     H280874   5.569   9.270   8.420
26878WAT      O80875   7.278   0.666   7.504
26878WAT     H180876   7.224   0.710   7.576
26878WAT     H280877   7.227   0.590   7.466
26879WAT      O80878   7.186   4.595   6.661
26879WAT     H180879   7.185   4.654   6.580
26879WAT     H280880   7.190   4.652   6.743
26880WAT      O80881   5.913   2.451   1.131
26880WAT     H180882   5.926   2.522   1.200
26880WAT     H280883   5.982   2.461   1.059
26881WAT      O80884   5.250   0.495   8.855
26881WAT     H180885   5.167   0.473   8.906
26881WAT     H280886   5.271   0.593   8.866
26882WAT      O80887   6.521   7.895   7.362
26882WAT     H180888   6.524   7.934   7.454
26882WAT     H280889   6.440   7.928   7.315
26883WAT      O80890   3.817   0.914   9.387
26883WAT     H180891   3.793   0.874   9.475
26883WAT     H280892   3.742   0.899   9.322
26884WAT      O80893   7.363   2.388   3.627
26884WAT     H180894   7.311   2.472   3.645
26884WAT     H280895   7.307   2.325   3.573
26885WAT      O80896   6.677   3.911   5.139
26885WAT     H180897   6.615   3.833   5.143
26885WAT     H280898   6.718   3.926   5.229
26886WAT      O80899   7.175   0.031   8.960
26886WAT     H180900   7.233   0.039   8.879
26886WAT     H280901   7.204   0.097   9.029
26887WAT      O80902   3.474   7.913   8.063
26887WAT     H180903   3.533   7.989   8.087
26887WAT     H280904   3.394   7.912   8.124
26888WAT      O80905   7.503   1.098   4.029
26888WAT     H180906   7.575   1.138   3.972
26888WAT     H280907   7.481   1.160   4.103
26889WAT      O80908   7.809   7.757   1.950
26889WAT     H180909   7.749   7.682   1.977
26889WAT     H280910   7.772   7.801   1.867
26890WAT      O80911   4.128   9.474   7.901
26890WAT     H180912   4.170   9.555   7.942
26890WAT     H280913   4.034   9.465   7.933
26891WAT      O80914   1.072   5.645   5.632
26891WAT     H180915   1.056   5.702   5.713
26891WAT     H280916   0.984   5.618   5.593
26892WAT      O80917   4.577   0.945   4.291
26892WAT     H180918   4.481   0.936   4.315
26892WAT     H280919   4.622   1.009   4.353
26893WAT      O80920   3.345   7.341   3.180
26893WAT     H180921   3.330   7.311   3.274
26893WAT     H280922   3.403   7.423   3.179
26894WAT      O80923   9.334   2.206   3.874
26894WAT     H180924   9.329   2.121   3.926
26894WAT     H280925   9.253   2.215   3.816
26895WAT      O80926   1.026   5.718   4.775
26895WAT     H180927   1.113   5.697   4.730
26895WAT     H280928   1.000   5.813   4.754
26896WAT      O80929   8.592   7.980   0.528
26896WAT     H180930   8.622   7.937   0.613
26896WAT     H280931   8.499   8.013   0.538
26897WAT      O80932   7.654   9.612   1.255
26897WAT     H180933   7.575   9.609   1.315
26897WAT     H280934   7.652   9.532   1.194
26898WAT      O80935   4.447   4.779   9.598
26898WAT     H180936   4.403   4.806   9.683
26898WAT     H280937   4.416   4.838   9.523
26899WAT      O80938   3.028   9.704   5.837
26899WAT     H180939   2.998   9.747   5.752
26899WAT     H280940   3.102   9.758   5.877
26900WAT      O80941   0.739   7.787   0.711
26900WAT     H180942   0.722   7.805   0.614
26900WAT     H280943   0.770   7.871   0.755
26901WAT      O80944   0.050   4.674   8.197
26901WAT     H180945   0.145   4.684   8.224
26901WAT     H280946   0.027   4.577   8.191
26902WAT      O80947   9.823   5.907   7.073
26902WAT     H180948   9.725   5.915   7.058
26902WAT     H280949   9.841   5.838   7.144
26903WAT      O80950   3.596   8.487   2.251
26903WAT     H180951   3.521   8.552   2.262
26903WAT     H280952   3.560   8.394   2.253
26904WAT      O80953   9.432   7.635   3.633
26904WAT     H180954   9.339   7.653   3.666
26904WAT     H280955   9.475   7.566   3.691
26905WAT      O80956   2.959   2.520   5.994
26905WAT     H180957   2.979   2.531   5.897
26905WAT     H280958   2.977   2.605   6.042
26906WAT      O80959   0.682   5.456   0.645
26906WAT     H180960   0.720   5.507   0.567
26906WAT     H280961   0.644   5.520   0.711
26907WAT      O80962   8.204   9.357   7.878
26907WAT     H180963   8.149   9.276   7.901
26907WAT     H280964   8.277   9.369   7.945
26908WAT      O80965   9.776   9.609   1.275
26908WAT     H180966   9.776   9.684   1.210
26908WAT     H280967   9.870   9.588   1.303
26909WAT      O80968   2.083   4.799   9.592
26909WAT     H180969   2.114   4.811   9.686
26909WAT     H280970   1.992   4.839   9.581
26910WAT      O80971   7.746   3.352   8.991
26910WAT     H180972   7.806   3.358   9.071
26910WAT     H280973   7.656   3.319   9.019
26911WAT      O80974   4.336   8.966   1.354
26911WAT     H180975   4.431   8.942   1.375
26911WAT     H280976   4.302   9.027   1.426
26912WAT      O80977   3.492   8.246   2.156
26912WAT     H180978   3.411   8.227   2.212
26912WAT     H280979   3.533   8.160   2.126
26913WAT      O80980   1.135   6.464   7.894
26913WAT     H180981   1.203   6.525   7.934
26913WAT     H280982   1.045   6.508   7.898
26914WAT      O80983   9.579   4.961   0.455
26914WAT     H180984   9.620   5.009   0.533
26914WAT     H280985   9.650   4.913   0.404
26915WAT      O80986   8.833   8.340   1.923
26915WAT     H180987   8.860   8.285   2.001
26915WAT     H280988   8.878   8.306   1.840
26916WAT      O80989   8.688   4.268   1.889
26916WAT     H180990   8.780   4.274   1.849
26916WAT     H280991   8.622   4.250   1.817
26917WAT      O80992   4.238   8.547   6.918
26917WAT     H180993   4.203   8.481   6.852
26917WAT     H280994   4.200   8.526   7.008
26918WAT      O80995   5.769   9.457   7.914
26918WAT     H180996   5.764   9.523   7.990
26918WAT     H280997   5.856   9.469   7.866
26919WAT      O80998   2.990   8.246   6.724
26919WAT     H180999   3.053   8.280   6.654
26919WAT     H281000   2.913   8.310   6.733
26920WAT      O81001   8.716   2.728   2.181
26920WAT     H181002   8.747   2.773   2.265
26920WAT     H281003   8.731   2.629   2.189
26921WAT      O81004   2.574   3.801   8.736
26921WAT     H181005   2.597   3.898   8.746
26921WAT     H281006   2.549   3.783   8.640
26922WAT      O81007   9.532   3.568   4.942
26922WAT     H181008   9.602   3.502   4.968
26922WAT     H281009   9.492   3.609   5.024
26923WAT      O81010   4.276   5.028   3.135
26923WAT     H181011   4.263   5.126   3.123
26923WAT     H281012   4.364   5.000   3.095
26924WAT      O81013   5.464   1.923   6.472
26924WAT     H181014   5.447   1.857   6.545
26924WAT     H281015   5.377   1.955   6.434
26925WAT      O81016   4.542   4.452   9.219
26925WAT     H181017   4.496   4.435   9.306
26925WAT     H281018   4.635   4.484   9.236
26926WAT      O81019   8.439   0.324   7.192
26926WAT     H181020   8.399   0.391   7.129
26926WAT     H281021   8.413   0.347   7.286
26927WAT      O81022   7.966   5.851   8.900
26927WAT     H181023   7.970   5.944   8.938
26927WAT     H281024   7.872   5.830   8.874
26928WAT      O81025   8.680   3.132   9.152
26928WAT     H181026   8.626   3.115   9.070
26928WAT     H281027   8.643   3.078   9.228
26929WAT      O81028   9.513   0.526   4.445
26929WAT     H181029   9.453   0.494   4.518
26929WAT     H281030   9.458   0.544   4.363
26930WAT      O81031   6.840   5.565   6.093
26930WAT     H181032   6.813   5.498   6.024
26930WAT     H281033   6.786   5.550   6.176
26931WAT      O81034   9.612   4.387   2.140
26931WAT     H181035   9.567   4.440   2.212
26931WAT     H281036   9.558   4.393   2.056
26932WAT      O81037   8.311   1.940   7.129
26932WAT     H181038   8.335   1.857   7.079
26932WAT     H281039   8.229   1.981   7.090
26933WAT      O81040   1.341   3.740   9.229
26933WAT     H181041   1.375   3.731   9.136
26933WAT     H281042   1.257   3.793   9.229
26934WAT      O81043   2.536   8.844   6.224
26934WAT     H181044   2.477   8.824   6.301
26934WAT     H281045   2.550   8.760   6.170
26935WAT      O81046   2.514   6.853   1.079
26935WAT     H181047   2.478   6.938   1.118
26935WAT     H281048   2.440   6.787   1.070
26936WAT      O81049   1.955   3.505   3.575
26936WAT     H181050   1.993   3.421   3.536
26936WAT     H281051   1.911   3.485   3.662
26937WAT      O81052   1.613   3.273   7.393
26937WAT     H181053   1.608   3.174   7.410
26937WAT     H281054   1.559   3.321   7.462
26938WAT      O81055   0.724   4.216   7.390
26938WAT     H181056   0.767   4.294   7.434
26938WAT     H281057   0.754   4.211   7.294
26939WAT      O81058   9.591   2.418   9.537
26939WAT     H181059   9.609   2.511   9.502
26939WAT     H281060   9.501   2.388   9.506
26940WAT      O81061   0.968   1.867   3.786
26940WAT     H181062   0.949   1.965   3.794
26940WAT     H281063   0.945   1.821   3.871
26941WAT      O81064   0.319   6.219   7.257
26941WAT     H181065   0.395   6.277   7.230
26941WAT     H281066   0.324   6.200   7.355
26942WAT      O81067   1.943   0.136   8.036
26942WAT     H181068   1.897   0.111   8.121
26942WAT     H281069   2.040   0.153   8.054
26943WAT      O81070   1.161   9.519   4.381
26943WAT     H181071   1.144   9.421   4.384
26943WAT     H281072   1.144   9.553   4.289
26944WAT      O81073   8.643   3.268   6.152
26944WAT     H181074   8.571   3.333   6.176
26944WAT     H281075   8.686   3.233   6.235
26945WAT      O81076   9.003   6.466   4.627
26945WAT     H181077   8.910   6.473   4.663
26945WAT     H281078   9.029   6.553   4.583
26946WAT      O81079   2.432   7.550   4.752
26946WAT     H181080   2.511   7.609   4.765
26946WAT     H281081   2.363   7.598   4.697
26947WAT      O81082   6.343   7.732   1.826
26947WAT     H181083   6.361   7.800   1.755
26947WAT     H281084   6.347   7.775   1.916
26948WAT      O81085   0.462   1.572   9.856
26948WAT     H181086   0.512   1.551   9.772
26948WAT     H281087   0.382   1.628   9.834
26949WAT      O81088   7.379   9.219   0.863
26949WAT     H181089   7.390   9.192   0.959
26949WAT     H281090   7.286   9.252   0.848
26950WAT      O81091   7.330   2.657   5.573
26950WAT     H181092   7.286   2.569   5.559
26950WAT     H281093   7.307   2.718   5.497
26951WAT      O81094   4.738   8.931   2.971
26951WAT     H181095   4.774   9.016   2.932
26951WAT     H281096   4.695   8.951   3.059
26952WAT      O81097   8.870   0.594   8.724
26952WAT     H181098   8.866   0.588   8.624
26952WAT     H281099   8.817   0.518   8.763
26953WAT      O81100   5.176   0.436   8.223
26953WAT     H181101   5.185   0.353   8.169
26953WAT     H281102   5.134   0.507   8.167
26954WAT      O81103   2.572   5.175   7.351
26954WAT     H181104   2.621   5.127   7.424
26954WAT     H281105   2.489   5.216   7.388
26955WAT      O81106   8.854   9.465   1.777
26955WAT     H181107   8.783   9.476   1.708
26955WAT     H281108   8.941   9.440   1.733
26956WAT      O81109   1.847   1.406   9.043
26956WAT     H181110   1.842   1.506   9.043
26956WAT     H281111   1.906   1.375   8.969
26957WAT      O81112   7.486   3.181   8.731
26957WAT     H181113   7.578   3.213   8.709
26957WAT     H281114   7.484   3.081   8.727
26958WAT      O81115   3.214   4.383   3.022
26958WAT     H181116   3.123   4.425   3.019
26958WAT     H281117   3.265   4.421   3.099
26959WAT      O81118   9.798   7.958   5.688
26959WAT     H181119   9.769   8.051   5.665
26959WAT     H281120   9.724   7.911   5.735
26960WAT      O81121   2.143   5.568   1.671
26960WAT     H181122   2.219   5.510   1.642
26960WAT     H281123   2.078   5.515   1.725
26961WAT      O81124   4.209   9.016   5.153
26961WAT     H181125   4.236   9.081   5.224
26961WAT     H281126   4.109   9.011   5.148
26962WAT      O81127   3.339   6.160   4.289
26962WAT     H181128   3.252   6.179   4.333
26962WAT     H281129   3.323   6.124   4.197
26963WAT      O81130   5.915   3.713   4.451
26963WAT     H181131   5.920   3.807   4.482
26963WAT     H281132   5.965   3.704   4.364
26964WAT      O81133   6.090   3.445   7.365
26964WAT     H181134   6.123   3.375   7.428
26964WAT     H281135   5.990   3.443   7.361
26965WAT      O81136   9.739   8.637   2.624
26965WAT     H181137   9.807   8.710   2.620
26965WAT     H281138   9.777   8.559   2.673
26966WAT      O81139   5.420   0.380   6.447
26966WAT     H181140   5.339   0.369   6.391
26966WAT     H281141   5.480   0.449   6.406
26967WAT      O81142   2.167   5.216   8.846
26967WAT     H181143   2.153   5.171   8.935
26967WAT     H281144   2.183   5.146   8.776
26968WAT      O81145   3.830   2.992   0.245
26968WAT     H181146   3.906   3.057   0.241
26968WAT     H281147   3.761   3.019   0.177
26969WAT      O81148   8.398   6.779   6.735
26969WAT     H181149   8.303   6.791   6.704
26969WAT     H281150   8.457   6.766   6.656
26970WAT      O81151   1.145   8.072   4.402
26970WAT     H181152   1.217   8.016   4.361
26970WAT     H281153   1.104   8.023   4.479
26971WAT      O81154   5.398   5.263   4.564
26971WAT     H181155   5.407   5.359   4.591
26971WAT     H281156   5.423   5.204   4.641
26972WAT      O81157   0.253   3.008   1.829
26972WAT     H181158   0.241   3.104   1.855
26972WAT     H281159   0.211   2.949   1.898
26973WAT      O81160   1.636   9.078   9.332
26973WAT     H181161   1.641   9.126   9.419
26973WAT     H281162   1.719   9.023   9.320
26974WAT      O81163   9.286   3.583   1.182
26974WAT     H181164   9.199   3.576   1.134
26974WAT     H281165   9.312   3.679   1.191
26975WAT      O81166   1.737   6.140   0.242
26975WAT     H181167   1.710   6.142   0.146
26975WAT     H281168   1.712   6.226   0.286
26976WAT      O81169   2.968   3.850   9.326
26976WAT     H181170   2.936   3.944   9.327
26976WAT     H281171   2.913   3.795   9.389
26977WAT      O81172   1.508   1.617   1.232
26977WAT     H181173   1.464   1.695   1.189
26977WAT     H281174   1.517   1.543   1.165
26978WAT      O81175   9.707   5.457   1.659
26978WAT     H181176   9.646   5.401   1.715
26978WAT     H281177   9.718   5.547   1.701
26979WAT      O81178   1.257   4.647   8.576
26979WAT     H181179   1.236   4.615   8.483
26979WAT     H281180   1.249   4.570   8.639
26980WAT      O81181   7.494   0.984   9.351
26980WAT     H181182   7.403   1.005   9.315
26980WAT     H281183   7.486   0.954   9.446
26981WAT      O81184   0.184   6.491   1.581
26981WAT     H181185   0.281   6.482   1.601
26981WAT     H281186   0.162   6.438   1.499
26982WAT      O81187   0.283   5.269   1.880
26982WAT     H181188   0.266   5.324   1.799
26982WAT     H281189   0.379   5.278   1.907
26983WAT      O81190   9.460   1.887   2.187
26983WAT     H181191   9.462   1.926   2.279
26983WAT     H281192   9.383   1.927   2.136
26984WAT      O81193   8.516   9.666   5.135
26984WAT     H181194   8.537   9.607   5.057
26984WAT     H281195   8.564   9.632   5.216
26985WAT      O81196   6.166   5.915   5.795
26985WAT     H181197   6.180   5.899   5.893
26985WAT     H281198   6.111   5.998   5.782
26986WAT      O81199   7.187   1.684   1.516
26986WAT     H181200   7.135   1.662   1.599
26986WAT     H281201   7.130   1.665   1.435
26987WAT      O81202   8.456   8.223   5.727
26987WAT     H181203   8.414   8.190   5.643
26987WAT     H281204   8.521   8.295   5.706
26988WAT      O81205   3.146   2.948   6.407
26988WAT     H181206   3.160   2.852   6.432
26988WAT     H281207   3.064   2.983   6.453
26989WAT      O81208   5.089   9.009   8.509
26989WAT     H181209   5.067   8.936   8.573
26989WAT     H281210   5.189   9.021   8.505
26990WAT      O81211   4.258   1.337   4.828
26990WAT     H181212   4.324   1.291   4.888
26990WAT     H281213   4.198   1.394   4.884
26991WAT      O81214   1.779   3.936   7.360
26991WAT     H181215   1.864   3.957   7.313
26991WAT     H281216   1.763   4.003   7.432
26992WAT      O81217   9.471   6.592   0.079
26992WAT     H181218   9.460   6.552   0.170
26992WAT     H281219   9.561   6.566   0.042
26993WAT      O81220   2.773   4.019   3.646
26993WAT     H181221   2.722   3.971   3.717
26993WAT     H281222   2.869   3.989   3.648
26994WAT      O81223   6.882   7.281   0.803
26994WAT     H181224   6.927   7.334   0.875
26994WAT     H281225   6.944   7.270   0.726
26995WAT      O81226   1.746   4.252   5.447
26995WAT     H181227   1.692   4.333   5.465
26995WAT     H281228   1.761   4.242   5.348
26996WAT      O81229   2.735   6.683   1.086
26996WAT     H181230   2.811   6.726   1.134
26996WAT     H281231   2.661   6.750   1.072
26997WAT      O81232   9.085   1.669   4.661
26997WAT     H181233   9.114   1.763   4.643
26997WAT     H281234   9.038   1.632   4.580
26998WAT      O81235   6.575   3.716   6.398
26998WAT     H181236   6.526   3.781   6.456
26998WAT     H281237   6.598   3.635   6.452
26999WAT      O81238   5.711   3.485   8.733
26999WAT     H181239   5.660   3.517   8.653
26999WAT     H281240   5.698   3.549   8.809
27000WAT      O81241   7.403   9.479   0.714
27000WAT     H181242   7.325   9.526   0.755
27000WAT     H281243   7.413   9.388   0.754
27001WAT      O81244   1.442   4.450   2.372
27001WAT     H181245   1.461   4.370   2.316
27001WAT     H281246   1.489   4.442   2.459
27002WAT      O81247   5.691   1.824   7.386
27002WAT     H181248   5.593   1.815   7.367
27002WAT     H281249   5.713   1.778   7.472
27003WAT      O81250   4.394   3.145   8.169
27003WAT     H181251   4.477   3.141   8.224
27003WAT     H281252   4.418   3.154   8.073
27004WAT      O81253   4.664   1.343   5.922
27004WAT     H181254   4.694   1.431   5.884
27004WAT     H281255   4.744   1.290   5.951
27005WAT      O81256   7.922   2.032   4.681
27005WAT     H181257   7.904   2.096   4.606
27005WAT     H281258   7.878   1.944   4.661
27006WAT      O81259   1.944   6.642   5.353
27006WAT     H181260   1.972   6.546   5.350
27006WAT     H281261   2.010   6.694   5.408
27007WAT      O81262   3.905   9.008   3.054
27007WAT     H181263   3.849   9.085   3.085
27007WAT     H281264   3.946   9.030   2.966
27008WAT      O81265   2.074   7.056   3.390
27008WAT     H181266   2.097   6.994   3.315
27008WAT     H281267   1.988   7.028   3.432
27009WAT      O81268   5.804   7.278   9.027
27009WAT     H181269   5.784   7.304   8.933
27009WAT     H281270   5.735   7.213   9.059
27010WAT      O81271   3.793   8.804   2.015
27010WAT     H181272   3.794   8.891   1.966
27010WAT     H281273   3.765   8.731   1.953
27011WAT      O81274   5.210   3.770   7.281
27011WAT     H181275   5.132   3.793   7.339
27011WAT     H281276   5.269   3.850   7.272
27012WAT      O81277   5.537   5.000   1.148
27012WAT     H181278   5.570   4.943   1.073
27012WAT     H281279   5.439   5.017   1.135
27013WAT      O81280   3.940   2.857   7.762
27013WAT     H181281   4.014   2.918   7.794
27013WAT     H281282   3.938   2.857   7.662
27014WAT      O81283   8.263   6.567   4.587
27014WAT     H181284   8.326   6.513   4.532
27014WAT     H281285   8.173   6.522   4.589
27015WAT      O81286   4.401   3.257   7.191
27015WAT     H181287   4.482   3.202   7.208
27015WAT     H281288   4.380   3.257   7.093
27016WAT      O81289   6.667   7.766   7.187
27016WAT     H181290   6.593   7.792   7.249
27016WAT     H281291   6.657   7.816   7.101
27017WAT      O81292   3.379   1.462   8.936
27017WAT     H181293   3.286   1.493   8.918
27017WAT     H281294   3.436   1.482   8.856
27018WAT      O81295   5.839   2.770   1.849
27018WAT     H181296   5.890   2.702   1.902
27018WAT     H281297   5.897   2.806   1.776
27019WAT      O81298   7.702   4.800   4.008
27019WAT     H181299   7.616   4.814   4.056
27019WAT     H281300   7.769   4.866   4.040
27020WAT      O81301   9.810   6.137   7.241
27020WAT     H181302   9.806   6.075   7.163
27020WAT     H281303   9.742   6.111   7.309
27021WAT      O81304   2.314   6.308   9.071
27021WAT     H181305   2.288   6.214   9.048
27021WAT     H281306   2.252   6.372   9.025
27022WAT      O81307   6.904   7.947   5.913
27022WAT     H181308   6.995   7.946   5.955
27022WAT     H281309   6.841   7.997   5.973
27023WAT      O81310   3.301   4.795   1.481
27023WAT     H181311   3.214   4.832   1.514
27023WAT     H281312   3.311   4.700   1.512
27024WAT      O81313   7.354   6.707   7.904
27024WAT     H181314   7.294   6.637   7.944
27024WAT     H281315   7.427   6.729   7.969
27025WAT      O81316   2.221   3.976   8.614
27025WAT     H181317   2.236   3.925   8.530
27025WAT     H281318   2.303   3.971   8.671
27026WAT      O81319   0.242   1.783   4.864
27026WAT     H181320   0.153   1.820   4.890
27026WAT     H281321   0.251   1.784   4.764
27027WAT      O81322   6.340   5.994   1.591
27027WAT     H181323   6.265   6.035   1.643
27027WAT     H281324   6.344   5.896   1.611
27028WAT      O81325   3.121   8.204   2.727
27028WAT     H181326   3.218   8.228   2.720
27028WAT     H281327   3.095   8.145   2.651
27029WAT      O81328   2.384   2.081   8.713
27029WAT     H181329   2.310   2.014   8.715
27029WAT     H281330   2.394   2.123   8.803
27030WAT      O81331   8.020   1.757   5.020
27030WAT     H181332   7.929   1.785   5.049
27030WAT     H281333   8.082   1.835   5.023
27031WAT      O81334   1.402   0.193   0.098
27031WAT     H181335   1.318   0.140   0.089
27031WAT     H281336   1.390   0.265   0.167
27032WAT      O81337   9.440   6.259   8.208
27032WAT     H181338   9.460   6.354   8.186
27032WAT     H281339   9.362   6.227   8.154
27033WAT      O81340   3.879   3.613   7.011
27033WAT     H181341   3.921   3.688   7.063
27033WAT     H281342   3.922   3.527   7.036
27034WAT      O81343   4.691   5.804   5.496
27034WAT     H181344   4.639   5.818   5.412
27034WAT     H281345   4.743   5.887   5.517
27035WAT      O81346   8.515   5.940   1.993
27035WAT     H181347   8.469   6.025   1.968
27035WAT     H281348   8.526   5.937   2.093
27036WAT      O81349   2.882   6.041   3.724
27036WAT     H181350   2.790   6.053   3.686
27036WAT     H281351   2.876   6.009   3.819
27037WAT      O81352   6.274   1.774   1.769
27037WAT     H181353   6.217   1.813   1.842
27037WAT     H281354   6.215   1.747   1.693
27038WAT      O81355   6.955   8.754   4.094
27038WAT     H181356   6.974   8.712   4.182
27038WAT     H281357   7.042   8.776   4.048
27039WAT      O81358   5.531   0.076   3.543
27039WAT     H181359   5.543  -0.023   3.531
27039WAT     H281360   5.603   0.111   3.602
27040WAT      O81361   8.172   9.453   5.196
27040WAT     H181362   8.190   9.401   5.279
27040WAT     H281363   8.199   9.549   5.209
27041WAT      O81364   4.256   8.415   1.942
27041WAT     H181365   4.159   8.438   1.931
27041WAT     H281366   4.304   8.493   1.984
27042WAT      O81367   2.869   3.684   5.239
27042WAT     H181368   2.812   3.755   5.199
27042WAT     H281369   2.954   3.724   5.274
27043WAT      O81370   7.642   2.330   1.780
27043WAT     H181371   7.628   2.429   1.782
27043WAT     H281372   7.617   2.294   1.690
27044WAT      O81373   4.684   7.315   1.633
27044WAT     H181374   4.603   7.374   1.627
27044WAT     H281375   4.690   7.277   1.726
27045WAT      O81376   8.459   5.883   4.841
27045WAT     H181377   8.414   5.853   4.926
27045WAT     H281378   8.433   5.977   4.821
27046WAT      O81379   3.007   1.752   2.422
27046WAT     H181380   3.021   1.712   2.512
27046WAT     H281381   3.036   1.687   2.352
27047WAT      O81382   5.383   3.774   6.583
27047WAT     H181383   5.445   3.793   6.507
27047WAT     H281384   5.335   3.687   6.567
27048WAT      O81385   2.661   5.384   2.898
27048WAT     H181386   2.623   5.325   2.969
27048WAT     H281387   2.617   5.473   2.901
27049WAT      O81388   9.221   4.994   5.742
27049WAT     H181389   9.226   4.988   5.643
27049WAT     H281390   9.294   4.939   5.783
27050WAT      O81391   2.106   4.266   4.198
27050WAT     H181392   2.023   4.215   4.223
27050WAT     H281393   2.181   4.201   4.182
27051WAT      O81394   7.563   0.632   4.171
27051WAT     H181395   7.575   0.706   4.237
27051WAT     H281396   7.469   0.598   4.175
27052WAT      O81397   0.618   0.767   5.377
27052WAT     H181398   0.531   0.814   5.393
27052WAT     H281399   0.600   0.678   5.334
27053WAT      O81400   5.984   0.890   3.412
27053WAT     H181401   6.038   0.877   3.329
27053WAT     H281402   6.027   0.841   3.488
27054WAT      O81403   9.089   0.779   6.566
27054WAT     H181404   9.154   0.723   6.514
27054WAT     H281405   9.024   0.821   6.503
27055WAT      O81406   4.706   0.886   2.730
27055WAT     H181407   4.806   0.879   2.727
27055WAT     H281408   4.670   0.893   2.637
27056WAT      O81409   4.578   1.150   9.483
27056WAT     H181410   4.482   1.179   9.477
27056WAT     H281411   4.583   1.063   9.531
27057WAT      O81412   7.486   1.503   4.302
27057WAT     H181413   7.459   1.566   4.230
27057WAT     H281414   7.444   1.531   4.389
27058WAT      O81415   0.755   1.211   4.242
27058WAT     H181416   0.843   1.235   4.282
27058WAT     H281417   0.753   1.112   4.224
27059WAT      O81418   2.843   2.701   5.562
27059WAT     H181419   2.846   2.801   5.569
27059WAT     H281420   2.751   2.669   5.585
27060WAT      O81421   8.139   6.436   3.868
27060WAT     H181422   8.075   6.436   3.945
27060WAT     H281423   8.214   6.372   3.887
27061WAT      O81424   9.670   6.899   3.881
27061WAT     H181425   9.762   6.867   3.856
27061WAT     H281426   9.649   6.983   3.832
27062WAT      O81427   7.405   7.924   7.560
27062WAT     H181428   7.312   7.948   7.534
27062WAT     H281429   7.404   7.860   7.637
27063WAT      O81430   5.766   7.111   9.664
27063WAT     H181431   5.801   7.077   9.576
27063WAT     H281432   5.668   7.091   9.671
27064WAT      O81433   1.789   9.696   3.684
27064WAT     H181434   1.742   9.622   3.636
27064WAT     H281435   1.818   9.766   3.618
27065WAT      O81436   9.789   2.289   4.254
27065WAT     H181437   9.763   2.270   4.159
27065WAT     H281438   9.808   2.203   4.302
27066WAT      O81439   1.636   4.941   7.084
27066WAT     H181440   1.652   4.860   7.027
27066WAT     H281441   1.656   5.023   7.030
27067WAT      O81442   2.690   4.437   5.080
27067WAT     H181443   2.601   4.481   5.095
27067WAT     H281444   2.680   4.338   5.092
27068WAT      O81445   3.468   6.030   1.740
27068WAT     H181446   3.526   5.948   1.729
27068WAT     H281447   3.525   6.106   1.770
27069WAT      O81448   4.536   3.077   7.564
27069WAT     H181449   4.601   3.038   7.628
27069WAT     H281450   4.543   3.177   7.565
27070WAT      O81451   0.326   3.848   3.773
27070WAT     H181452   0.376   3.798   3.843
27070WAT     H281453   0.288   3.932   3.813
27071WAT      O81454   0.223   3.463   7.753
27071WAT     H181455   0.237   3.396   7.681
27071WAT     H281456   0.132   3.505   7.743
27072WAT      O81457   2.188   1.386   5.341
27072WAT     H181458   2.105   1.397   5.397
27072WAT     H281459   2.250   1.321   5.385
27073WAT      O81460   4.964   4.608   4.693
27073WAT     H181461   5.007   4.550   4.624
27073WAT     H281462   4.875   4.641   4.659
27074WAT      O81463   6.886   7.030   1.504
27074WAT     H181464   6.887   6.930   1.504
27074WAT     H281465   6.796   7.062   1.475
27075WAT      O81466   5.973   2.833   6.430
27075WAT     H181467   5.935   2.807   6.341
27075WAT     H281468   5.982   2.933   6.434
27076WAT      O81469   2.552   3.486   6.110
27076WAT     H181470   2.635   3.490   6.055
27076WAT     H281471   2.488   3.556   6.079
27077WAT      O81472   8.196   3.166   6.206
27077WAT     H181473   8.117   3.106   6.218
27077WAT     H281474   8.174   3.258   6.238
27078WAT      O81475   6.433   6.608   4.399
27078WAT     H181476   6.460   6.537   4.464
27078WAT     H281477   6.456   6.698   4.436
27079WAT      O81478   4.380   9.811   0.623
27079WAT     H181479   4.302   9.829   0.682
27079WAT     H281480   4.460   9.861   0.657
27080WAT      O81481   9.087   2.003   1.671
27080WAT     H181482   9.015   2.050   1.723
27080WAT     H281483   9.168   1.993   1.729
27081WAT      O81484   8.868   4.172   6.249
27081WAT     H181485   8.904   4.134   6.334
27081WAT     H281486   8.772   4.198   6.262
27082WAT      O81487   1.344   9.126   1.519
27082WAT     H181488   1.362   9.224   1.534
27082WAT     H281489   1.282   9.093   1.591
27083WAT      O81490   2.975   9.637   9.433
27083WAT     H181491   2.907   9.569   9.460
27083WAT     H281492   3.019   9.675   9.514
27084WAT      O81493   4.951   1.825   6.682
27084WAT     H181494   4.913   1.859   6.597
27084WAT     H281495   5.026   1.762   6.663
27085WAT      O81496   1.628   6.634   1.309
27085WAT     H181497   1.654   6.559   1.249
27085WAT     H281498   1.528   6.644   1.309
27086WAT      O81499   7.360   1.071   0.396
27086WAT     H181500   7.333   1.023   0.313
27086WAT     H281501   7.420   1.148   0.373
27087WAT      O81502   2.709   2.434   4.069
27087WAT     H181503   2.747   2.498   4.001
27087WAT     H281504   2.677   2.486   4.148
27088WAT      O81505   0.847   9.608   1.913
27088WAT     H181506   0.831   9.659   1.828
27088WAT     H281507   0.782   9.638   1.983
27089WAT      O81508   2.627   0.316   8.624
27089WAT     H181509   2.538   0.347   8.656
27089WAT     H281510   2.621   0.221   8.595
27090WAT      O81511   8.218   7.536   1.928
27090WAT     H181512   8.221   7.436   1.919
27090WAT     H281513   8.296   7.566   1.983
27091WAT      O81514   3.880   5.752   1.162
27091WAT     H181515   3.836   5.692   1.096
27091WAT     H281516   3.957   5.705   1.204
27092WAT      O81517   9.575   6.248   1.730
27092WAT     H181518   9.581   6.345   1.706
27092WAT     H281519   9.558   6.194   1.647
27093WAT      O81520   6.924   3.173   9.814
27093WAT     H181521   6.972   3.201   9.731
27093WAT     H281522   6.849   3.112   9.789
27094WAT      O81523   6.898   4.148   5.190
27094WAT     H181524   6.961   4.222   5.212
27094WAT     H281525   6.890   4.087   5.269
27095WAT      O81526   2.514   5.782   2.447
27095WAT     H181527   2.512   5.686   2.420
27095WAT     H281528   2.514   5.841   2.366
27096WAT      O81529   9.120   1.907   4.586
27096WAT     H181530   9.127   1.990   4.531
27096WAT     H281531   9.128   1.930   4.683
27097WAT      O81532   4.558   4.397   7.336
27097WAT     H181533   4.460   4.418   7.337
27097WAT     H281534   4.573   4.311   7.287
27098WAT      O81535   2.159   1.817   6.930
27098WAT     H181536   2.133   1.842   7.023
27098WAT     H281537   2.256   1.791   6.929
27099WAT      O81538   2.747   3.443   7.004
27099WAT     H181539   2.778   3.420   6.912
27099WAT     H281540   2.764   3.365   7.065
27100WAT      O81541   5.548   9.777   5.357
27100WAT     H181542   5.453   9.769   5.388
27100WAT     H281543   5.591   9.687   5.357
27101WAT      O81544   8.905   5.128   6.617
27101WAT     H181545   9.003   5.107   6.607
27101WAT     H281546   8.894   5.224   6.641
27102WAT      O81547   6.211   2.720   3.497
27102WAT     H181548   6.191   2.651   3.428
27102WAT     H281549   6.199   2.811   3.457
27103WAT      O81550   9.629   6.215   0.630
27103WAT     H181551   9.603   6.310   0.614
27103WAT     H281552   9.661   6.204   0.724
27104WAT      O81553   9.385   4.434   9.810
27104WAT     H181554   9.406   4.532   9.810
27104WAT     H281555   9.286   4.421   9.802
27105WAT      O81556   6.230   7.029   9.823
27105WAT     H181557   6.222   7.099   9.753
27105WAT     H281558   6.326   7.003   9.834
27106WAT      O81559   5.678   7.054   5.761
27106WAT     H181560   5.610   7.118   5.797
27106WAT     H281561   5.683   7.065   5.661
27107WAT      O81562   3.961   5.109   3.998
27107WAT     H181563   3.999   5.094   4.089
27107WAT     H281564   3.984   5.032   3.939
27108WAT      O81565   9.601   2.199   4.769
27108WAT     H181566   9.683   2.171   4.719
27108WAT     H281567   9.526   2.135   4.748
27109WAT      O81568   1.913   0.586   9.201
27109WAT     H181569   1.954   0.509   9.250
27109WAT     H281570   1.916   0.570   9.103
27110WAT      O81571   4.556   2.207   9.576
27110WAT     H181572   4.501   2.188   9.495
27110WAT     H281573   4.617   2.284   9.557
27111WAT      O81574   7.822   4.789   8.946
27111WAT     H181575   7.916   4.777   8.979
27111WAT     H281576   7.764   4.819   9.022
27112WAT      O81577   4.791   8.665   9.854
27112WAT     H181578   4.782   8.566   9.854
27112WAT     H281579   4.787   8.699   9.760
27113WAT      O81580   3.059   2.841   9.854
27113WAT     H181581   3.027   2.760   9.803
27113WAT     H281582   3.148   2.822   9.895
27114WAT      O81583   7.916   3.556   0.637
27114WAT     H181584   7.943   3.484   0.702
27114WAT     H281585   7.948   3.532   0.546
27115WAT      O81586   5.045   5.257   5.324
27115WAT     H181587   5.044   5.321   5.401
27115WAT     H281588   5.005   5.170   5.353
27116WAT      O81589   3.297   9.626   7.954
27116WAT     H181590   3.326   9.595   8.044
27116WAT     H281591   3.201   9.656   7.958
27117WAT      O81592   1.504   2.968   8.872
27117WAT     H181593   1.557   2.968   8.957
27117WAT     H281594   1.417   2.922   8.888
27118WAT      O81595   2.802   9.351   4.076
27118WAT     H181596   2.776   9.318   3.985
27118WAT     H281597   2.721   9.354   4.135
27119WAT      O81598   6.978   9.662   0.300
27119WAT     H181599   6.884   9.695   0.305
27119WAT     H281600   6.977   9.567   0.267
27120WAT      O81601   9.662   7.498   1.429
27120WAT     H181602   9.737   7.453   1.381
27120WAT     H281603   9.592   7.431   1.452
27121WAT      O81604   0.776   2.414   6.556
27121WAT     H181605   0.700   2.437   6.495
27121WAT     H281606   0.857   2.391   6.501
27122WAT      O81607   3.364   4.395   7.932
27122WAT     H181608   3.464   4.397   7.930
27122WAT     H281609   3.331   4.328   7.865
27123WAT      O81610   5.441   0.988   6.602
27123WAT     H181611   5.540   0.985   6.587
27123WAT     H281612   5.420   1.063   6.664
27124WAT      O81613   4.360   5.715   3.638
27124WAT     H181614   4.405   5.735   3.725
27124WAT     H281615   4.288   5.648   3.653
27125WAT      O81616   6.448   4.046   6.802
27125WAT     H181617   6.471   3.987   6.879
27125WAT     H281618   6.440   4.140   6.832
27126WAT      O81619   7.072   6.039   8.285
27126WAT     H181620   7.116   6.069   8.369
27126WAT     H281621   7.021   6.115   8.245
27127WAT      O81622   0.764   2.419   3.035
27127WAT     H181623   0.819   2.490   2.991
27127WAT     H281624   0.759   2.339   2.975
27128WAT      O81625   7.000   2.344   2.659
27128WAT     H181626   7.080   2.371   2.606
27128WAT     H281627   6.917   2.372   2.612
27129WAT      O81628   1.529   1.862   9.665
27129WAT     H181629   1.604   1.912   9.707
27129WAT     H281630   1.442   1.894   9.702
27130WAT      O81631   4.679   3.655   4.850
27130WAT     H181632   4.778   3.650   4.841
27130WAT     H281633   4.640   3.563   4.843
27131WAT      O81634   2.981   7.418   6.792
27131WAT     H181635   2.918   7.379   6.860
27131WAT     H281636   3.057   7.462   6.838
27132WAT      O81637   4.628   5.942   8.798
27132WAT     H181638   4.605   5.880   8.724
27132WAT     H281639   4.705   6.001   8.770
27133WAT      O81640   2.101   2.610   3.949
27133WAT     H181641   2.120   2.703   3.916
27133WAT     H281642   2.139   2.544   3.885
27134WAT      O81643   6.507   1.846   4.294
27134WAT     H181644   6.559   1.863   4.378
27134WAT     H281645   6.473   1.932   4.257
27135WAT      O81646   7.441   7.000   5.706
27135WAT     H181647   7.474   7.032   5.617
27135WAT     H281648   7.502   7.032   5.778
27136WAT      O81649   3.040   8.772   9.435
27136WAT     H181650   3.084   8.862   9.434
27136WAT     H281651   3.072   8.719   9.357
27137WAT      O81652   3.214   6.524   5.785
27137WAT     H181653   3.205   6.622   5.804
27137WAT     H281654   3.309   6.505   5.760
27138WAT      O81655   1.495   2.331   7.713
27138WAT     H181656   1.430   2.272   7.761
27138WAT     H281657   1.542   2.389   7.778
27139WAT      O81658   6.202   4.837   2.965
27139WAT     H181659   6.114   4.795   2.941
27139WAT     H281660   6.277   4.779   2.931
27140WAT      O81661   7.672   8.765   9.846
27140WAT     H181662   7.580   8.779   9.883
27140WAT     H281663   7.689   8.667   9.834
27141WAT      O81664   3.231   8.051   6.481
27141WAT     H181665   3.233   7.962   6.436
27141WAT     H281666   3.259   8.041   6.577
27142WAT      O81667   1.389   6.911   7.956
27142WAT     H181668   1.347   6.822   7.974
27142WAT     H281669   1.465   6.926   8.020
27143WAT      O81670   2.116   9.666   9.481
27143WAT     H181671   2.161   9.755   9.478
27143WAT     H281672   2.172   9.598   9.435
27144WAT      O81673   4.751   9.224   5.879
27144WAT     H181674   4.719   9.203   5.786
27144WAT     H281675   4.718   9.314   5.906
27145WAT      O81676   9.487   4.873   2.478
27145WAT     H181677   9.434   4.855   2.395
27145WAT     H281678   9.582   4.846   2.462
27146WAT      O81679   8.410   4.491   7.781
27146WAT     H181680   8.311   4.481   7.772
27146WAT     H281681   8.436   4.587   7.768
27147WAT      O81682   7.121   0.562   8.740
27147WAT     H181683   7.163   0.546   8.829
27147WAT     H281684   7.180   0.621   8.685
27148WAT      O81685   1.892   1.994   3.670
27148WAT     H181686   1.799   1.959   3.682
27148WAT     H281687   1.897   2.089   3.701
27149WAT      O81688   4.328   0.546   1.012
27149WAT     H181689   4.341   0.615   0.941
27149WAT     H281690   4.338   0.455   0.972
27150WAT      O81691   2.454   0.804   9.749
27150WAT     H181692   2.516   0.771   9.678
27150WAT     H281693   2.507   0.841   9.825
27151WAT      O81694   7.704   4.638   1.922
27151WAT     H181695   7.688   4.679   1.832
27151WAT     H281696   7.797   4.600   1.925
27152WAT      O81697   4.442   0.036   8.357
27152WAT     H181698   4.348   0.016   8.384
27152WAT     H281699   4.451   0.134   8.337
27153WAT      O81700   3.818   2.313   2.730
27153WAT     H181701   3.903   2.346   2.689
27153WAT     H281702   3.753   2.388   2.737
27154WAT      O81703   3.424   5.261   4.788
27154WAT     H181704   3.351   5.247   4.721
27154WAT     H281705   3.513   5.260   4.742
27155WAT      O81706   4.099   7.889   1.376
27155WAT     H181707   4.104   7.953   1.452
27155WAT     H281708   4.149   7.806   1.398
27156WAT      O81709   5.082   5.600   5.898
27156WAT     H181710   4.987   5.624   5.881
27156WAT     H281711   5.136   5.684   5.909
27157WAT      O81712   8.938   1.132   9.561
27157WAT     H181713   8.857   1.086   9.524
27157WAT     H281714   8.935   1.229   9.536
27158WAT      O81715   0.470   7.457   1.940
27158WAT     H181716   0.374   7.455   1.968
27158WAT     H281717   0.500   7.365   1.916
27159WAT      O81718   3.304   7.417   6.762
27159WAT     H181719   3.258   7.465   6.837
27159WAT     H281720   3.337   7.484   6.696
27160WAT      O81721   8.083   7.780   9.441
27160WAT     H181722   8.114   7.688   9.416
27160WAT     H281723   8.129   7.809   9.524
27161WAT      O81724   0.900   6.388   0.315
27161WAT     H181725   0.986   6.354   0.353
27161WAT     H281726   0.891   6.485   0.335
27162WAT      O81727   8.375   5.290   9.197
27162WAT     H181728   8.383   5.359   9.270
27162WAT     H281729   8.288   5.302   9.149
27163WAT      O81730   8.913   4.457   1.887
27163WAT     H181731   8.843   4.479   1.955
27163WAT     H281732   8.965   4.540   1.866
27164WAT      O81733   8.716   1.521   2.377
27164WAT     H181734   8.703   1.554   2.470
27164WAT     H281735   8.714   1.598   2.313
27165WAT      O81736   4.463   2.254   0.809
27165WAT     H181737   4.517   2.338   0.812
27165WAT     H281738   4.508   2.187   0.749
27166WAT      O81739   7.232   1.231   3.703
27166WAT     H181740   7.260   1.320   3.666
27166WAT     H281741   7.310   1.169   3.705
27167WAT      O81742   9.748   3.648   2.498
27167WAT     H181743   9.785   3.599   2.577
27167WAT     H281744   9.820   3.705   2.458
27168WAT      O81745   8.205   2.416   7.279
27168WAT     H181746   8.211   2.499   7.334
27168WAT     H281747   8.284   2.358   7.297
27169WAT      O81748   5.891   3.366   4.820
27169WAT     H181749   5.882   3.428   4.742
27169WAT     H281750   5.923   3.418   4.900
27170WAT      O81751   8.411   1.740   2.209
27170WAT     H181752   8.508   1.722   2.228
27170WAT     H281753   8.388   1.832   2.240
27171WAT      O81754   5.178   0.676   6.145
27171WAT     H181755   5.097   0.701   6.093
27171WAT     H281756   5.162   0.693   6.242
27172WAT      O81757   6.070   7.775   5.045
27172WAT     H181758   6.042   7.860   5.089
27172WAT     H281759   6.034   7.698   5.097
27173WAT      O81760   4.781   3.455   9.354
27173WAT     H181761   4.798   3.357   9.350
27173WAT     H281762   4.722   3.482   9.277
27174WAT      O81763   8.557   1.781   1.068
27174WAT     H181764   8.644   1.733   1.056
27174WAT     H281765   8.520   1.805   0.978
27175WAT      O81766   0.800   8.038   5.700
27175WAT     H181767   0.789   8.020   5.603
27175WAT     H281768   0.754   7.968   5.754
27176WAT      O81769   0.825   5.312   1.834
27176WAT     H181770   0.887   5.250   1.883
27176WAT     H281771   0.731   5.283   1.850
27177WAT      O81772   7.997   8.909   2.749
27177WAT     H181773   7.949   8.931   2.834
27177WAT     H281774   7.949   8.834   2.703
27178WAT      O81775   0.780   3.833   8.703
27178WAT     H181776   0.876   3.810   8.713
27178WAT     H281777   0.739   3.777   8.631
27179WAT      O81778   8.846   4.841   9.715
27179WAT     H181779   8.836   4.747   9.684
27179WAT     H281780   8.757   4.876   9.744
27180WAT      O81781   5.329   9.672   4.572
27180WAT     H181782   5.343   9.729   4.653
27180WAT     H281783   5.285   9.725   4.500
27181WAT      O81784   4.793   8.073   0.955
27181WAT     H181785   4.725   8.111   0.893
27181WAT     H281786   4.873   8.132   0.957
27182WAT      O81787   2.798   8.213   9.770
27182WAT     H181788   2.883   8.162   9.771
27182WAT     H281789   2.720   8.151   9.782
27183WAT      O81790   9.488   0.104   9.515
27183WAT     H181791   9.564   0.082   9.453
27183WAT     H281792   9.409   0.047   9.491
27184WAT      O81793   7.111   8.014   7.257
27184WAT     H181794   7.143   8.037   7.166
27184WAT     H281795   7.016   7.983   7.252
27185WAT      O81796   4.174   2.787   5.024
27185WAT     H181797   4.151   2.692   5.002
27185WAT     H281798   4.158   2.845   4.944
27186WAT      O81799   5.700   3.061   7.698
27186WAT     H181800   5.650   3.141   7.667
27186WAT     H281801   5.743   3.081   7.787
27187WAT      O81802   4.632   9.633   0.455
27187WAT     H181803   4.710   9.571   0.443
27187WAT     H281804   4.643   9.712   0.395
27188WAT      O81805   8.929   9.416   3.031
27188WAT     H181806   8.888   9.424   2.940
27188WAT     H281807   8.994   9.491   3.044
27189WAT      O81808   2.181   4.073   7.472
27189WAT     H181809   2.180   4.036   7.565
27189WAT     H281810   2.259   4.035   7.422
27190WAT      O81811   2.766   7.436   9.178
27190WAT     H181812   2.776   7.454   9.276
27190WAT     H281813   2.803   7.513   9.126
27191WAT      O81814   9.642   0.773   9.410
27191WAT     H181815   9.545   0.755   9.395
27191WAT     H281816   9.653   0.859   9.460
27192WAT      O81817   8.616   3.359   7.067
27192WAT     H181818   8.545   3.422   7.098
27192WAT     H281819   8.621   3.361   6.967
27193WAT      O81820   3.806   8.828   7.185
27193WAT     H181821   3.710   8.835   7.211
27193WAT     H281822   3.841   8.918   7.161
27194WAT      O81823   2.493   8.371   9.743
27194WAT     H181824   2.572   8.432   9.732
27194WAT     H281825   2.410   8.418   9.710
27195WAT      O81826   7.274   5.275   2.489
27195WAT     H181827   7.225   5.220   2.556
27195WAT     H281828   7.287   5.367   2.525
27196WAT      O81829   6.257   7.807   1.465
27196WAT     H181830   6.209   7.802   1.377
27196WAT     H281831   6.242   7.721   1.515
27197WAT      O81832   8.669   4.430   4.698
27197WAT     H181833   8.579   4.406   4.732
27197WAT     H281834   8.660   4.498   4.625
27198WAT      O81835   6.050   9.776   8.931
27198WAT     H181836   6.114   9.723   8.875
27198WAT     H281837   6.016   9.854   8.878
27199WAT      O81838   8.799   9.475   8.226
27199WAT     H181839   8.757   9.564   8.241
27199WAT     H281840   8.825   9.435   8.314
27200WAT      O81841   2.870   7.810   0.457
27200WAT     H181842   2.840   7.782   0.366
27200WAT     H281843   2.829   7.750   0.526
27201WAT      O81844   1.436   7.086   0.037
27201WAT     H181845   1.535   7.099   0.046
27201WAT     H281846   1.389   7.143   0.104
27202WAT      O81847   0.651   4.029   5.943
27202WAT     H181848   0.699   3.964   5.884
27202WAT     H281849   0.591   4.086   5.886
27203WAT      O81850   1.884   4.493   2.034
27203WAT     H181851   1.867   4.553   1.956
27203WAT     H281852   1.978   4.458   2.029
27204WAT      O81853   2.909   5.990   0.540
27204WAT     H181854   2.893   5.912   0.601
27204WAT     H281855   2.914   6.074   0.595
27205WAT      O81856   5.858   7.537   0.103
27205WAT     H181857   5.921   7.593   0.049
27205WAT     H281858   5.856   7.444   0.067
27206WAT      O81859   1.083   2.963   3.139
27206WAT     H181860   1.032   2.878   3.151
27206WAT     H281861   1.163   2.946   3.082
27207WAT      O81862   1.598   3.566   0.428
27207WAT     H181863   1.693   3.585   0.402
27207WAT     H281864   1.593   3.553   0.527
27208WAT      O81865   9.698   3.420   7.744
27208WAT     H181866   9.718   3.335   7.696
27208WAT     H281867   9.774   3.484   7.731
27209WAT      O81868   4.346   3.751   3.698
27209WAT     H181869   4.339   3.651   3.707
27209WAT     H281870   4.291   3.780   3.620
27210WAT      O81871   1.305   3.217   5.031
27210WAT     H181872   1.223   3.275   5.037
27210WAT     H281873   1.310   3.159   5.112
27211WAT      O81874   3.799   5.330   6.661
27211WAT     H181875   3.722   5.266   6.658
27211WAT     H281876   3.786   5.394   6.736
27212WAT      O81877   3.517   8.934   6.088
27212WAT     H181878   3.486   8.969   6.000
27212WAT     H281879   3.617   8.929   6.089
27213WAT      O81880   1.354   3.185   9.141
27213WAT     H181881   1.446   3.224   9.143
27213WAT     H281882   1.321   3.180   9.046
27214WAT      O81883   9.404   1.238   7.848
27214WAT     H181884   9.475   1.303   7.874
27214WAT     H281885   9.368   1.194   7.930
27215WAT      O81886   0.589   5.832   7.228
27215WAT     H181887   0.515   5.864   7.169
27215WAT     H281888   0.656   5.783   7.173
27216WAT      O81889   6.251   0.491   0.511
27216WAT     H181890   6.258   0.558   0.437
27216WAT     H281891   6.172   0.432   0.495
27217WAT      O81892   4.944   9.285   9.068
27217WAT     H181893   4.997   9.302   8.985
27217WAT     H281894   4.872   9.219   9.049
27218WAT      O81895   3.937   3.835   0.567
27218WAT     H181896   3.937   3.906   0.638
27218WAT     H281897   3.894   3.870   0.484
27219WAT      O81898   5.523   6.126   3.557
27219WAT     H181899   5.547   6.148   3.462
27219WAT     H281900   5.435   6.167   3.579
27220WAT      O81901   7.071   5.324   4.893
27220WAT     H181902   7.076   5.224   4.896
27220WAT     H281903   7.151   5.363   4.938
27221WAT      O81904   7.508   6.779   7.155
27221WAT     H181905   7.531   6.702   7.215
27221WAT     H281906   7.569   6.780   7.077
27222WAT      O81907   4.704   8.779   7.114
27222WAT     H181908   4.673   8.694   7.156
27222WAT     H281909   4.754   8.758   7.030
27223WAT      O81910   6.579   8.725   0.776
27223WAT     H181911   6.604   8.628   0.766
27223WAT     H281912   6.487   8.731   0.816
27224WAT      O81913   9.137   0.074   9.618
27224WAT     H181914   9.154  -0.018   9.582
27224WAT     H281915   9.193   0.089   9.699
27225WAT      O81916   8.625   5.042   6.615
27225WAT     H181917   8.645   4.991   6.531
27225WAT     H281918   8.703   5.100   6.638
27226WAT      O81919   4.369   7.175   2.963
27226WAT     H181920   4.333   7.119   2.888
27226WAT     H281921   4.446   7.129   3.006
27227WAT      O81922   0.651   8.460   7.022
27227WAT     H181923   0.632   8.533   7.089
27227WAT     H281924   0.730   8.486   6.967
27228WAT      O81925   1.105   9.215   8.281
27228WAT     H181926   1.165   9.135   8.276
27228WAT     H281927   1.010   9.184   8.286
27229WAT      O81928   0.217   3.102   7.803
27229WAT     H181929   0.280   3.027   7.783
27229WAT     H281930   0.259   3.166   7.867
27230WAT      O81931   1.556   7.071   3.004
27230WAT     H181932   1.457   7.069   2.984
27230WAT     H281933   1.575   7.140   3.073
27231WAT      O81934   2.110   7.427   8.189
27231WAT     H181935   2.195   7.406   8.238
27231WAT     H281936   2.077   7.517   8.216
27232WAT      O81937   8.748   4.336   2.658
27232WAT     H181938   8.789   4.425   2.681
27232WAT     H281939   8.670   4.320   2.718
27233WAT      O81940   0.053   5.925   4.955
27233WAT     H181941   0.030   6.020   4.936
27233WAT     H281942   0.139   5.921   5.006
27234WAT      O81943   6.225   8.418   1.770
27234WAT     H181944   6.164   8.389   1.696
27234WAT     H281945   6.233   8.518   1.769
27235WAT      O81946   8.927   4.011   8.816
27235WAT     H181947   8.977   4.097   8.812
27235WAT     H281948   8.853   4.019   8.883
27236WAT      O81949   1.916   6.994   8.844
27236WAT     H181950   1.947   6.952   8.930
27236WAT     H281951   1.951   6.942   8.767
27237WAT      O81952   0.128   7.528   5.856
27237WAT     H181953   0.222   7.494   5.847
27237WAT     H281954   0.124   7.622   5.823
27238WAT      O81955   4.649   1.352   5.175
27238WAT     H181956   4.683   1.258   5.176
27238WAT     H281957   4.715   1.411   5.129
27239WAT      O81958   9.889   8.832   7.862
27239WAT     H181959   9.853   8.759   7.921
27239WAT     H281960   9.884   8.919   7.910
27240WAT      O81961   3.822   1.406   1.181
27240WAT     H181962   3.863   1.449   1.101
27240WAT     H281963   3.723   1.399   1.168
27241WAT      O81964   1.438   5.210   8.634
27241WAT     H181965   1.516   5.248   8.585
27241WAT     H281966   1.353   5.245   8.594
27242WAT      O81967   2.665   3.053   8.945
27242WAT     H181968   2.689   3.149   8.934
27242WAT     H281969   2.566   3.045   8.961
27243WAT      O81970   1.044   0.257   0.626
27243WAT     H181971   0.973   0.231   0.692
27243WAT     H281972   1.009   0.329   0.566
27244WAT      O81973   6.119   4.562   8.078
27244WAT     H181974   6.138   4.476   8.126
27244WAT     H281975   6.104   4.635   8.146
27245WAT      O81976   9.294   3.378   5.657
27245WAT     H181977   9.362   3.443   5.625
27245WAT     H281978   9.202   3.413   5.638
27246WAT      O81979   0.215   6.099   2.890
27246WAT     H181980   0.191   6.003   2.902
27246WAT     H281981   0.267   6.130   2.970
27247WAT      O81982   8.989   4.504   4.413
27247WAT     H181983   8.944   4.476   4.498
27247WAT     H281984   8.923   4.547   4.352
27248WAT      O81985   1.636   0.649   2.835
27248WAT     H181986   1.626   0.555   2.801
27248WAT     H281987   1.669   0.708   2.761
27249WAT      O81988   4.931   2.638   2.764
27249WAT     H181989   4.910   2.729   2.800
27249WAT     H281990   5.026   2.636   2.733
27250WAT      O81991   6.537   0.170   8.729
27250WAT     H181992   6.473   0.246   8.723
27250WAT     H281993   6.497   0.089   8.686
27251WAT      O81994   2.868   7.847   4.479
27251WAT     H181995   2.881   7.937   4.438
27251WAT     H281996   2.772   7.819   4.468
27252WAT      O81997   8.605   3.247   0.058
27252WAT     H181998   8.662   3.164   0.060
27252WAT     H281999   8.526   3.232  -0.002
27253WAT      O82000   2.046   5.707   3.015
27253WAT     H182001   1.972   5.643   2.998
27253WAT     H282002   2.130   5.657   3.037
27254WAT      O82003   9.523   0.844   7.635
27254WAT     H182004   9.460   0.907   7.590
27254WAT     H282005   9.484   0.815   7.722
27255WAT      O82006   9.200   8.815   5.447
27255WAT     H182007   9.146   8.750   5.395
27255WAT     H282008   9.159   8.906   5.440
27256WAT      O82009   6.584   2.271   3.275
27256WAT     H182010   6.658   2.319   3.323
27256WAT     H282011   6.575   2.308   3.182
27257WAT      O82012   3.653   2.956   8.093
27257WAT     H182013   3.660   2.930   7.996
27257WAT     H282014   3.653   3.056   8.101
27258WAT      O82015   6.663   1.142   6.783
27258WAT     H182016   6.602   1.206   6.738
27258WAT     H282017   6.757   1.175   6.776
27259WAT      O82018   6.131   8.139   1.946
27259WAT     H182019   6.080   8.226   1.941
27259WAT     H282020   6.226   8.155   1.921
27260WAT      O82021   1.919   8.700   2.691
27260WAT     H182022   1.877   8.646   2.617
27260WAT     H282023   1.885   8.667   2.779
27261WAT      O82024   4.272   1.232   0.695
27261WAT     H182025   4.228   1.295   0.632
27261WAT     H282026   4.233   1.140   0.684
27262WAT      O82027   9.052   9.790   6.603
27262WAT     H182028   9.108   9.707   6.606
27262WAT     H282029   8.965   9.770   6.559
27263WAT      O82030   7.542   8.051   4.095
27263WAT     H182031   7.520   8.049   3.997
27263WAT     H282032   7.547   7.957   4.129
27264WAT      O82033   8.313   5.587   5.117
27264WAT     H182034   8.395   5.545   5.155
27264WAT     H282035   8.298   5.555   5.023
27265WAT      O82036   5.797   8.111   2.827
27265WAT     H182037   5.834   8.065   2.746
27265WAT     H282038   5.799   8.210   2.812
27266WAT      O82039   6.433   6.827   9.296
27266WAT     H182040   6.516   6.860   9.342
27266WAT     H282041   6.403   6.742   9.340
27267WAT      O82042   5.943   5.801   3.756
27267WAT     H182043   5.902   5.808   3.847
27267WAT     H282044   5.877   5.832   3.687
27268WAT      O82045   0.169   8.369   7.898
27268WAT     H182046   0.261   8.330   7.886
27268WAT     H282047   0.173   8.440   7.969
27269WAT      O82048   2.003   4.406   3.189
27269WAT     H182049   2.093   4.364   3.177
27269WAT     H282050   1.952   4.356   3.258
27270WAT      O82051   3.281   4.688   9.532
27270WAT     H182052   3.215   4.614   9.522
27270WAT     H282053   3.305   4.699   9.628
27271WAT      O82054   1.047   1.706   0.265
27271WAT     H182055   1.079   1.700   0.360
27271WAT     H282056   0.970   1.644   0.252
27272WAT      O82057   6.001   3.513   3.164
27272WAT     H182058   6.025   3.534   3.069
27272WAT     H282059   5.944   3.431   3.166
27273WAT      O82060   6.826   1.600   6.698
27273WAT     H182061   6.786   1.563   6.782
27273WAT     H282062   6.913   1.553   6.679
27274WAT      O82063   4.435   8.562   5.699
27274WAT     H182064   4.481   8.526   5.618
27274WAT     H282065   4.474   8.520   5.781
27275WAT      O82066   9.483   4.243   0.689
27275WAT     H182067   9.535   4.165   0.653
27275WAT     H282068   9.544   4.322   0.697
27276WAT      O82069   8.171   0.728   6.399
27276WAT     H182070   8.196   0.633   6.379
27276WAT     H282071   8.076   0.732   6.428
27277WAT      O82072   8.536   8.983   9.143
27277WAT     H182073   8.633   9.003   9.159
27277WAT     H282074   8.481   9.032   9.210
27278WAT      O82075   1.434   1.496   0.635
27278WAT     H182076   1.342   1.482   0.672
27278WAT     H282077   1.460   1.417   0.579
27279WAT      O82078   3.192   2.061   8.798
27279WAT     H182079   3.098   2.094   8.806
27279WAT     H282080   3.204   2.015   8.710
27280WAT      O82081   1.700   7.955   0.339
27280WAT     H182082   1.637   7.877   0.339
27280WAT     H282083   1.745   7.962   0.427
27281WAT      O82084   0.439   3.988   0.704
27281WAT     H182085   0.401   4.078   0.685
27281WAT     H282086   0.370   3.918   0.686
27282WAT      O82087   7.060   3.077   8.471
27282WAT     H182088   7.051   3.175   8.454
27282WAT     H282089   6.971   3.033   8.465
27283WAT      O82090   2.572   5.614   4.709
27283WAT     H182091   2.496   5.672   4.679
27283WAT     H282092   2.537   5.524   4.734
27284WAT      O82093   6.387   0.127   4.854
27284WAT     H182094   6.430   0.217   4.864
27284WAT     H282095   6.326   0.129   4.775
27285WAT      O82096   7.214   6.419   9.530
27285WAT     H182097   7.282   6.473   9.581
27285WAT     H282098   7.261   6.366   9.459
27286WAT      O82099   8.901   4.809   3.874
27286WAT     H182100   8.807   4.827   3.846
27286WAT     H282101   8.916   4.710   3.878
27287WAT      O82102   0.429   2.484   1.113
27287WAT     H182103   0.399   2.536   1.193
27287WAT     H282104   0.394   2.390   1.119
27288WAT      O82105   2.734   5.962   3.074
27288WAT     H182106   2.797   6.011   3.134
27288WAT     H282107   2.685   6.026   3.016
27289WAT      O82108   3.974   3.842   6.391
27289WAT     H182109   4.062   3.885   6.409
27289WAT     H282110   3.919   3.901   6.331
27290WAT      O82111   1.356   5.029   6.225
27290WAT     H182112   1.374   5.035   6.323
27290WAT     H282113   1.258   5.017   6.209
27291WAT      O82114   6.874   4.231   6.018
27291WAT     H182115   6.822   4.194   6.095
27291WAT     H282116   6.965   4.188   6.015
27292WAT      O82117   4.353   3.703   1.681
27292WAT     H182118   4.340   3.725   1.778
27292WAT     H282119   4.317   3.777   1.624
27293WAT      O82120   0.379   4.537   9.553
27293WAT     H182121   0.320   4.564   9.477
27293WAT     H282122   0.455   4.601   9.561
27294WAT      O82123   9.403   4.903   3.620
27294WAT     H182124   9.377   4.899   3.716
27294WAT     H282125   9.502   4.897   3.612
27295WAT      O82126   4.036   5.150   6.773
27295WAT     H182127   3.968   5.200   6.720
27295WAT     H282128   4.042   5.056   6.740
27296WAT      O82129   5.729   1.212   0.830
27296WAT     H182130   5.792   1.151   0.878
27296WAT     H282131   5.700   1.168   0.745
27297WAT      O82132   2.220   9.195   4.505
27297WAT     H182133   2.137   9.172   4.453
27297WAT     H282134   2.300   9.182   4.446
27298WAT      O82135   7.370   1.650   1.272
27298WAT     H182136   7.298   1.615   1.332
27298WAT     H282137   7.348   1.744   1.246
27299WAT      O82138   5.495   2.094   0.826
27299WAT     H182139   5.418   2.092   0.761
27299WAT     H282140   5.563   2.026   0.799
27300WAT      O82141   3.149   8.204   2.059
27300WAT     H182142   3.161   8.303   2.050
27300WAT     H282143   3.216   8.157   2.001
27301WAT      O82144   6.520   7.816   4.545
27301WAT     H182145   6.522   7.839   4.448
27301WAT     H282146   6.427   7.825   4.580
27302WAT      O82147   2.242   9.515   2.478
27302WAT     H182148   2.191   9.519   2.393
27302WAT     H282149   2.336   9.486   2.459
27303WAT      O82150   8.537   3.397   5.143
27303WAT     H182151   8.580   3.422   5.229
27303WAT     H282152   8.437   3.402   5.153
27304WAT      O82153   8.586   2.270   9.672
27304WAT     H182154   8.622   2.329   9.744
27304WAT     H282155   8.536   2.194   9.713
27305WAT      O82156   7.120   8.364   6.921
27305WAT     H182157   7.025   8.391   6.906
27305WAT     H282158   7.166   8.353   6.833
27306WAT      O82159   4.747   0.091   3.501
27306WAT     H182160   4.657   0.127   3.477
27306WAT     H282161   4.783   0.140   3.581
27307WAT      O82162   5.896   3.254   9.640
27307WAT     H182163   5.914   3.156   9.631
27307WAT     H282164   5.832   3.283   9.569
27308WAT      O82165   6.749   8.717   0.408
27308WAT     H182166   6.729   8.669   0.322
27308WAT     H282167   6.669   8.770   0.435
27309WAT      O82168   9.469   6.703   2.304
27309WAT     H182169   9.561   6.676   2.276
27309WAT     H282170   9.474   6.790   2.353
27310WAT      O82171   4.189   3.016   6.874
27310WAT     H182172   4.100   3.042   6.910
27310WAT     H282173   4.186   3.020   6.774
27311WAT      O82174   1.170   7.676   4.192
27311WAT     H182175   1.172   7.756   4.132
27311WAT     H282176   1.182   7.704   4.287
27312WAT      O82177   6.406   9.248   6.309
27312WAT     H182178   6.371   9.187   6.380
27312WAT     H282179   6.331   9.303   6.272
27313WAT      O82180   6.450   3.447   1.146
27313WAT     H182181   6.536   3.487   1.114
27313WAT     H282182   6.394   3.519   1.189
27314WAT      O82183   8.667   6.273   7.049
27314WAT     H182184   8.593   6.209   7.071
27314WAT     H282185   8.755   6.227   7.061
27315WAT      O82186   7.114   7.422   0.952
27315WAT     H182187   7.165   7.464   0.877
27315WAT     H282188   7.177   7.373   1.013
27316WAT      O82189   4.842   7.099   2.259
27316WAT     H182190   4.906   7.174   2.245
27316WAT     H282191   4.879   7.036   2.327
27317WAT      O82192   9.835   5.638   2.017
27317WAT     H182193   9.775   5.693   2.075
27317WAT     H282194   9.809   5.652   1.921
27318WAT      O82195   1.941   7.716   3.145
27318WAT     H182196   1.947   7.674   3.236
27318WAT     H282197   1.878   7.664   3.088
27319WAT      O82198   2.897   0.085   9.592
27319WAT     H182199   2.844   0.165   9.622
27319WAT     H282200   2.852   0.002   9.625
27320WAT      O82201   9.841   4.304   2.921
27320WAT     H182202   9.746   4.272   2.920
27320WAT     H282203   9.871   4.321   2.828
27321WAT      O82204   0.696   9.561   7.190
27321WAT     H182205   0.742   9.491   7.244
27321WAT     H282206   0.600   9.536   7.176
27322WAT      O82207   2.933   8.738   6.323
27322WAT     H182208   2.909   8.737   6.227
27322WAT     H282209   2.881   8.809   6.370
27323WAT      O82210   0.532   4.805   6.505
27323WAT     H182211   0.440   4.778   6.477
27323WAT     H282212   0.589   4.724   6.514
27324WAT      O82213   7.330   6.356   7.623
27324WAT     H182214   7.403   6.351   7.692
27324WAT     H282215   7.263   6.284   7.642
27325WAT      O82216   3.820   7.301   9.334
27325WAT     H182217   3.791   7.345   9.418
27325WAT     H282218   3.898   7.241   9.352
27326WAT      O82219   0.095   6.315   8.741
27326WAT     H182220   0.097   6.216   8.758
27326WAT     H282221   0.085   6.332   8.643
27327WAT      O82222   6.387   8.431   4.655
27327WAT     H182223   6.395   8.337   4.687
27327WAT     H282224   6.294   8.465   4.672
27328WAT      O82225   2.011   8.201   8.548
27328WAT     H182226   1.973   8.279   8.498
27328WAT     H282227   1.981   8.116   8.503
27329WAT      O82228   0.117   5.390   3.109
27329WAT     H182229   0.048   5.317   3.104
27329WAT     H282230   0.191   5.362   3.171
27330WAT      O82231   6.278   0.708   3.518
27330WAT     H182232   6.204   0.751   3.570
27330WAT     H282233   6.242   0.627   3.472
27331WAT      O82234   8.686   2.287   7.598
27331WAT     H182235   8.596   2.326   7.616
27331WAT     H282236   8.682   2.188   7.611
27332WAT      O82237   5.222   3.090   2.175
27332WAT     H182238   5.123   3.095   2.163
27332WAT     H282239   5.258   3.182   2.190
27333WAT      O82240   5.751   2.683   2.191
27333WAT     H182241   5.709   2.759   2.140
27333WAT     H282242   5.700   2.599   2.172
27334WAT      O82243   8.392   9.400   4.389
27334WAT     H182244   8.316   9.339   4.415
27334WAT     H282245   8.446   9.422   4.471
27335WAT      O82246   8.935   6.952   1.431
27335WAT     H182247   8.845   6.908   1.428
27335WAT     H282248   8.982   6.924   1.515
27336WAT      O82249   4.382   4.393   9.424
27336WAT     H182250   4.302   4.453   9.425
27336WAT     H282251   4.353   4.298   9.426
27337WAT      O82252   9.023   5.127   2.350
27337WAT     H182253   8.969   5.052   2.389
27337WAT     H282254   8.962   5.194   2.307
27338WAT      O82255   5.657   7.823   5.061
27338WAT     H182256   5.586   7.770   5.107
27338WAT     H282257   5.729   7.762   5.029
27339WAT      O82258   2.556   2.010   4.339
27339WAT     H182259   2.609   2.040   4.259
27339WAT     H282260   2.470   1.968   4.308
27340WAT      O82261   5.469   5.692   5.216
27340WAT     H182262   5.552   5.739   5.186
27340WAT     H282263   5.439   5.729   5.304
27341WAT      O82264   8.343   2.593   6.488
27341WAT     H182265   8.282   2.662   6.526
27341WAT     H282266   8.428   2.636   6.459
27342WAT      O82267   4.670   8.237   5.400
27342WAT     H182268   4.610   8.197   5.330
27342WAT     H282269   4.758   8.261   5.359
27343WAT      O82270   3.717   7.106   1.152
27343WAT     H182271   3.669   7.144   1.072
27343WAT     H282272   3.664   7.126   1.235
27344WAT      O82273   2.510   5.897   8.047
27344WAT     H182274   2.457   5.924   7.967
27344WAT     H282275   2.577   5.828   8.021
27345WAT      O82276   5.227   3.620   6.016
27345WAT     H182277   5.135   3.639   5.980
27345WAT     H282278   5.231   3.649   6.112
27346WAT      O82279   0.373   3.918   6.576
27346WAT     H182280   0.329   3.835   6.612
27346WAT     H282281   0.447   3.892   6.514
27347WAT      O82282   3.814   9.010   8.348
27347WAT     H182283   3.828   9.063   8.432
27347WAT     H282284   3.734   8.951   8.358
27348WAT      O82285   0.618   6.416   2.081
27348WAT     H182286   0.690   6.475   2.117
27348WAT     H282287   0.633   6.402   1.983
27349WAT      O82288   9.131   2.505   5.997
27349WAT     H182289   9.126   2.406   5.985
27349WAT     H282290   9.050   2.537   6.047
27350WAT      O82291   5.137   5.471   5.056
27350WAT     H182292   5.085   5.487   5.140
27350WAT     H282293   5.176   5.557   5.023
27351WAT      O82294   4.557   2.413   1.771
27351WAT     H182295   4.648   2.411   1.731
27351WAT     H282296   4.548   2.336   1.835
27352WAT      O82297   8.537   2.365   5.422
27352WAT     H182298   8.628   2.397   5.397
27352WAT     H282299   8.469   2.433   5.395
27353WAT      O82300   9.492   9.659   8.898
27353WAT     H182301   9.575   9.714   8.886
27353WAT     H282302   9.440   9.658   8.813
27354WAT      O82303   7.344   8.653   7.375
27354WAT     H182304   7.443   8.650   7.364
27354WAT     H282305   7.311   8.745   7.356
27355WAT      O82306   8.512   5.006   5.325
27355WAT     H182307   8.515   5.005   5.225
27355WAT     H282308   8.529   5.098   5.358
27356WAT      O82309   1.097   1.086   1.724
27356WAT     H182310   1.154   1.161   1.757
27356WAT     H282311   1.154   1.007   1.702
27357WAT      O82312   7.548   0.566   0.741
27357WAT     H182313   7.493   0.496   0.696
27357WAT     H282314   7.492   0.648   0.755
27358WAT      O82315   4.201   7.488   8.285
27358WAT     H182316   4.174   7.525   8.374
27358WAT     H282317   4.300   7.499   8.273
27359WAT      O82318   8.183   1.425   6.981
27359WAT     H182319   8.203   1.477   6.898
27359WAT     H282320   8.088   1.395   6.980
27360WAT      O82321   5.735   3.654   8.951
27360WAT     H182322   5.782   3.742   8.962
27360WAT     H282323   5.637   3.667   8.968
27361WAT      O82324   3.826   6.620   7.870
27361WAT     H182325   3.873   6.581   7.949
27361WAT     H282326   3.757   6.556   7.837
27362WAT      O82327   9.327   9.440   2.955
27362WAT     H182328   9.279   9.367   3.005
27362WAT     H282329   9.262   9.508   2.924
27363WAT      O82330   7.169   4.913   9.311
27363WAT     H182331   7.102   4.928   9.384
27363WAT     H282332   7.126   4.923   9.222
27364WAT      O82333   3.796   0.252   5.141
27364WAT     H182334   3.817   0.284   5.049
27364WAT     H282335   3.880   0.223   5.186
27365WAT      O82336   8.372   7.187   3.201
27365WAT     H182337   8.449   7.126   3.184
27365WAT     H282338   8.296   7.136   3.241
27366WAT      O82339   0.106   2.006   3.733
27366WAT     H182340   0.093   1.917   3.777
27366WAT     H282341   0.041   2.071   3.772
27367WAT      O82342   9.669   6.088   6.773
27367WAT     H182343   9.619   6.080   6.687
27367WAT     H282344   9.767   6.084   6.755
27368WAT      O82345   4.137   3.457   8.308
27368WAT     H182346   4.104   3.537   8.257
27368WAT     H282347   4.059   3.399   8.333
27369WAT      O82348   6.117   9.731   5.215
27369WAT     H182349   6.111   9.785   5.132
27369WAT     H282350   6.131   9.791   5.294
27370WAT      O82351   4.970   0.532   4.603
27370WAT     H182352   5.008   0.451   4.559
27370WAT     H282353   4.997   0.534   4.699
27371WAT      O82354   3.316   6.928   8.797
27371WAT     H182355   3.411   6.929   8.766
27371WAT     H282356   3.314   6.924   8.897
27372WAT      O82357   0.563   9.336   9.309
27372WAT     H182358   0.636   9.270   9.287
27372WAT     H282359   0.597   9.429   9.294
27373WAT      O82360   2.310   6.754   7.607
27373WAT     H182361   2.321   6.805   7.692
27373WAT     H282362   2.250   6.805   7.545
27374WAT      O82363   8.165   3.202   3.695
27374WAT     H182364   8.183   3.192   3.793
27374WAT     H282365   8.130   3.115   3.659
27375WAT      O82366   4.481   7.513   1.674
27375WAT     H182367   4.556   7.547   1.732
27375WAT     H282368   4.446   7.589   1.619
27376WAT      O82369   0.629   9.243   7.997
27376WAT     H182370   0.552   9.266   7.937
27376WAT     H282371   0.715   9.253   7.946
27377WAT      O82372   4.131   2.796   3.743
27377WAT     H182373   4.040   2.764   3.767
27377WAT     H282374   4.165   2.746   3.664
27378WAT      O82375   4.555   8.754   6.109
27378WAT     H182376   4.592   8.776   6.019
27378WAT     H282377   4.627   8.759   6.178
27379WAT      O82378   9.454   3.362   6.121
27379WAT     H182379   9.430   3.440   6.178
27379WAT     H282380   9.471   3.282   6.178
27380WAT      O82381   0.453   8.918   1.928
27380WAT     H182382   0.430   8.956   1.838
27380WAT     H282383   0.522   8.976   1.971
27381WAT      O82384   6.134   5.893   7.202
27381WAT     H182385   6.167   5.815   7.256
27381WAT     H282386   6.091   5.860   7.118
27382WAT      O82387   5.346   3.310   2.236
27382WAT     H182388   5.432   3.350   2.204
27382WAT     H282389   5.342   3.317   2.336
27383WAT      O82390   1.399   2.472   2.269
27383WAT     H182391   1.430   2.389   2.316
27383WAT     H282392   1.437   2.473   2.176
27384WAT      O82393   5.849   7.080   0.887
27384WAT     H182394   5.775   7.119   0.832
27384WAT     H282395   5.879   7.147   0.955
27385WAT      O82396   6.963   4.705   7.887
27385WAT     H182397   7.040   4.643   7.904
27385WAT     H282398   6.965   4.734   7.791
27386WAT      O82399   9.693   5.906   7.663
27386WAT     H182400   9.665   5.877   7.572
27386WAT     H282401   9.791   5.887   7.675
27387WAT      O82402   3.758   7.317   3.099
27387WAT     H182403   3.796   7.394   3.048
27387WAT     H282404   3.686   7.273   3.046
27388WAT      O82405   2.139   6.845   3.184
27388WAT     H182406   2.047   6.816   3.156
27388WAT     H282407   2.187   6.768   3.226
27389WAT      O82408   2.175   9.274   2.104
27389WAT     H182409   2.178   9.198   2.169
27389WAT     H282410   2.260   9.326   2.111
27390WAT      O82411   1.877   3.194   0.474
27390WAT     H182412   1.865   3.130   0.398
27390WAT     H282413   1.803   3.182   0.540
27391WAT      O82414   1.291   9.180   4.092
27391WAT     H182415   1.245   9.196   4.180
27391WAT     H282416   1.347   9.260   4.069
27392WAT      O82417   7.371   5.085   3.307
27392WAT     H182418   7.312   5.148   3.257
27392WAT     H282419   7.409   5.130   3.387
27393WAT      O82420   1.047   7.541   0.094
27393WAT     H182421   1.058   7.560  -0.003
27393WAT     H282422   0.968   7.593   0.129
27394WAT      O82423   8.862   4.333   1.049
27394WAT     H182424   8.849   4.234   1.061
27394WAT     H282425   8.935   4.364   1.110
27395WAT      O82426   8.343   9.782   1.528
27395WAT     H182427   8.257   9.792   1.478
27395WAT     H282428   8.324   9.744   1.618
27396WAT      O82429   5.523   4.338   5.115
27396WAT     H182430   5.484   4.425   5.083
27396WAT     H282431   5.456   4.289   5.170
27397WAT      O82432   2.140   5.580   0.332
27397WAT     H182433   2.204   5.551   0.261
27397WAT     H282434   2.111   5.674   0.315
27398WAT      O82435   3.988   0.350   0.535
27398WAT     H182436   4.013   0.307   0.448
27398WAT     H282437   3.991   0.449   0.525
27399WAT      O82438   2.789   3.917   7.617
27399WAT     H182439   2.831   3.927   7.527
27399WAT     H282440   2.790   3.821   7.644
27400WAT      O82441   9.368   4.887   6.471
27400WAT     H182442   9.391   4.896   6.568
27400WAT     H282443   9.349   4.978   6.433
27401WAT      O82444   5.193   9.121   6.762
27401WAT     H182445   5.245   9.117   6.848
27401WAT     H282446   5.153   9.032   6.743
27402WAT      O82447   2.309   0.834   6.832
27402WAT     H182448   2.306   0.747   6.783
27402WAT     H282449   2.354   0.821   6.920
27403WAT      O82450   6.937   4.930   6.577
27403WAT     H182451   6.901   4.887   6.660
27403WAT     H282452   6.990   4.863   6.525
27404WAT      O82453   3.908   7.665   9.560
27404WAT     H182454   3.850   7.586   9.579
27404WAT     H282455   3.956   7.652   9.473
27405WAT      O82456   6.384   1.560   6.527
27405WAT     H182457   6.291   1.564   6.563
27405WAT     H282458   6.381   1.535   6.430
27406WAT      O82459   7.888   8.174   5.126
27406WAT     H182460   7.805   8.118   5.133
27406WAT     H282461   7.967   8.114   5.116
27407WAT      O82462   9.287   7.082   2.056
27407WAT     H182463   9.290   7.009   1.988
27407WAT     H282464   9.377   7.091   2.099
27408WAT      O82465   3.170   8.295   8.535
27408WAT     H182466   3.260   8.271   8.500
27408WAT     H282467   3.112   8.326   8.460
27409WAT      O82468   8.521   3.574   7.831
27409WAT     H182469   8.500   3.477   7.838
27409WAT     H282470   8.589   3.598   7.901
27410WAT      O82471   5.466   4.181   1.617
27410WAT     H182472   5.496   4.094   1.657
27410WAT     H282473   5.453   4.170   1.518
27411WAT      O82474   9.545   3.973   3.834
27411WAT     H182475   9.600   4.055   3.823
27411WAT     H282476   9.461   3.982   3.780
27412WAT      O82477   3.063   6.551   4.061
27412WAT     H182478   3.132   6.490   4.097
27412WAT     H282479   2.983   6.552   4.121
27413WAT      O82480   8.596   1.470   0.954
27413WAT     H182481   8.615   1.518   0.868
27413WAT     H282482   8.668   1.491   1.020
27414WAT      O82483   0.792   2.135   2.752
27414WAT     H182484   0.876   2.189   2.753
27414WAT     H282485   0.801   2.059   2.816
27415WAT      O82486   6.357   2.709   6.354
27415WAT     H182487   6.296   2.631   6.363
27415WAT     H282488   6.402   2.707   6.264
27416WAT      O82489   0.267   6.443   3.005
27416WAT     H182490   0.173   6.475   2.991
27416WAT     H282491   0.329   6.493   2.945
27417WAT      O82492   9.752   4.875   9.408
27417WAT     H182493   9.741   4.792   9.353
27417WAT     H282494   9.671   4.933   9.399
27418WAT      O82495   4.582   0.208   4.138
27418WAT     H182496   4.600   0.250   4.227
27418WAT     H282497   4.525   0.127   4.151
27419WAT      O82498   1.379   7.291   2.255
27419WAT     H182499   1.290   7.301   2.298
27419WAT     H282500   1.441   7.362   2.289
27420WAT      O82501   7.802   8.598   9.571
27420WAT     H182502   7.875   8.549   9.525
27420WAT     H282503   7.823   8.605   9.669
27421WAT      O82504   6.820   6.110   1.219
27421WAT     H182505   6.821   6.151   1.127
27421WAT     H282506   6.799   6.012   1.211
27422WAT      O82507   5.199   1.606   2.154
27422WAT     H182508   5.162   1.549   2.080
27422WAT     H282509   5.130   1.672   2.182
27423WAT      O82510   9.504   8.733   3.333
27423WAT     H182511   9.476   8.724   3.428
27423WAT     H282512   9.466   8.818   3.295
27424WAT      O82513   0.686   8.404   0.538
27424WAT     H182514   0.693   8.308   0.565
27424WAT     H282515   0.776   8.439   0.515
27425WAT      O82516   6.421   5.165   0.149
27425WAT     H182517   6.430   5.246   0.207
27425WAT     H282518   6.413   5.192   0.053
27426WAT      O82519   5.004   7.689   9.268
27426WAT     H182520   5.075   7.626   9.234
27426WAT     H282521   4.941   7.639   9.327
27427WAT      O82522   6.896   5.296   5.223
27427WAT     H182523   6.897   5.207   5.177
27427WAT     H282524   6.989   5.335   5.223
27428WAT      O82525   2.127   4.909   0.232
27428WAT     H182526   2.036   4.896   0.269
27428WAT     H282527   2.174   4.981   0.284
27429WAT      O82528   2.963   8.321   5.306
27429WAT     H182529   2.914   8.378   5.373
27429WAT     H282530   3.056   8.355   5.295
27430WAT      O82531   7.211   4.614   7.925
27430WAT     H182532   7.229   4.525   7.883
27430WAT     H282533   7.259   4.621   8.012
27431WAT      O82534   4.390   0.730   4.531
27431WAT     H182535   4.454   0.785   4.585
27431WAT     H282536   4.346   0.788   4.463
27432WAT      O82537   3.624   6.292   0.939
27432WAT     H182538   3.717   6.315   0.912
27432WAT     H282539   3.571   6.269   0.857
27433WAT      O82540   5.432   1.785   5.208
27433WAT     H182541   5.351   1.733   5.182
27433WAT     H282542   5.405   1.873   5.246
27434WAT      O82543   7.285   4.271   3.999
27434WAT     H182544   7.336   4.219   3.931
27434WAT     H282545   7.229   4.341   3.954
27435WAT      O82546   8.869   9.081   6.785
27435WAT     H182547   8.870   8.982   6.770
27435WAT     H282548   8.958   9.110   6.820
27436WAT      O82549   6.274   7.373   1.994
27436WAT     H182550   6.230   7.310   2.058
27436WAT     H282551   6.216   7.454   1.982
27437WAT      O82552   0.932   8.124   0.517
27437WAT     H182553   0.852   8.101   0.573
27437WAT     H282554   0.912   8.206   0.463
27438WAT      O82555   5.287   3.011   8.816
27438WAT     H182556   5.194   3.031   8.788
27438WAT     H282557   5.322   2.934   8.762
27439WAT      O82558   5.153   2.079   4.819
27439WAT     H182559   5.080   2.038   4.873
27439WAT     H282560   5.144   2.053   4.724
27440WAT      O82561   2.504   1.058   4.192
27440WAT     H182562   2.597   1.030   4.216
27440WAT     H282563   2.455   0.980   4.152
27441WAT      O82564   6.495   0.937   4.478
27441WAT     H182565   6.479   1.028   4.516
27441WAT     H282566   6.540   0.945   4.389
27442WAT      O82567   0.489   9.835   6.269
27442WAT     H182568   0.476   9.933   6.251
27442WAT     H282569   0.587   9.817   6.284
27443WAT      O82570   1.431   6.888   9.531
27443WAT     H182571   1.416   6.933   9.443
27443WAT     H282572   1.515   6.922   9.573
27444WAT      O82573   5.699   1.499   1.675
27444WAT     H182574   5.672   1.459   1.587
27444WAT     H282575   5.795   1.477   1.692
27445WAT      O82576   8.711   2.412   9.134
27445WAT     H182577   8.796   2.405   9.187
27445WAT     H282578   8.633   2.411   9.197
27446WAT      O82579   1.327   8.380   8.288
27446WAT     H182580   1.317   8.366   8.190
27446WAT     H282581   1.278   8.308   8.337
27447WAT      O82582   9.808   2.533   0.241
27447WAT     H182583   9.807   2.629   0.268
27447WAT     H282584   9.866   2.481   0.304
27448WAT      O82585   4.303   6.645   5.459
27448WAT     H182586   4.332   6.592   5.380
27448WAT     H282587   4.237   6.593   5.513
27449WAT      O82588   5.470   2.581   0.679
27449WAT     H182589   5.546   2.517   0.667
27449WAT     H282590   5.472   2.617   0.773
27450WAT      O82591   3.056   2.361   6.207
27450WAT     H182592   3.029   2.415   6.127
27450WAT     H282593   3.024   2.406   6.290
27451WAT      O82594   6.626   3.558   7.577
27451WAT     H182595   6.725   3.544   7.582
27451WAT     H282596   6.580   3.470   7.577
27452WAT      O82597   1.531   8.365   4.190
27452WAT     H182598   1.501   8.354   4.285
27452WAT     H282599   1.464   8.325   4.128
27453WAT      O82600   4.017   8.833   3.228
27453WAT     H182601   3.971   8.897   3.167
27453WAT     H282602   4.002   8.740   3.197
27454WAT      O82603   0.341   8.810   8.985
27454WAT     H182604   0.417   8.831   9.047
27454WAT     H282605   0.368   8.827   8.891
27455WAT      O82606   9.810   1.193   7.867
27455WAT     H182607   9.788   1.290   7.866
27455WAT     H282608   9.826   1.161   7.773
27456WAT      O82609   7.058   4.650   5.873
27456WAT     H182610   7.062   4.589   5.793
27456WAT     H282611   7.145   4.699   5.881
27457WAT      O82612   7.660   4.306   3.784
27457WAT     H182613   7.749   4.301   3.739
27457WAT     H282614   7.668   4.360   3.868
27458WAT      O82615   6.576   6.752   5.561
27458WAT     H182616   6.555   6.815   5.636
27458WAT     H282617   6.674   6.755   5.542
27459WAT      O82618   0.877   1.874   2.599
27459WAT     H182619   0.957   1.823   2.632
27459WAT     H282620   0.843   1.934   2.671
27460WAT      O82621   2.190   9.772   2.258
27460WAT     H182622   2.289   9.777   2.275
27460WAT     H282623   2.160   9.677   2.267
27461WAT      O82624   9.470   6.460   1.066
27461WAT     H182625   9.427   6.460   1.156
27461WAT     H282626   9.488   6.554   1.038
27462WAT      O82627   5.290   6.357   0.440
27462WAT     H182628   5.266   6.425   0.371
27462WAT     H282629   5.287   6.266   0.399
27463WAT      O82630   0.411   0.996   3.789
27463WAT     H182631   0.497   1.034   3.755
27463WAT     H282632   0.385   1.042   3.873
27464WAT      O82633   6.444   6.408   6.809
27464WAT     H182634   6.423   6.313   6.785
27464WAT     H282635   6.360   6.456   6.831
27465WAT      O82636   2.667   9.725   7.363
27465WAT     H182637   2.713   9.698   7.448
27465WAT     H282638   2.735   9.751   7.295
27466WAT      O82639   1.298   8.095   6.284
27466WAT     H182640   1.254   8.121   6.370
27466WAT     H282641   1.384   8.146   6.274
27467WAT      O82642   8.603   9.713   7.303
27467WAT     H182643   8.545   9.728   7.223
27467WAT     H282644   8.689   9.763   7.291
27468WAT      O82645   0.346   1.998   9.034
27468WAT     H182646   0.326   2.094   9.010
27468WAT     H282647   0.350   1.989   9.134
27469WAT      O82648   1.947   4.299   7.811
27469WAT     H182649   1.981   4.316   7.719
27469WAT     H282650   1.882   4.223   7.810
27470WAT      O82651   1.797   5.620   8.560
27470WAT     H182652   1.897   5.614   8.558
27470WAT     H282653   1.768   5.678   8.636
27471WAT      O82654   6.531   6.925   6.178
27471WAT     H182655   6.619   6.881   6.160
27471WAT     H282656   6.516   6.934   6.276
27472WAT      O82657   2.067   7.779   2.128
27472WAT     H182658   2.125   7.850   2.088
27472WAT     H282659   2.038   7.715   2.057
27473WAT      O82660   0.611   7.991   7.007
27473WAT     H182661   0.660   7.980   6.920
27473WAT     H282662   0.665   7.949   7.080
27474WAT      O82663   1.986   4.620   7.319
27474WAT     H182664   2.078   4.596   7.349
27474WAT     H282665   1.972   4.718   7.330
27475WAT      O82666   0.090   1.385   3.204
27475WAT     H182667   0.100   1.286   3.195
27475WAT     H282668   0.168   1.421   3.256
27476WAT      O82669   5.354   4.359   8.025
27476WAT     H182670   5.274   4.409   8.056
27476WAT     H282671   5.326   4.284   7.965
27477WAT      O82672   9.269   3.118   0.888
27477WAT     H182673   9.189   3.092   0.835
27477WAT     H282674   9.262   3.080   0.981
27478WAT      O82675   5.216   3.291   4.673
27478WAT     H182676   5.190   3.283   4.769
27478WAT     H282677   5.298   3.347   4.665
27479WAT      O82678   7.142   9.438   3.402
27479WAT     H182679   7.092   9.448   3.488
27479WAT     H282680   7.077   9.427   3.327
27480WAT      O82681   5.801   1.291   5.713
27480WAT     H182682   5.828   1.385   5.689
27480WAT     H282683   5.701   1.287   5.720
27481WAT      O82684   5.603   7.109   9.143
27481WAT     H182685   5.599   7.028   9.085
27481WAT     H282686   5.600   7.082   9.239
27482WAT      O82687   4.915   2.547   8.902
27482WAT     H182688   4.879   2.484   8.833
27482WAT     H282689   5.008   2.519   8.927
27483WAT      O82690   6.001   0.421   1.179
27483WAT     H182691   6.064   0.472   1.237
27483WAT     H282692   5.985   0.472   1.094
27484WAT      O82693   5.477   7.680   6.428
27484WAT     H182694   5.458   7.744   6.501
27484WAT     H282695   5.450   7.720   6.340
27485WAT      O82696   1.862   1.945   5.028
27485WAT     H182697   1.786   1.996   4.988
27485WAT     H282698   1.854   1.946   5.128
27486WAT      O82699   4.700   6.684   6.129
27486WAT     H182700   4.719   6.777   6.160
27486WAT     H282701   4.642   6.687   6.047
27487WAT      O82702   6.138   3.987   3.993
27487WAT     H182703   6.048   3.991   4.036
27487WAT     H282704   6.209   3.990   4.063
27488WAT      O82705   8.218   0.540   4.009
27488WAT     H182706   8.264   0.451   4.004
27488WAT     H282707   8.264   0.605   3.949
27489WAT      O82708   5.133   7.281   2.562
27489WAT     H182709   5.064   7.230   2.613
27489WAT     H282710   5.134   7.251   2.466
27490WAT      O82711   0.449   3.344   5.306
27490WAT     H182712   0.367   3.376   5.354
27490WAT     H282713   0.529   3.392   5.342
27491WAT      O82714   6.539   2.421   4.084
27491WAT     H182715   6.596   2.356   4.135
27491WAT     H282716   6.573   2.430   3.991
27492WAT      O82717   3.398   2.447   5.478
27492WAT     H182718   3.421   2.484   5.569
27492WAT     H282719   3.396   2.522   5.412
27493WAT      O82720   6.885   2.723   6.525
27493WAT     H182721   6.981   2.749   6.532
27493WAT     H282722   6.878   2.632   6.484
27494WAT      O82723   7.754   5.015   0.489
27494WAT     H182724   7.756   5.113   0.469
27494WAT     H282725   7.660   4.982   0.484
27495WAT      O82726   9.588   8.517   6.601
27495WAT     H182727   9.570   8.608   6.564
27495WAT     H282728   9.524   8.451   6.562
27496WAT      O82729   5.436   0.389   8.699
27496WAT     H182730   5.387   0.311   8.660
27496WAT     H282731   5.374   0.443   8.756
27497WAT      O82732   4.352   4.213   7.807
27497WAT     H182733   4.416   4.260   7.746
27497WAT     H282734   4.352   4.258   7.896
27498WAT      O82735   5.486   3.590   7.701
27498WAT     H182736   5.392   3.580   7.734
27498WAT     H282737   5.534   3.656   7.759
27499WAT      O82738   6.010   1.755   7.545
27499WAT     H182739   6.055   1.800   7.469
27499WAT     H282740   5.976   1.823   7.610
27500WAT      O82741   9.771   9.181   6.872
27500WAT     H182742   9.832   9.218   6.801
27500WAT     H282743   9.817   9.185   6.961
27501WAT      O82744   6.907   8.646   8.996
27501WAT     H182745   7.001   8.678   9.012
27501WAT     H282746   6.887   8.568   9.055
27502WAT      O82747   5.533   1.414   6.016
27502WAT     H182748   5.532   1.470   6.100
27502WAT     H282749   5.441   1.413   5.976
27503WAT      O82750   9.290   6.650   8.959
27503WAT     H182751   9.219   6.675   8.893
27503WAT     H282752   9.248   6.630   9.048
27504WAT      O82753   4.441   4.672   2.841
27504WAT     H182754   4.482   4.700   2.754
27504WAT     H282755   4.416   4.575   2.836
27505WAT      O82756   7.052   6.859   1.906
27505WAT     H182757   7.057   6.897   1.998
27505WAT     H282758   7.137   6.878   1.857
27506WAT      O82759   1.783   8.068   4.389
27506WAT     H182760   1.840   8.001   4.436
27506WAT     H282761   1.841   8.136   4.345
27507WAT      O82762   0.243   2.625   0.467
27507WAT     H182763   0.333   2.622   0.511
27507WAT     H282764   0.173   2.646   0.535
27508WAT      O82765   4.223   4.439   0.700
27508WAT     H182766   4.290   4.447   0.627
27508WAT     H282767   4.139   4.397   0.665
27509WAT      O82768   0.144   5.973   6.937
27509WAT     H182769   0.070   5.956   7.002
27509WAT     H282770   0.130   6.062   6.894
27510WAT      O82771   5.269   0.709   4.972
27510WAT     H182772   5.180   0.748   4.993
27510WAT     H282773   5.285   0.712   4.874
27511WAT      O82774   1.847   9.441   4.378
27511WAT     H182775   1.883   9.353   4.347
27511WAT     H282776   1.828   9.499   4.299
27512WAT      O82777   2.945   8.119   3.313
27512WAT     H182778   2.917   8.033   3.355
27512WAT     H282779   2.983   8.102   3.222
27513WAT      O82780   4.061   7.807   0.371
27513WAT     H182781   4.136   7.743   0.390
27513WAT     H282782   3.990   7.759   0.320
27514WAT      O82783   2.259   9.269   2.742
27514WAT     H182784   2.171   9.294   2.701
27514WAT     H282785   2.277   9.328   2.821
27515WAT      O82786   0.726   6.264   9.800
27515WAT     H182787   0.708   6.192   9.733
27515WAT     H282788   0.644   6.320   9.812
27516WAT      O82789   1.683   1.534   0.177
27516WAT     H182790   1.769   1.565   0.218
27516WAT     H282791   1.685   1.434   0.169
27517WAT      O82792   8.204   1.687   9.827
27517WAT     H182793   8.252   1.711   9.911
27517WAT     H282794   8.112   1.653   9.849
27518WAT      O82795   5.380   5.620   4.301
27518WAT     H182796   5.370   5.646   4.205
27518WAT     H282797   5.433   5.690   4.348
27519WAT      O82798   5.256   9.699   3.184
27519WAT     H182799   5.295   9.775   3.236
27519WAT     H282800   5.168   9.673   3.224
27520WAT      O82801   1.713   1.880   5.737
27520WAT     H182802   1.730   1.979   5.734
27520WAT     H282803   1.753   1.842   5.821
27521WAT      O82804   0.151   7.552   3.907
27521WAT     H182805   0.119   7.481   3.969
27521WAT     H282806   0.168   7.513   3.817
27522WAT      O82807   5.970   2.439   7.129
27522WAT     H182808   5.938   2.358   7.178
27522WAT     H282809   6.070   2.437   7.124
27523WAT      O82810   1.533   8.510   5.627
27523WAT     H182811   1.611   8.506   5.564
27523WAT     H282812   1.550   8.449   5.704
27524WAT      O82813   8.223   1.791   1.270
27524WAT     H182814   8.229   1.872   1.212
27524WAT     H282815   8.136   1.791   1.318
27525WAT      O82816   1.880   9.797   9.164
27525WAT     H182817   1.957   9.860   9.154
27525WAT     H282818   1.817   9.831   9.233
27526WAT      O82819   2.589   2.591   5.912
27526WAT     H182820   2.652   2.575   5.987
27526WAT     H282821   2.527   2.513   5.903
27527WAT      O82822   1.799   4.711   0.947
27527WAT     H182823   1.897   4.696   0.960
27527WAT     H282824   1.748   4.632   0.981
27528WAT      O82825   7.591   3.936   2.412
27528WAT     H182826   7.601   3.997   2.333
27528WAT     H282827   7.536   3.981   2.482
27529WAT      O82828   4.307   3.322   0.572
27529WAT     H182829   4.264   3.364   0.651
27529WAT     H282830   4.356   3.391   0.519
27530WAT      O82831   0.435   6.656   4.954
27530WAT     H182832   0.361   6.589   4.948
27530WAT     H282833   0.460   6.687   4.862
27531WAT      O82834   0.265   2.504   2.255
27531WAT     H182835   0.326   2.462   2.188
27531WAT     H282836   0.280   2.463   2.345
27532WAT      O82837   3.447   8.000   0.547
27532WAT     H182838   3.414   8.016   0.454
27532WAT     H282839   3.370   7.974   0.605
27533WAT      O82840   8.535   0.775   3.215
27533WAT     H182841   8.513   0.744   3.308
27533WAT     H282842   8.460   0.752   3.154
27534WAT      O82843   6.576   1.259   1.859
27534WAT     H182844   6.590   1.177   1.915
27534WAT     H282845   6.608   1.241   1.766
27535WAT      O82846   7.169   9.421   8.779
27535WAT     H182847   7.119   9.438   8.694
27535WAT     H282848   7.149   9.494   8.845
27536WAT      O82849   9.054   7.767   8.888
27536WAT     H182850   9.000   7.708   8.948
27536WAT     H282851   9.128   7.713   8.846
27537WAT      O82852   5.850   2.084   4.095
27537WAT     H182853   5.807   2.081   4.005
27537WAT     H282854   5.949   2.093   4.085
27538WAT      O82855   4.858   4.537   9.114
27538WAT     H182856   4.919   4.465   9.147
27538WAT     H282857   4.905   4.625   9.120
27539WAT      O82858   1.496   6.442   1.987
27539WAT     H182859   1.578   6.499   1.998
27539WAT     H282860   1.483   6.387   2.069
27540WAT      O82861   6.814   0.121   6.762
27540WAT     H182862   6.744   0.071   6.812
27540WAT     H282863   6.836   0.205   6.811
27541WAT      O82864   7.995   1.760   3.038
27541WAT     H182865   8.005   1.661   3.035
27541WAT     H282866   7.908   1.785   2.996
27542WAT      O82867   4.217   2.376   8.860
27542WAT     H182868   4.169   2.459   8.887
27542WAT     H282869   4.226   2.374   8.760
27543WAT      O82870   8.374   5.199   2.338
27543WAT     H182871   8.399   5.194   2.435
27543WAT     H282872   8.286   5.246   2.328
27544WAT      O82873   1.726   3.931   5.485
27544WAT     H182874   1.803   3.945   5.547
27544WAT     H282875   1.691   3.838   5.495
27545WAT      O82876   3.246   9.723   4.855
27545WAT     H182877   3.341   9.702   4.881
27545WAT     H282878   3.239   9.721   4.755
27546WAT      O82879   0.760   4.334   1.923
27546WAT     H182880   0.745   4.391   2.004
27546WAT     H282881   0.693   4.259   1.922
27547WAT      O82882   3.195   7.752   2.354
27547WAT     H182883   3.238   7.759   2.444
27547WAT     H282884   3.145   7.665   2.348
27548WAT      O82885   6.198   8.834   2.585
27548WAT     H182886   6.166   8.740   2.593
27548WAT     H282887   6.244   8.862   2.669
27549WAT      O82888   4.513   9.304   6.087
27549WAT     H182889   4.579   9.378   6.101
27549WAT     H282890   4.474   9.311   5.995
27550WAT      O82891   7.977   1.459   0.314
27550WAT     H182892   7.948   1.392   0.382
27550WAT     H282893   8.069   1.435   0.281
27551WAT      O82894   1.795   5.378   8.150
27551WAT     H182895   1.745   5.295   8.175
27551WAT     H282896   1.776   5.450   8.216
27552WAT      O82897   0.737   3.604   4.359
27552WAT     H182898   0.832   3.633   4.347
27552WAT     H282899   0.730   3.506   4.338
27553WAT      O82900   1.298   2.987   7.308
27553WAT     H182901   1.310   2.920   7.236
27553WAT     H282902   1.285   2.940   7.396
27554WAT      O82903   0.411   5.025   8.561
27554WAT     H182904   0.328   4.977   8.530
27554WAT     H282905   0.417   5.113   8.514
27555WAT      O82906   0.219   9.203   7.402
27555WAT     H182907   0.190   9.293   7.370
27555WAT     H282908   0.300   9.214   7.460
27556WAT      O82909   7.871   9.351   0.022
27556WAT     H182910   7.961   9.383  -0.009
27556WAT     H282911   7.800   9.403  -0.024
27557WAT      O82912   2.407   6.792   9.725
27557WAT     H182913   2.443   6.784   9.632
27557WAT     H282914   2.434   6.879   9.764
27558WAT      O82915   8.492   2.453   6.670
27558WAT     H182916   8.422   2.493   6.610
27558WAT     H282917   8.458   2.452   6.764
27559WAT      O82918   5.088   1.969   2.119
27559WAT     H182919   5.088   2.055   2.170
27559WAT     H282920   5.029   1.902   2.165
27560WAT      O82921   1.221   6.120   5.030
27560WAT     H182922   1.233   6.078   4.940
27560WAT     H282923   1.307   6.164   5.058
27561WAT      O82924   2.719   2.865   6.394
27561WAT     H182925   2.687   2.771   6.383
27561WAT     H282926   2.667   2.924   6.332
27562WAT      O82927   5.773   3.319   0.794
27562WAT     H182928   5.712   3.307   0.873
27562WAT     H282929   5.797   3.416   0.786
27563WAT      O82930   5.210   0.711   2.770
27563WAT     H182931   5.283   0.755   2.719
27563WAT     H282932   5.249   0.659   2.846
27564WAT      O82933   4.166   2.443   5.995
27564WAT     H182934   4.093   2.405   6.052
27564WAT     H282935   4.243   2.379   5.994
27565WAT      O82936   3.614   7.635   6.238
27565WAT     H182937   3.540   7.669   6.180
27565WAT     H282938   3.576   7.586   6.316
27566WAT      O82939   4.082   2.615   6.719
27566WAT     H182940   4.019   2.639   6.793
27566WAT     H282941   4.158   2.681   6.717
27567WAT      O82942   4.916   0.967   3.028
27567WAT     H182943   4.862   1.051   3.034
27567WAT     H282944   4.942   0.950   2.933
27568WAT      O82945   4.108   9.728   2.449
27568WAT     H182946   4.088   9.762   2.358
27568WAT     H282947   4.116   9.804   2.513
27569WAT      O82948   5.758   1.631   7.807
27569WAT     H182949   5.689   1.703   7.801
27569WAT     H282950   5.740   1.562   7.737
27570WAT      O82951   0.246   7.338   6.944
27570WAT     H182952   0.248   7.406   7.018
27570WAT     H282953   0.275   7.249   6.980
27571WAT      O82954   0.979   6.338   1.285
27571WAT     H182955   0.932   6.412   1.333
27571WAT     H282956   1.009   6.269   1.350
27572WAT      O82957   6.901   1.396   7.985
27572WAT     H182958   6.908   1.427   8.080
27572WAT     H282959   6.902   1.296   7.983
27573WAT      O82960   9.447   2.089   3.224
27573WAT     H182961   9.503   2.075   3.142
27573WAT     H282962   9.506   2.104   3.303
27574WAT      O82963   1.996   0.955   5.990
27574WAT     H182964   1.919   0.988   6.044
27574WAT     H282965   2.003   0.855   5.997
27575WAT      O82966   4.088   0.266   4.023
27575WAT     H182967   4.107   0.247   4.120
27575WAT     H282968   3.991   0.285   4.011
27576WAT      O82969   1.487   6.653   4.978
27576WAT     H182970   1.467   6.685   4.885
27576WAT     H282971   1.583   6.627   4.984
27577WAT      O82972   0.834   5.009   9.497
27577WAT     H182973   0.850   4.910   9.492
27577WAT     H282974   0.778   5.029   9.577
27578WAT      O82975   3.862   7.335   5.732
27578WAT     H182976   3.913   7.406   5.781
27578WAT     H282977   3.914   7.305   5.652
27579WAT      O82978   5.891   4.800   3.230
27579WAT     H182979   5.948   4.733   3.278
27579WAT     H282980   5.799   4.762   3.217
27580WAT      O82981   1.457   4.173   5.089
27580WAT     H182982   1.373   4.118   5.088
27580WAT     H282983   1.436   4.265   5.122
27581WAT      O82984   9.419   2.945   1.972
27581WAT     H182985   9.382   2.992   2.052
27581WAT     H282986   9.414   3.005   1.893
27582WAT      O82987   1.935   5.573   9.390
27582WAT     H182988   1.836   5.580   9.402
27582WAT     H282989   1.955   5.552   9.294
27583WAT      O82990   7.019   5.488   3.964
27583WAT     H182991   7.075   5.493   4.046
27583WAT     H282992   7.000   5.392   3.942
27584WAT      O82993   7.918   5.406   8.689
27584WAT     H182994   7.894   5.393   8.593
27584WAT     H282995   7.841   5.449   8.737
27585WAT      O82996   4.391   1.386   0.888
27585WAT     H182997   4.329   1.329   0.836
27585WAT     H282998   4.485   1.372   0.856
27586WAT      O82999   6.447   8.970   4.679
27586WAT     H183000   6.355   8.974   4.641
27586WAT     H283001   6.462   8.880   4.721
27587WAT      O83002   1.402   7.190   6.997
27587WAT     H183003   1.473   7.233   6.940
27587WAT     H283004   1.445   7.149   7.078
27588WAT      O83005   8.608   2.360   0.306
27588WAT     H183006   8.556   2.303   0.242
27588WAT     H283007   8.705   2.338   0.298
27589WAT      O83008   2.341   3.157   1.680
27589WAT     H183009   2.285   3.236   1.655
27589WAT     H283010   2.283   3.076   1.688
27590WAT      O83011   5.675   0.722   1.342
27590WAT     H183012   5.709   0.745   1.251
27590WAT     H283013   5.719   0.780   1.410
27591WAT      O83014   7.671   7.300   9.401
27591WAT     H183015   7.758   7.296   9.449
27591WAT     H283016   7.627   7.210   9.404
27592WAT      O83017   6.351   7.393   9.830
27592WAT     H183018   6.359   7.464   9.760
27592WAT     H283019   6.369   7.304   9.789
27593WAT      O83020   0.607   7.397   6.489
27593WAT     H183021   0.545   7.345   6.430
27593WAT     H283022   0.665   7.333   6.539
27594WAT      O83023   0.081   6.647   4.732
27594WAT     H183024   0.055   6.610   4.643
27594WAT     H283025   0.003   6.639   4.795
27595WAT      O83026   6.446   2.630   5.360
27595WAT     H183027   6.391   2.623   5.276
27595WAT     H283028   6.502   2.713   5.355
27596WAT      O83029   0.339   1.721   6.371
27596WAT     H183030   0.245   1.723   6.337
27596WAT     H283031   0.397   1.776   6.311
27597WAT      O83032   8.774   5.473   0.832
27597WAT     H183033   8.840   5.432   0.769
27597WAT     H283034   8.692   5.499   0.783
27598WAT      O83035   4.850   6.338   1.014
27598WAT     H183036   4.943   6.375   1.015
27598WAT     H283037   4.847   6.255   0.958
27599WAT      O83038   7.871   8.678   2.615
27599WAT     H183039   7.855   8.609   2.545
27599WAT     H283040   7.783   8.715   2.646
27600WAT      O83041   1.766   8.831   4.348
27600WAT     H183042   1.706   8.767   4.299
27600WAT     H283043   1.802   8.787   4.430
27601WAT      O83044   3.558   0.766   5.539
27601WAT     H183045   3.587   0.709   5.616
27601WAT     H283046   3.576   0.862   5.560
27602WAT      O83047   5.606   3.754   6.743
27602WAT     H183048   5.520   3.784   6.703
27602WAT     H283049   5.651   3.688   6.682
27603WAT      O83050   4.350   5.913   8.681
27603WAT     H183051   4.360   6.012   8.685
27603WAT     H283052   4.426   5.873   8.629
27604WAT      O83053   3.104   8.190   3.813
27604WAT     H183054   3.136   8.162   3.722
27604WAT     H283055   3.072   8.284   3.809
27605WAT      O83056   8.625   4.030   7.362
27605WAT     H183057   8.616   3.945   7.310
27605WAT     H283058   8.720   4.041   7.391
27606WAT      O83059   1.209   9.217   6.787
27606WAT     H183060   1.153   9.135   6.779
27606WAT     H283061   1.150   9.295   6.810
27607WAT      O83062   6.758   1.275   0.174
27607WAT     H183063   6.823   1.347   0.199
27607WAT     H283064   6.690   1.265   0.246
27608WAT      O83065   3.078   4.354   2.355
27608WAT     H183066   3.046   4.442   2.388
27608WAT     H283067   3.173   4.340   2.384
27609WAT      O83068   7.680   0.455   1.651
27609WAT     H183069   7.738   0.421   1.724
27609WAT     H283070   7.585   0.428   1.668
27610WAT      O83071   0.881   2.555   5.212
27610WAT     H183072   0.948   2.519   5.148
27610WAT     H283073   0.804   2.492   5.219
27611WAT      O83074   9.113   3.318   8.685
27611WAT     H183075   9.069   3.230   8.703
27611WAT     H283076   9.051   3.392   8.711
27612WAT      O83077   7.912   5.677   3.594
27612WAT     H183078   7.829   5.712   3.639
27612WAT     H283079   7.942   5.742   3.524
27613WAT      O83080   6.110   4.757   9.645
27613WAT     H183081   6.175   4.690   9.681
27613WAT     H283082   6.042   4.779   9.714
27614WAT      O83083   4.415   3.235   5.174
27614WAT     H183084   4.318   3.229   5.198
27614WAT     H283085   4.430   3.190   5.085
27615WAT      O83086   1.482   7.985   0.877
27615WAT     H183087   1.383   7.991   0.866
27615WAT     H283088   1.516   7.902   0.834
27616WAT      O83089   2.481   8.926   2.966
27616WAT     H183090   2.518   9.002   2.912
27616WAT     H283091   2.542   8.908   3.043
27617WAT      O83092   5.399   0.458   6.708
27617WAT     H183093   5.411   0.557   6.712
27617WAT     H283094   5.385   0.430   6.613
27618WAT      O83095   1.232   4.392   8.777
27618WAT     H183096   1.204   4.436   8.863
27618WAT     H283097   1.152   4.350   8.734
27619WAT      O83098   4.465   7.773   5.354
27619WAT     H183099   4.519   7.846   5.397
27619WAT     H283100   4.434   7.709   5.424
27620WAT      O83101   1.586   8.957   8.919
27620WAT     H183102   1.509   9.010   8.884
27620WAT     H283103   1.574   8.861   8.896
27621WAT      O83104   2.385   9.004   1.462
27621WAT     H183105   2.470   9.034   1.505
27621WAT     H283106   2.331   8.951   1.528
27622WAT      O83107   2.650   7.161   4.512
27622WAT     H183108   2.562   7.205   4.496
27622WAT     H283109   2.722   7.231   4.512
27623WAT      O83110   2.948   0.567   8.473
27623WAT     H183111   3.032   0.579   8.525
27623WAT     H283112   2.879   0.632   8.504
27624WAT      O83113   9.640   8.195   2.869
27624WAT     H183114   9.590   8.221   2.787
27624WAT     H283115   9.677   8.102   2.857
27625WAT      O83116   5.279   1.612   2.652
27625WAT     H183117   5.214   1.673   2.698
27625WAT     H283118   5.368   1.656   2.645
27626WAT      O83119   6.755   8.032   3.420
27626WAT     H183120   6.761   8.122   3.377
27626WAT     H283121   6.821   7.970   3.377
27627WAT      O83122   5.298   8.622   6.822
27627WAT     H183123   5.316   8.533   6.865
27627WAT     H283124   5.376   8.682   6.838
27628WAT      O83125   6.931   6.055   1.784
27628WAT     H183126   6.902   6.147   1.808
27628WAT     H283127   6.858   6.009   1.733
27629WAT      O83128   5.929   3.378   2.483
27629WAT     H183129   5.953   3.306   2.418
27629WAT     H283130   5.848   3.428   2.450
27630WAT      O83131   2.766   4.864   2.831
27630WAT     H183132   2.717   4.838   2.914
27630WAT     H283133   2.798   4.958   2.838
27631WAT      O83134   0.147   3.521   2.389
27631WAT     H183135   0.128   3.598   2.450
27631WAT     H283136   0.220   3.465   2.428
27632WAT      O83137   0.498   5.273   0.546
27632WAT     H183138   0.521   5.277   0.449
27632WAT     H283139   0.562   5.331   0.598
27633WAT      O83140   6.027   9.652   4.869
27633WAT     H183141   6.120   9.618   4.879
27633WAT     H283142   6.027   9.752   4.879
27634WAT      O83143   5.484   1.379   2.902
27634WAT     H183144   5.422   1.416   2.971
27634WAT     H283145   5.528   1.296   2.937
27635WAT      O83146   4.987   7.876   0.047
27635WAT     H183147   5.031   7.933  -0.022
27635WAT     H283148   4.911   7.826   0.005
27636WAT      O83149   2.947   1.819   9.478
27636WAT     H183150   2.908   1.795   9.389
27636WAT     H283151   2.978   1.914   9.477
27637WAT      O83152   1.146   6.215   8.698
27637WAT     H183153   1.166   6.194   8.602
27637WAT     H283154   1.139   6.129   8.749
27638WAT      O83155   5.070   0.307   8.693
27638WAT     H183156   5.094   0.389   8.745
27638WAT     H283157   5.059   0.230   8.755
27639WAT      O83158   0.744   6.164   4.934
27639WAT     H183159   0.831   6.214   4.930
27639WAT     H283160   0.681   6.211   4.995
27640WAT      O83161   1.199   4.650   5.581
27640WAT     H183162   1.273   4.715   5.596
27640WAT     H283163   1.133   4.689   5.516
27641WAT      O83164   6.246   2.278   4.569
27641WAT     H183165   6.208   2.188   4.552
27641WAT     H283166   6.234   2.302   4.666
27642WAT      O83167   7.158   5.219   6.217
27642WAT     H183168   7.111   5.295   6.171
27642WAT     H283169   7.144   5.135   6.164
27643WAT      O83170   9.253   5.859   3.872
27643WAT     H183171   9.182   5.907   3.820
27643WAT     H283172   9.338   5.911   3.867
27644WAT      O83173   6.983   4.232   1.396
27644WAT     H183174   6.968   4.309   1.458
27644WAT     H283175   7.076   4.237   1.359
27645WAT      O83176   5.083   3.228   0.405
27645WAT     H183177   5.180   3.250   0.413
27645WAT     H283178   5.032   3.310   0.379
27646WAT      O83179   7.110   7.256   5.021
27646WAT     H183180   7.017   7.287   4.999
27646WAT     H283181   7.105   7.169   5.070
27647WAT      O83182   4.550   6.224   9.691
27647WAT     H183183   4.552   6.182   9.782
27647WAT     H283184   4.455   6.241   9.664
27648WAT      O83185   0.434   1.025   5.935
27648WAT     H183186   0.435   1.035   6.034
27648WAT     H283187   0.370   0.953   5.910
27649WAT      O83188   0.485   3.354   5.040
27649WAT     H183189   0.566   3.300   5.020
27649WAT     H283190   0.470   3.357   5.139
27650WAT      O83191   4.280   1.346   1.749
27650WAT     H183192   4.344   1.273   1.726
27650WAT     H283193   4.331   1.428   1.777
27651WAT      O83194   1.215   2.844   8.928
27651WAT     H183195   1.178   2.791   9.004
27651WAT     H283196   1.160   2.828   8.846
27652WAT      O83197   4.985   5.505   6.191
27652WAT     H183198   4.989   5.583   6.254
27652WAT     H283199   5.069   5.501   6.137
27653WAT      O83200   3.210   4.983   4.362
27653WAT     H183201   3.148   4.909   4.390
27653WAT     H283202   3.299   4.944   4.336
27654WAT      O83203   7.284   6.521   4.445
27654WAT     H183204   7.235   6.437   4.424
27654WAT     H283205   7.225   6.581   4.498
27655WAT      O83206   3.130   7.436   5.058
27655WAT     H183207   3.189   7.429   5.138
27655WAT     H283208   3.179   7.484   4.985
27656WAT      O83209   6.704   1.711   0.317
27656WAT     H183210   6.786   1.689   0.266
27656WAT     H283211   6.723   1.704   0.415
27657WAT      O83212   8.413   4.981   7.979
27657WAT     H183213   8.365   5.006   8.063
27657WAT     H283214   8.431   5.063   7.925
27658WAT      O83215   1.275   4.575   9.268
27658WAT     H183216   1.374   4.588   9.268
27658WAT     H283217   1.254   4.490   9.317
27659WAT      O83218   3.170   5.937   3.668
27659WAT     H183219   3.208   6.013   3.615
27659WAT     H283220   3.072   5.930   3.650
27660WAT      O83221   0.482   9.508   5.069
27660WAT     H183222   0.576   9.491   5.041
27660WAT     H283223   0.478   9.513   5.169
27661WAT      O83224   5.519   5.807   4.446
27661WAT     H183225   5.598   5.753   4.477
27661WAT     H283226   5.501   5.880   4.511
27662WAT      O83227   0.120   1.756   4.596
27662WAT     H183228   0.094   1.852   4.607
27662WAT     H283229   0.067   1.715   4.522
27663WAT      O83230   4.736   7.966   6.571
27663WAT     H183231   4.832   7.952   6.548
27663WAT     H283232   4.697   8.038   6.514
27664WAT      O83233   9.373   0.776   9.408
27664WAT     H183234   9.338   0.698   9.459
27664WAT     H283235   9.386   0.854   9.469
27665WAT      O83236   7.599   0.634   6.411
27665WAT     H183237   7.558   0.713   6.457
27665WAT     H283238   7.562   0.627   6.318
27666WAT      O83239   5.453   7.990   0.334
27666WAT     H183240   5.388   7.972   0.261
27666WAT     H283241   5.531   8.041   0.297
27667WAT      O83242   7.035   2.799   8.026
27667WAT     H183243   7.030   2.733   7.951
27667WAT     H283244   6.955   2.788   8.085
27668WAT      O83245   6.052   1.283   6.108
27668WAT     H183246   5.963   1.326   6.091
27668WAT     H283247   6.081   1.303   6.201
27669WAT      O83248   5.706   4.429   1.944
27669WAT     H183249   5.655   4.450   2.027
27669WAT     H283250   5.772   4.502   1.926
27670WAT      O83251   7.482   7.519   6.304
27670WAT     H183252   7.544   7.592   6.275
27670WAT     H283253   7.511   7.433   6.262
27671WAT      O83254   8.843   8.623   0.495
27671WAT     H183255   8.754   8.623   0.450
27671WAT     H283256   8.867   8.717   0.522
27672WAT      O83257   5.383   5.495   5.550
27672WAT     H183258   5.291   5.458   5.564
27672WAT     H283259   5.425   5.451   5.471
27673WAT      O83260   7.753   4.271   2.577
27673WAT     H183261   7.811   4.207   2.626
27673WAT     H283262   7.765   4.259   2.478
27674WAT      O83263   4.558   7.327   3.853
27674WAT     H183264   4.580   7.378   3.770
27674WAT     H283265   4.500   7.249   3.830
27675WAT      O83266   4.027   1.007   6.402
27675WAT     H183267   4.062   0.920   6.438
27675WAT     H283268   4.093   1.080   6.423
27676WAT      O83269   2.602   3.046   3.330
27676WAT     H183270   2.684   3.058   3.275
27676WAT     H283271   2.576   3.134   3.370
27677WAT      O83272   5.630   0.871   9.725
27677WAT     H183273   5.721   0.900   9.697
27677WAT     H283274   5.570   0.951   9.732
27678WAT      O83275   7.215   4.361   9.477
27678WAT     H183276   7.197   4.338   9.381
27678WAT     H283277   7.148   4.315   9.535
27679WAT      O83278   8.043   9.269   0.795
27679WAT     H183279   8.122   9.218   0.762
27679WAT     H283280   7.959   9.220   0.771
27680WAT      O83281   1.607   7.354   1.031
27680WAT     H183282   1.663   7.430   1.063
27680WAT     H283283   1.524   7.347   1.088
27681WAT      O83284   5.526   7.413   7.759
27681WAT     H183285   5.447   7.379   7.707
27681WAT     H283286   5.565   7.338   7.812
27682WAT      O83287   5.327   1.189   8.728
27682WAT     H183288   5.256   1.124   8.755
27682WAT     H283289   5.331   1.264   8.794
27683WAT      O83290   9.439   6.682   3.262
27683WAT     H183291   9.444   6.611   3.332
27683WAT     H283292   9.510   6.666   3.193
27684WAT      O83293   2.541   3.016   1.137
27684WAT     H183294   2.619   2.959   1.164
27684WAT     H283295   2.470   3.012   1.207
27685WAT      O83296   4.206   7.891   2.339
27685WAT     H183297   4.195   7.953   2.417
27685WAT     H283298   4.251   7.807   2.369
27686WAT      O83299   2.426   1.587   3.875
27686WAT     H183300   2.383   1.597   3.965
27686WAT     H283301   2.378   1.643   3.808
27687WAT      O83302   7.277   6.874   5.933
27687WAT     H183303   7.313   6.932   6.007
27687WAT     H283304   7.284   6.922   5.846
27688WAT      O83305   5.547   1.713   0.403
27688WAT     H183306   5.621   1.647   0.406
27688WAT     H283307   5.529   1.740   0.308
27689WAT      O83308   7.480   5.193   3.524
27689WAT     H183309   7.557   5.161   3.579
27689WAT     H283310   7.422   5.253   3.579
27690WAT      O83311   3.760   1.731   8.278
27690WAT     H183312   3.778   1.751   8.374
27690WAT     H283313   3.829   1.667   8.243
27691WAT      O83314   5.259   1.531   3.907
27691WAT     H183315   5.347   1.529   3.860
27691WAT     H283316   5.221   1.623   3.902
27692WAT      O83317   8.092   1.940   4.006
27692WAT     H183318   8.076   1.982   3.916
27692WAT     H283319   8.089   1.840   3.997
27693WAT      O83320   5.865   5.830   4.620
27693WAT     H183321   5.851   5.911   4.564
27693WAT     H283322   5.845   5.851   4.716
27694WAT      O83323   2.565   4.205   2.967
27694WAT     H183324   2.542   4.247   2.879
27694WAT     H283325   2.603   4.114   2.951
27695WAT      O83326   7.761   1.500   8.952
27695WAT     H183327   7.830   1.514   8.881
27695WAT     H283328   7.712   1.585   8.969
27696WAT      O83329   4.973   8.086   4.487
27696WAT     H183330   5.005   8.035   4.406
27696WAT     H283331   4.881   8.120   4.470
27697WAT      O83332   4.662   4.464   7.008
27697WAT     H183333   4.758   4.449   7.032
27697WAT     H283334   4.624   4.536   7.066
27698WAT      O83335   5.025   0.300   8.436
27698WAT     H183336   5.081   0.367   8.387
27698WAT     H283337   5.026   0.321   8.534
27699WAT      O83338   7.101   0.393   1.611
27699WAT     H183339   7.114   0.343   1.525
27699WAT     H283340   7.056   0.480   1.593
27700WAT      O83341   2.614   5.416   5.428
27700WAT     H183342   2.704   5.377   5.405
27700WAT     H283343   2.622   5.471   5.511
27701WAT      O83344   6.955   9.151   2.447
27701WAT     H183345   7.008   9.149   2.362
27701WAT     H283346   6.872   9.205   2.433
27702WAT      O83347   3.303   6.062   6.665
27702WAT     H183348   3.321   5.982   6.723
27702WAT     H283349   3.205   6.082   6.665
27703WAT      O83350   1.054   9.000   6.781
27703WAT     H183351   0.975   8.975   6.838
27703WAT     H283352   1.050   8.951   6.695
27704WAT      O83353   7.266   6.755   1.481
27704WAT     H183354   7.263   6.819   1.404
27704WAT     H283355   7.197   6.684   1.469
27705WAT      O83356   8.422   0.886   6.327
27705WAT     H183357   8.496   0.834   6.371
27705WAT     H283358   8.334   0.853   6.359
27706WAT      O83359   3.913   0.801   4.664
27706WAT     H183360   3.927   0.770   4.570
27706WAT     H283361   3.968   0.744   4.726
27707WAT      O83362   1.259   1.304   3.726
27707WAT     H183363   1.208   1.351   3.654
27707WAT     H283364   1.226   1.333   3.816
27708WAT      O83365   0.410   1.079   6.727
27708WAT     H183366   0.456   1.152   6.778
27708WAT     H283367   0.463   0.995   6.734
27709WAT      O83368   6.021   8.821   8.714
27709WAT     H183369   6.053   8.803   8.808
27709WAT     H283370   6.037   8.917   8.692
27710WAT      O83371   4.778   0.300   1.498
27710WAT     H183372   4.824   0.337   1.417
27710WAT     H283373   4.758   0.374   1.562
27711WAT      O83374   5.117   5.569   4.361
27711WAT     H183375   5.215   5.583   4.349
27711WAT     H283376   5.102   5.500   4.432
27712WAT      O83377   0.857   8.825   7.372
27712WAT     H183378   0.949   8.820   7.334
27712WAT     H283379   0.863   8.840   7.471
27713WAT      O83380   9.541   5.207   2.626
27713WAT     H183381   9.573   5.223   2.533
27713WAT     H283382   9.441   5.198   2.627
27714WAT      O83383   4.579   7.087   4.694
27714WAT     H183384   4.554   7.049   4.783
27714WAT     H283385   4.613   7.180   4.706
27715WAT      O83386   2.935   3.350   3.447
27715WAT     H183387   3.021   3.310   3.415
27715WAT     H283388   2.887   3.392   3.370
27716WAT      O83389   2.989   2.260   1.939
27716WAT     H183390   2.995   2.163   1.915
27716WAT     H283391   3.016   2.315   1.860
27717WAT      O83392   6.280   0.727   2.238
27717WAT     H183393   6.253   0.701   2.145
27717WAT     H283394   6.379   0.742   2.241
27718WAT      O83395   3.285   4.386   4.690
27718WAT     H183396   3.340   4.372   4.773
27718WAT     H283397   3.317   4.324   4.618
27719WAT      O83398   8.666   6.871   4.491
27719WAT     H183399   8.626   6.786   4.456
27719WAT     H283400   8.606   6.948   4.470
27720WAT      O83401   7.904   2.366   9.667
27720WAT     H183402   7.872   2.440   9.726
27720WAT     H283403   8.004   2.368   9.661
27721WAT      O83404   7.370   3.558   2.437
27721WAT     H183405   7.282   3.545   2.391
27721WAT     H283406   7.377   3.495   2.514
27722WAT      O83407   9.462   4.700   0.745
27722WAT     H183408   9.512   4.724   0.829
27722WAT     H283409   9.370   4.667   0.769
27723WAT      O83410   3.140   5.381   0.623
27723WAT     H183411   3.098   5.291   0.618
27723WAT     H283412   3.108   5.428   0.705
27724WAT      O83413   0.429   3.701   7.316
27724WAT     H183414   0.354   3.722   7.379
27724WAT     H283415   0.436   3.603   7.304
27725WAT      O83416   8.774   7.794   6.956
27725WAT     H183417   8.730   7.806   6.867
27725WAT     H283418   8.873   7.796   6.945
27726WAT      O83419   0.707   6.761   1.847
27726WAT     H183420   0.649   6.804   1.779
27726WAT     H283421   0.650   6.717   1.916
27727WAT      O83422   6.519   3.238   0.724
27727WAT     H183423   6.442   3.212   0.782
27727WAT     H283424   6.542   3.162   0.663
27728WAT      O83425   6.468   3.409   5.194
27728WAT     H183426   6.472   3.379   5.289
27728WAT     H283427   6.525   3.349   5.138
27729WAT      O83428   1.070   5.520   3.122
27729WAT     H183429   1.160   5.519   3.078
27729WAT     H283430   1.035   5.613   3.125
27730WAT      O83431   3.201   4.899   8.703
27730WAT     H183432   3.107   4.864   8.702
27730WAT     H283433   3.265   4.823   8.709
27731WAT      O83434   0.919   6.818   2.781
27731WAT     H183435   0.854   6.777   2.717
27731WAT     H283436   0.997   6.854   2.730
27732WAT      O83437   5.625   1.232   5.353
27732WAT     H183438   5.584   1.157   5.302
27732WAT     H283439   5.677   1.195   5.431
27733WAT      O83440   1.605   6.094   2.043
27733WAT     H183441   1.561   6.111   2.132
27733WAT     H283442   1.689   6.148   2.037
27734WAT      O83443   5.039   0.258   0.833
27734WAT     H183444   4.967   0.193   0.856
27734WAT     H283445   5.007   0.351   0.849
27735WAT      O83446   0.330   2.931   0.036
27735WAT     H183447   0.290   2.976  -0.044
27735WAT     H283448   0.259   2.884   0.087
27736WAT      O83449   4.926   5.143   6.444
27736WAT     H183450   4.994   5.094   6.389
27736WAT     H283451   4.834   5.116   6.417
27737WAT      O83452   4.585   7.509   4.037
27737WAT     H183453   4.573   7.445   3.961
27737WAT     H283454   4.657   7.575   4.013
27738WAT      O83455   5.861   7.831   5.953
27738WAT     H183456   5.948   7.809   5.909
27738WAT     H283457   5.832   7.755   6.011
27739WAT      O83458   4.421   2.714   1.320
27739WAT     H183459   4.498   2.650   1.316
27739WAT     H283460   4.414   2.751   1.413
27740WAT      O83461   2.484   0.647   5.740
27740WAT     H183462   2.548   0.674   5.668
27740WAT     H283463   2.509   0.691   5.826
27741WAT      O83464   3.026   5.574   7.326
27741WAT     H183465   3.019   5.477   7.304
27741WAT     H283466   2.967   5.627   7.265
27742WAT      O83467   5.827   7.234   4.790
27742WAT     H183468   5.727   7.239   4.798
27742WAT     H283469   5.852   7.161   4.727
27743WAT      O83470   9.460   2.240   7.263
27743WAT     H183471   9.502   2.151   7.244
27743WAT     H283472   9.528   2.312   7.248
27744WAT      O83473   8.993   2.879   4.637
27744WAT     H183474   8.934   2.936   4.695
27744WAT     H283475   9.034   2.807   4.692
27745WAT      O83476   7.564   2.107   8.119
27745WAT     H183477   7.571   2.011   8.093
27745WAT     H283478   7.488   2.150   8.069
27746WAT      O83479   7.456   9.705   5.541
27746WAT     H183480   7.511   9.624   5.519
27746WAT     H283481   7.415   9.693   5.631
27747WAT      O83482   3.284   8.993   6.537
27747WAT     H183483   3.328   8.936   6.606
27747WAT     H283484   3.309   8.959   6.446
27748WAT      O83485   8.314   0.081   9.383
27748WAT     H183486   8.380   0.057   9.453
27748WAT     H283487   8.361   0.106   9.299
27749WAT      O83488   1.428   2.788   3.173
27749WAT     H183489   1.351   2.819   3.117
27749WAT     H283490   1.419   2.826   3.265
27750WAT      O83491   9.722   3.824   0.185
27750WAT     H183492   9.822   3.820   0.180
27750WAT     H283493   9.686   3.869   0.104
27751WAT      O83494   1.505   1.673   0.804
27751WAT     H183495   1.471   1.597   0.749
27751WAT     H283496   1.573   1.639   0.869
27752WAT      O83497   1.720   5.715   5.401
27752WAT     H183498   1.781   5.764   5.339
27752WAT     H283499   1.631   5.761   5.403
27753WAT      O83500   7.971   1.676   0.498
27753WAT     H183501   7.971   1.621   0.582
27753WAT     H283502   7.963   1.615   0.419
27754WAT      O83503   2.067   2.336   6.893
27754WAT     H183504   2.026   2.316   6.982
27754WAT     H283505   1.996   2.358   6.827
27755WAT      O83506   8.115   1.924   0.187
27755WAT     H183507   8.063   1.938   0.103
27755WAT     H283508   8.161   1.835   0.184
27756WAT      O83509   4.104   3.185   4.761
27756WAT     H183510   4.151   3.205   4.676
27756WAT     H283511   4.066   3.270   4.799
27757WAT      O83512   0.361   1.982   0.698
27757WAT     H183513   0.405   1.946   0.615
27757WAT     H283514   0.303   2.059   0.673
27758WAT      O83515   4.116   0.338   6.554
27758WAT     H183516   4.069   0.256   6.588
27758WAT     H283517   4.089   0.355   6.460
27759WAT      O83518   1.396   9.114   3.557
27759WAT     H183519   1.324   9.047   3.573
27759WAT     H283520   1.426   9.109   3.462
27760WAT      O83521   3.087   5.587   0.863
27760WAT     H183522   3.056   5.681   0.847
27760WAT     H283523   3.186   5.587   0.880
27761WAT      O83524   7.960   5.402   2.822
27761WAT     H183525   7.936   5.488   2.868
27761WAT     H283526   7.924   5.325   2.874
27762WAT      O83527   0.917   8.065   1.948
27762WAT     H183528   0.994   8.092   1.891
27762WAT     H283529   0.941   8.076   2.045
27763WAT      O83530   6.934   1.527   0.199
27763WAT     H183531   7.026   1.488   0.211
27763WAT     H283532   6.926   1.567   0.108
27764WAT      O83533   2.640   8.108   3.548
27764WAT     H183534   2.562   8.058   3.585
27764WAT     H283535   2.704   8.130   3.622
27765WAT      O83536   3.215   7.256   6.558
27765WAT     H183537   3.250   7.307   6.636
27765WAT     H283538   3.119   7.232   6.574
27766WAT      O83539   6.183   7.796   5.603
27766WAT     H183540   6.280   7.787   5.584
27766WAT     H283541   6.135   7.827   5.521
27767WAT      O83542   4.884   5.052   5.459
27767WAT     H183543   4.900   4.956   5.482
27767WAT     H283544   4.859   5.102   5.541
27768WAT      O83545   0.204   6.976   2.130
27768WAT     H183546   0.144   6.909   2.174
27768WAT     H283547   0.268   6.928   2.070
27769WAT      O83548   9.356   3.984   7.072
27769WAT     H183549   9.449   3.961   7.045
27769WAT     H283550   9.291   3.930   7.018
27770WAT      O83551   1.878   4.870   6.764
27770WAT     H183552   1.863   4.854   6.666
27770WAT     H283553   1.888   4.969   6.780
27771WAT      O83554   7.377   8.761   7.789
27771WAT     H183555   7.342   8.812   7.868
27771WAT     H283556   7.305   8.752   7.721
27772WAT      O83557   2.793   4.573   5.328
27772WAT     H183558   2.751   4.482   5.318
27772WAT     H283559   2.774   4.627   5.246
27773WAT      O83560   9.100   3.194   2.365
27773WAT     H183561   9.044   3.121   2.325
27773WAT     H283562   9.120   3.171   2.460
27774WAT      O83563   9.570   8.221   9.617
27774WAT     H183564   9.669   8.224   9.600
27774WAT     H283565   9.524   8.284   9.555
27775WAT      O83566   4.014   9.610   4.670
27775WAT     H183567   3.930   9.616   4.616
27775WAT     H283568   4.006   9.669   4.751
27776WAT      O83569   3.661   8.670   5.095
27776WAT     H183570   3.644   8.727   5.176
27776WAT     H283571   3.727   8.715   5.036
27777WAT      O83572   2.153   2.968   1.678
27777WAT     H183573   2.082   3.010   1.736
27777WAT     H283574   2.173   2.876   1.713
27778WAT      O83575   4.772   3.606   7.420
27778WAT     H183576   4.795   3.566   7.509
27778WAT     H283577   4.685   3.567   7.388
27779WAT      O83578   0.698   7.843   2.625
27779WAT     H183579   0.682   7.824   2.528
27779WAT     H283580   0.753   7.925   2.635
27780WAT      O83581   6.350   1.322   7.349
27780WAT     H183582   6.289   1.382   7.402
27780WAT     H283583   6.323   1.324   7.253
27781WAT      O83584   3.023   1.561   8.085
27781WAT     H183585   3.014   1.537   7.988
27781WAT     H283586   3.029   1.660   8.095
27782WAT      O83587   9.432   5.045   8.215
27782WAT     H183588   9.531   5.059   8.220
27782WAT     H283589   9.401   5.001   8.299
27783WAT      O83590   8.409   7.636   2.079
27783WAT     H183591   8.401   7.660   2.176
27783WAT     H283592   8.498   7.594   2.063
27784WAT      O83593   0.422   5.282   8.437
27784WAT     H183594   0.363   5.330   8.373
27784WAT     H283595   0.498   5.342   8.464
27785WAT      O83596   8.208   6.822   7.870
27785WAT     H183597   8.276   6.751   7.890
27785WAT     H283598   8.254   6.910   7.859
27786WAT      O83599   9.830   7.435   1.956
27786WAT     H183600   9.863   7.368   2.022
27786WAT     H283601   9.875   7.523   1.973
27787WAT      O83602   4.447   5.826   9.812
27787WAT     H183603   4.382   5.853   9.884
27787WAT     H283604   4.399   5.820   9.725
27788WAT      O83605   1.660   2.211   3.501
27788WAT     H183606   1.601   2.292   3.502
27788WAT     H283607   1.755   2.239   3.485
27789WAT      O83608   0.231   8.284   6.331
27789WAT     H183609   0.236   8.241   6.422
27789WAT     H283610   0.140   8.322   6.317
27790WAT      O83611   8.988   2.190   6.451
27790WAT     H183612   8.977   2.096   6.418
27790WAT     H283613   9.078   2.200   6.493
27791WAT      O83614   3.126   1.474   5.580
27791WAT     H183615   3.099   1.421   5.499
27791WAT     H283616   3.078   1.561   5.580
27792WAT      O83617   8.561   7.168   7.132
27792WAT     H183618   8.539   7.249   7.077
27792WAT     H283619   8.628   7.112   7.084
27793WAT      O83620   8.162   9.682   0.980
27793WAT     H183621   8.251   9.724   0.995
27793WAT     H283622   8.105   9.695   1.061
27794WAT      O83623   6.507   8.476   2.932
27794WAT     H183624   6.484   8.398   2.873
27794WAT     H283625   6.431   8.495   2.994
27795WAT      O83626   3.098   0.350   2.533
27795WAT     H183627   3.041   0.427   2.505
27795WAT     H283628   3.178   0.344   2.473
27796WAT      O83629   5.404   1.119   2.981
27796WAT     H183630   5.335   1.123   3.053
27796WAT     H283631   5.487   1.076   3.016
27797WAT      O83632   6.010   3.212   2.196
27797WAT     H183633   6.043   3.295   2.151
27797WAT     H283634   6.030   3.132   2.138
27798WAT      O83635   6.465   3.935   5.508
27798WAT     H183636   6.553   3.900   5.474
27798WAT     H283637   6.424   3.995   5.440
27799WAT      O83638   6.490   7.497   5.207
27799WAT     H183639   6.419   7.564   5.232
27799WAT     H283640   6.542   7.531   5.129
27800WAT      O83641   5.957   9.254   7.697
27800WAT     H183642   5.971   9.346   7.732
27800WAT     H283643   5.863   9.225   7.715
27801WAT      O83644   9.657   3.996   8.689
27801WAT     H183645   9.722   4.036   8.624
27801WAT     H283646   9.668   3.897   8.691
27802WAT      O83647   0.576   5.493   1.423
27802WAT     H183648   0.510   5.457   1.489
27802WAT     H283649   0.622   5.417   1.377
27803WAT      O83650   3.288   9.218   6.757
27803WAT     H183651   3.256   9.160   6.682
27803WAT     H283652   3.239   9.305   6.755
27804WAT      O83653   7.263   2.648   4.011
27804WAT     H183654   7.284   2.679   4.104
27804WAT     H283655   7.289   2.551   4.002
27805WAT      O83656   1.330   6.199   6.707
27805WAT     H183657   1.284   6.132   6.650
27805WAT     H283658   1.390   6.255   6.651
27806WAT      O83659   3.052   4.127   3.914
27806WAT     H183660   3.050   4.037   3.871
27806WAT     H283661   3.051   4.198   3.844
27807WAT      O83662   0.449   8.501   4.033
27807WAT     H183663   0.514   8.455   3.973
27807WAT     H283664   0.496   8.570   4.088
27808WAT      O83665   5.005   2.960   3.134
27808WAT     H183666   5.033   2.985   3.226
27808WAT     H283667   5.077   2.984   3.069
27809WAT      O83668   3.879   4.644   1.482
27809WAT     H183669   3.918   4.577   1.418
27809WAT     H283670   3.923   4.733   1.468
27810WAT      O83671   2.656   7.223   3.131
27810WAT     H183672   2.619   7.269   3.050
27810WAT     H283673   2.743   7.265   3.156
27811WAT      O83674   9.603   4.617   1.789
27811WAT     H183675   9.537   4.677   1.834
27811WAT     H283676   9.587   4.523   1.818
27812WAT      O83677   2.916   2.126   7.139
27812WAT     H183678   2.895   2.028   7.132
27812WAT     H283679   2.894   2.158   7.231
27813WAT      O83680   3.004   5.152   0.480
27813WAT     H183681   3.072   5.082   0.456
27813WAT     H283682   2.952   5.178   0.399
27814WAT      O83683   1.357   6.195   4.554
27814WAT     H183684   1.452   6.184   4.525
27814WAT     H283685   1.298   6.200   4.474
27815WAT      O83686   2.552   6.212   7.284
27815WAT     H183687   2.578   6.174   7.195
27815WAT     H283688   2.468   6.167   7.315
27816WAT      O83689   2.861   5.279   9.739
27816WAT     H183690   2.818   5.362   9.775
27816WAT     H283691   2.873   5.213   9.814
27817WAT      O83692   1.887   5.108   2.367
27817WAT     H183693   1.928   5.017   2.363
27817WAT     H283694   1.954   5.176   2.335
27818WAT      O83695   0.690   8.205   1.102
27818WAT     H183696   0.781   8.246   1.094
27818WAT     H283697   0.638   8.253   1.172
27819WAT      O83698   1.045   6.422   3.808
27819WAT     H183699   1.128   6.386   3.765
27819WAT     H283700   1.069   6.468   3.894
27820WAT      O83701   7.103   4.245   7.956
27820WAT     H183702   7.185   4.268   7.905
27820WAT     H283703   7.031   4.215   7.893
27821WAT      O83704   0.254   9.369   5.630
27821WAT     H183705   0.275   9.369   5.532
27821WAT     H283706   0.167   9.322   5.645
27822WAT      O83707   3.249   0.590   8.987
27822WAT     H183708   3.250   0.673   8.931
27822WAT     H283709   3.317   0.526   8.952
27823WAT      O83710   4.181   6.941   8.957
27823WAT     H183711   4.147   7.035   8.950
27823WAT     H283712   4.131   6.882   8.893
27824WAT      O83713   9.160   7.616   3.828
27824WAT     H183714   9.221   7.692   3.849
27824WAT     H283715   9.121   7.580   3.913
27825WAT      O83716   6.622   4.550   1.870
27825WAT     H183717   6.660   4.460   1.853
27825WAT     H283718   6.567   4.579   1.791
27826WAT      O83719   3.645   0.846   0.841
27826WAT     H183720   3.598   0.759   0.858
27826WAT     H283721   3.716   0.860   0.910
27827WAT      O83722   5.339   5.103   6.533
27827WAT     H183723   5.425   5.067   6.570
27827WAT     H283724   5.275   5.028   6.519
27828WAT      O83725   3.620   6.892   9.811
27828WAT     H183726   3.558   6.879   9.888
27828WAT     H283727   3.580   6.955   9.745
27829WAT      O83728   8.880   2.521   0.084
27829WAT     H183729   8.847   2.611   0.112
27829WAT     H283730   8.971   2.530   0.043
27830WAT      O83731   1.909   1.816   1.589
27830WAT     H183732   1.879   1.769   1.672
27830WAT     H283733   2.009   1.820   1.587
27831WAT      O83734   8.118   3.018   8.739
27831WAT     H183735   8.140   2.921   8.732
27831WAT     H283736   8.202   3.072   8.735
27832WAT      O83737   0.886   4.856   9.099
27832WAT     H183738   0.907   4.897   9.011
27832WAT     H283739   0.841   4.924   9.157
27833WAT      O83740   4.364   5.428   7.377
27833WAT     H183741   4.288   5.373   7.411
27833WAT     H283742   4.435   5.434   7.447
27834WAT      O83743   8.270   4.101   4.238
27834WAT     H183744   8.220   4.017   4.256
27834WAT     H283745   8.224   4.154   4.167
27835WAT      O83746   0.558   3.917   4.078
27835WAT     H183747   0.507   3.834   4.054
27835WAT     H283748   0.592   3.961   3.995
27836WAT      O83749   9.595   0.930   8.445
27836WAT     H183750   9.679   0.879   8.425
27836WAT     H283751   9.552   0.891   8.527
27837WAT      O83752   3.663   1.991   0.998
27837WAT     H183753   3.601   2.060   1.036
27837WAT     H283754   3.757   2.013   1.024
27838WAT      O83755   8.831   1.032   8.470
27838WAT     H183756   8.921   0.988   8.471
27838WAT     H283757   8.760   0.962   8.472
27839WAT      O83758   1.843   5.784   5.979
27839WAT     H183759   1.890   5.872   5.987
27839WAT     H283760   1.908   5.714   5.949
27840WAT      O83761   5.821   0.557   7.462
27840WAT     H183762   5.843   0.555   7.365
27840WAT     H283763   5.722   0.549   7.475
27841WAT      O83764   2.729   8.034   0.218
27841WAT     H183765   2.683   7.974   0.152
27841WAT     H283766   2.684   8.123   0.220
27842WAT      O83767   9.340   1.110   2.404
27842WAT     H183768   9.281   1.127   2.482
27842WAT     H283769   9.360   1.196   2.357
27843WAT      O83770   1.175   6.171   7.118
27843WAT     H183771   1.244   6.214   7.060
27843WAT     H283772   1.097   6.232   7.130
27844WAT      O83773   0.560   1.809   5.929
27844WAT     H183774   0.636   1.867   5.899
27844WAT     H283775   0.485   1.816   5.863
27845WAT      O83776   8.347   5.227   5.033
27845WAT     H183777   8.414   5.282   4.982
27845WAT     H283778   8.387   5.138   5.054
27846WAT      O83779   9.099   2.443   9.420
27846WAT     H183780   9.000   2.461   9.422
27846WAT     H283781   9.127   2.426   9.325
27847WAT      O83782   6.003   6.948   6.726
27847WAT     H183783   5.921   6.993   6.761
27847WAT     H283784   6.012   6.857   6.767
27848WAT      O83785   4.967   7.133   2.701
27848WAT     H183786   4.924   7.049   2.667
27848WAT     H283787   5.011   7.115   2.789
27849WAT      O83788   8.844   0.544   3.140
27849WAT     H183789   8.789   0.616   3.098
27849WAT     H283790   8.828   0.544   3.239
27850WAT      O83791   6.744   1.525   3.235
27850WAT     H183792   6.798   1.609   3.240
27850WAT     H283793   6.648   1.549   3.221
27851WAT      O83794   8.058   3.027   6.587
27851WAT     H183795   8.117   2.974   6.647
27851WAT     H283796   7.967   2.984   6.583
27852WAT      O83797   6.840   4.481   6.936
27852WAT     H183798   6.797   4.401   6.892
27852WAT     H283799   6.801   4.564   6.897
27853WAT      O83800   5.804   4.372   3.669
27853WAT     H183801   5.792   4.411   3.760
27853WAT     H283802   5.894   4.400   3.633
27854WAT      O83803   1.223   8.761   5.743
27854WAT     H183804   1.124   8.772   5.755
27854WAT     H283805   1.241   8.700   5.666
27855WAT      O83806   6.176   9.351   0.871
27855WAT     H183807   6.092   9.297   0.874
27855WAT     H283808   6.155   9.444   0.838
27856WAT      O83809   3.156   4.124   5.241
27856WAT     H183810   3.077   4.154   5.188
27856WAT     H283811   3.135   4.127   5.339
27857WAT      O83812   1.971   2.979   2.824
27857WAT     H183813   2.065   3.009   2.814
27857WAT     H283814   1.911   3.038   2.770
27858WAT      O83815   8.642   4.793   0.065
27858WAT     H183816   8.593   4.876   0.038
27858WAT     H283817   8.576   4.723   0.093
27859WAT      O83818   1.052   8.266   2.527
27859WAT     H183819   1.017   8.321   2.451
27859WAT     H283820   0.992   8.188   2.542
27860WAT      O83821   2.538   8.613   2.707
27860WAT     H183822   2.605   8.603   2.634
27860WAT     H283823   2.476   8.535   2.707
27861WAT      O83824   4.735   8.299   8.962
27861WAT     H183825   4.724   8.216   8.907
27861WAT     H283826   4.829   8.331   8.956
27862WAT      O83827   8.254   3.964   6.992
27862WAT     H183828   8.162   4.000   6.975
27862WAT     H283829   8.261   3.935   7.087
27863WAT      O83830   8.806   5.255   9.710
27863WAT     H183831   8.803   5.328   9.779
27863WAT     H283832   8.891   5.204   9.719
27864WAT      O83833   9.559   5.313   8.725
27864WAT     H183834   9.501   5.303   8.645
27864WAT     H283835   9.520   5.262   8.802
27865WAT      O83836   6.201   1.757   4.656
27865WAT     H183837   6.103   1.776   4.645
27865WAT     H283838   6.251   1.843   4.656
27866WAT      O83839   3.087   9.239   7.067
27866WAT     H183840   3.158   9.308   7.086
27866WAT     H283841   3.005   9.261   7.118
27867WAT      O83842   9.371   7.188   7.575
27867WAT     H183843   9.387   7.140   7.488
27867WAT     H283844   9.327   7.276   7.556
27868WAT      O83845   7.876   4.838   2.952
27868WAT     H183846   7.931   4.895   3.013
27868WAT     H283847   7.795   4.805   3.002
27869WAT      O83848   2.487   9.395   6.978
27869WAT     H183849   2.440   9.307   6.980
27869WAT     H283850   2.434   9.460   6.924
27870WAT      O83851   7.043   3.461   8.149
27870WAT     H183852   7.009   3.549   8.115
27870WAT     H283853   6.972   3.391   8.139
27871WAT      O83854   9.733   0.105   9.388
27871WAT     H183855   9.818   0.065   9.352
27871WAT     H283856   9.755   0.161   9.468
27872WAT      O83857   1.281   9.466   9.230
27872WAT     H183858   1.376   9.443   9.250
27872WAT     H283859   1.224   9.444   9.309
27873WAT      O83860   4.936   7.537   3.436
27873WAT     H183861   4.980   7.494   3.515
27873WAT     H283862   4.931   7.636   3.450
27874WAT      O83863   4.354   9.040   0.242
27874WAT     H183864   4.314   9.117   0.292
27874WAT     H283865   4.448   9.062   0.216
27875WAT      O83866   9.292   9.473   9.633
27875WAT     H183867   9.276   9.441   9.726
27875WAT     H283868   9.290   9.395   9.570
27876WAT      O83869   5.914   2.078   2.130
27876WAT     H183870   5.862   2.158   2.160
27876WAT     H283871   5.856   2.020   2.073
27877WAT      O83872   9.586   6.699   7.857
27877WAT     H183873   9.566   6.694   7.759
27877WAT     H283874   9.559   6.614   7.902
27878WAT      O83875   8.385   9.772   2.773
27878WAT     H183876   8.385   9.701   2.704
27878WAT     H283877   8.330   9.743   2.851
27879WAT      O83878   9.199   8.528   2.602
27879WAT     H183879   9.189   8.428   2.596
27879WAT     H283880   9.290   8.551   2.635
27880WAT      O83881   6.811   9.595   5.733
27880WAT     H183882   6.777   9.677   5.779
27880WAT     H283883   6.734   9.535   5.711
27881WAT      O83884   3.251   2.259   7.702
27881WAT     H183885   3.337   2.208   7.703
27881WAT     H283886   3.179   2.201   7.663
27882WAT      O83887   1.321   2.097   3.936
27882WAT     H183888   1.229   2.128   3.914
27882WAT     H283889   1.317   2.030   4.011
27883WAT      O83890   1.822   3.965   2.407
27883WAT     H183891   1.875   4.039   2.366
27883WAT     H283892   1.884   3.900   2.451
27884WAT      O83893   6.814   5.029   8.453
27884WAT     H183894   6.799   5.023   8.354
27884WAT     H283895   6.870   4.952   8.483
27885WAT      O83896   7.538   9.406   3.220
27885WAT     H183897   7.536   9.408   3.320
27885WAT     H283898   7.451   9.442   3.185
27886WAT      O83899   4.113   7.973   4.586
27886WAT     H183900   4.147   8.062   4.556
27886WAT     H283901   4.017   7.964   4.561
27887WAT      O83902   3.697   8.332   5.762
27887WAT     H183903   3.638   8.331   5.843
27887WAT     H283904   3.785   8.291   5.784
27888WAT      O83905   3.025   1.222   4.875
27888WAT     H183906   2.948   1.173   4.917
27888WAT     H283907   3.057   1.172   4.796
27889WAT      O83908   5.742   3.306   3.239
27889WAT     H183909   5.766   3.266   3.151
27889WAT     H283910   5.652   3.349   3.234
27890WAT      O83911   5.435   9.389   1.733
27890WAT     H183912   5.379   9.464   1.697
27890WAT     H283913   5.529   9.421   1.746
27891WAT      O83914   0.290   9.292   9.864
27891WAT     H183915   0.267   9.341   9.780
27891WAT     H283916   0.386   9.265   9.863
27892WAT      O83917   4.568   2.324   6.544
27892WAT     H183918   4.493   2.389   6.548
27892WAT     H283919   4.609   2.326   6.453
27893WAT      O83920   6.921   8.957   2.769
27893WAT     H183921   6.883   8.887   2.830
27893WAT     H283922   6.889   8.940   2.675
27894WAT      O83923   0.510   4.299   7.626
27894WAT     H183924   0.554   4.257   7.706
27894WAT     H283925   0.578   4.311   7.554
27895WAT      O83926   1.657   8.366   8.624
27895WAT     H183927   1.664   8.314   8.709
27895WAT     H283928   1.613   8.310   8.553
27896WAT      O83929   8.135   2.901   2.328
27896WAT     H183930   8.113   2.955   2.247
27896WAT     H283931   8.217   2.847   2.311
27897WAT      O83932   2.014   6.385   5.325
27897WAT     H183933   2.087   6.327   5.360
27897WAT     H283934   1.990   6.356   5.233
27898WAT      O83935   1.065   0.039   4.656
27898WAT     H183936   1.143   0.099   4.635
27898WAT     H283937   1.019   0.073   4.738
27899WAT      O83938   8.344   6.935   3.946
27899WAT     H183939   8.405   7.004   3.985
27899WAT     H283940   8.283   6.978   3.880
27900WAT      O83941   1.337   8.522   2.501
27900WAT     H183942   1.266   8.567   2.448
27900WAT     H283943   1.325   8.423   2.496
27901WAT      O83944   4.477   1.830   0.524
27901WAT     H183945   4.438   1.812   0.615
27901WAT     H283946   4.419   1.788   0.454
27902WAT      O83947   7.277   6.025   1.476
27902WAT     H183948   7.319   6.100   1.426
27902WAT     H283949   7.254   6.055   1.568
27903WAT      O83950   5.524   2.323   5.523
27903WAT     H183951   5.502   2.228   5.501
27903WAT     H283952   5.458   2.358   5.590
27904WAT      O83953   1.495   0.307   5.073
27904WAT     H183954   1.447   0.344   4.993
27904WAT     H283955   1.593   0.304   5.054
27905WAT      O83956   6.235   0.488   3.332
27905WAT     H183957   6.296   0.472   3.255
27905WAT     H283958   6.156   0.427   3.325
27906WAT      O83959   5.534   3.186   7.403
27906WAT     H183960   5.439   3.218   7.401
27906WAT     H283961   5.537   3.087   7.394
27907WAT      O83962   5.170   8.464   2.769
27907WAT     H183963   5.080   8.508   2.775
27907WAT     H283964   5.203   8.469   2.675
27908WAT      O83965   7.777   2.489   3.597
27908WAT     H183966   7.744   2.455   3.686
27908WAT     H283967   7.700   2.500   3.535
27909WAT      O83968   2.775   8.732   5.264
27909WAT     H183969   2.684   8.772   5.277
27909WAT     H283970   2.765   8.636   5.236
27910WAT      O83971   2.560   3.121   4.541
27910WAT     H183972   2.631   3.161   4.484
27910WAT     H283973   2.577   3.023   4.551
27911WAT      O83974   8.479   4.974   4.697
27911WAT     H183975   8.569   4.951   4.734
27911WAT     H283976   8.471   5.074   4.688
27912WAT      O83977   4.464   2.962   0.879
27912WAT     H183978   4.477   2.945   0.977
27912WAT     H283979   4.464   2.875   0.830
27913WAT      O83980   4.688   1.213   3.166
27913WAT     H183981   4.600   1.227   3.121
27913WAT     H283982   4.676   1.153   3.246
27914WAT      O83983   3.738   6.233   4.479
27914WAT     H183984   3.694   6.152   4.518
27914WAT     H283985   3.671   6.308   4.473
27915WAT      O83986   2.050   1.467   7.061
27915WAT     H183987   2.072   1.371   7.046
27915WAT     H283988   2.133   1.516   7.090
27916WAT      O83989   2.807   4.680   9.087
27916WAT     H183990   2.886   4.653   9.142
27916WAT     H283991   2.732   4.616   9.101
27917WAT      O83992   8.922   3.123   3.315
27917WAT     H183993   8.948   3.193   3.381
27917WAT     H283994   8.995   3.113   3.248
27918WAT      O83995   4.945   3.569   3.212
27918WAT     H183996   5.043   3.558   3.228
27918WAT     H283997   4.925   3.553   3.115
27919WAT      O83998   8.256   2.886   6.371
27919WAT     H183999   8.289   2.828   6.296
27919WAT     H284000   8.249   2.980   6.339
27920WAT      O84001   4.821   3.201   3.448
27920WAT     H184002   4.861   3.292   3.445
27920WAT     H284003   4.747   3.199   3.517
27921WAT      O84004   8.598   2.930   1.562
27921WAT     H184005   8.514   2.968   1.524
27921WAT     H284006   8.636   2.994   1.629
27922WAT      O84007   5.894   2.160   5.029
27922WAT     H184008   5.842   2.186   4.947
27922WAT     H284009   5.878   2.226   5.102
27923WAT      O84010   8.591   9.821   2.619
27923WAT     H184011   8.518   9.805   2.685
27923WAT     H284012   8.678   9.832   2.667
27924WAT      O84013   8.706   6.767   1.786
27924WAT     H184014   8.788   6.715   1.762
27924WAT     H284015   8.716   6.861   1.753
27925WAT      O84016   8.913   4.520   4.750
27925WAT     H184017   8.833   4.462   4.738
27925WAT     H284018   8.884   4.615   4.758
27926WAT      O84019   9.075   5.168   3.273
27926WAT     H184020   9.139   5.140   3.344
27926WAT     H284021   9.116   5.241   3.218
27927WAT      O84022   8.073   3.329   4.128
27927WAT     H184023   8.103   3.425   4.123
27927WAT     H284024   8.120   3.276   4.057
27928WAT      O84025   4.201   8.941   0.878
27928WAT     H184026   4.241   8.993   0.802
27928WAT     H284027   4.229   8.982   0.965
27929WAT      O84028   9.426   2.410   7.678
27929WAT     H184029   9.499   2.477   7.669
27929WAT     H284030   9.369   2.411   7.596
27930WAT      O84031   1.394   1.351   3.414
27930WAT     H184032   1.332   1.279   3.447
27930WAT     H284033   1.407   1.340   3.315
27931WAT      O84034   6.379   9.078   9.379
27931WAT     H184035   6.291   9.123   9.370
27931WAT     H284036   6.385   9.033   9.468
27932WAT      O84037   1.630   8.560   0.165
27932WAT     H184038   1.691   8.630   0.201
27932WAT     H284039   1.628   8.482   0.229
27933WAT      O84040   8.180   1.172   1.854
27933WAT     H184041   8.234   1.114   1.914
27933WAT     H284042   8.221   1.263   1.849
27934WAT      O84043   7.579   0.060   9.493
27934WAT     H184044   7.676   0.051   9.514
27934WAT     H284045   7.561   0.150   9.453
27935WAT      O84046   8.837   4.122   5.237
27935WAT     H184047   8.817   4.029   5.269
27935WAT     H284048   8.863   4.179   5.314
27936WAT      O84049   8.864   6.253   6.708
27936WAT     H184050   8.800   6.298   6.645
27936WAT     H284051   8.828   6.163   6.733
27937WAT      O84052   1.452   5.344   3.758
27937WAT     H184053   1.478   5.373   3.851
27937WAT     H284054   1.504   5.397   3.691
27938WAT      O84055   9.130   6.867   8.508
27938WAT     H184056   9.162   6.957   8.479
27938WAT     H284057   9.095   6.874   8.602
27939WAT      O84058   5.243   7.616   3.320
27939WAT     H184059   5.190   7.601   3.404
27939WAT     H284060   5.181   7.638   3.245
27940WAT      O84061   6.869   5.479   2.086
27940WAT     H184062   6.877   5.398   2.028
27940WAT     H284063   6.888   5.455   2.181
27941WAT      O84064   1.844   5.313   5.351
27941WAT     H184065   1.773   5.379   5.373
27941WAT     H284066   1.849   5.245   5.425
27942WAT      O84067   8.117   6.099   9.305
27942WAT     H184068   8.187   6.064   9.367
27942WAT     H284069   8.141   6.192   9.277
27943WAT      O84070   5.174   2.778   5.904
27943WAT     H184071   5.101   2.745   5.964
27943WAT     H284072   5.231   2.844   5.953
27944WAT      O84073   6.593   2.516   9.744
27944WAT     H184074   6.566   2.613   9.741
27944WAT     H284075   6.585   2.482   9.837
27945WAT      O84076   3.840   8.068   3.475
27945WAT     H184077   3.865   8.118   3.558
27945WAT     H284078   3.815   8.133   3.404
27946WAT      O84079   9.718   9.683   4.430
27946WAT     H184080   9.745   9.587   4.419
27946WAT     H284081   9.650   9.707   4.361
27947WAT      O84082   5.037   1.666   8.003
27947WAT     H184083   5.005   1.611   7.926
27947WAT     H284084   5.107   1.616   8.053
27948WAT      O84085   4.377   0.038   6.053
27948WAT     H184086   4.473   0.013   6.066
27948WAT     H284087   4.346   0.006   5.963
27949WAT      O84088   5.376   6.361   1.605
27949WAT     H184089   5.389   6.431   1.534
27949WAT     H284090   5.451   6.366   1.671
27950WAT      O84091   3.303   3.872   6.317
27950WAT     H184092   3.379   3.937   6.320
27950WAT     H284093   3.293   3.835   6.225
27951WAT      O84094   2.834   5.949   5.967
27951WAT     H184095   2.805   5.965   6.061
27951WAT     H284096   2.839   6.037   5.919
27952WAT      O84097   2.347   8.853   7.421
27952WAT     H184098   2.381   8.922   7.357
27952WAT     H284099   2.281   8.895   7.483
27953WAT      O84100   1.422   1.697   5.482
27953WAT     H184101   1.485   1.765   5.518
27953WAT     H284102   1.344   1.742   5.439
27954WAT      O84103   9.139   3.299   3.766
27954WAT     H184104   9.085   3.326   3.845
27954WAT     H284105   9.179   3.209   3.782
27955WAT      O84106   1.517   0.134   4.115
27955WAT     H184107   1.609   0.095   4.116
27955WAT     H284108   1.514   0.212   4.052
27956WAT      O84109   8.236   4.659   4.049
27956WAT     H184110   8.275   4.736   4.099
27956WAT     H284111   8.138   4.654   4.066
27957WAT      O84112   5.843   1.880   1.573
27957WAT     H184113   5.811   1.964   1.530
27957WAT     H284114   5.783   1.857   1.649
27958WAT      O84115   8.192   9.392   2.837
27958WAT     H184116   8.217   9.388   2.740
27958WAT     H284117   8.112   9.335   2.853
27959WAT      O84118   3.967   6.720   1.146
27959WAT     H184119   3.872   6.702   1.121
27959WAT     H284120   3.975   6.725   1.246
27960WAT      O84121   7.726   6.438   8.435
27960WAT     H184122   7.754   6.532   8.419
27960WAT     H284123   7.664   6.434   8.513
27961WAT      O84124   4.906   4.306   6.366
27961WAT     H184125   4.897   4.304   6.465
27961WAT     H284126   4.876   4.218   6.328
27962WAT      O84127   9.029   1.309   4.568
27962WAT     H184128   8.943   1.276   4.530
27962WAT     H284129   9.021   1.316   4.667
27963WAT      O84130   6.937   7.813   7.904
27963WAT     H184131   6.891   7.738   7.952
27963WAT     H284132   6.918   7.806   7.806
27964WAT      O84133   9.046   0.313   6.738
27964WAT     H184134   8.992   0.332   6.656
27964WAT     H284135   9.143   0.332   6.720
27965WAT      O84136   4.173   9.341   7.157
27965WAT     H184137   4.165   9.394   7.073
27965WAT     H284138   4.166   9.244   7.136
27966WAT      O84139   9.343   5.985   9.186
27966WAT     H184140   9.422   5.925   9.190
27966WAT     H284141   9.368   6.072   9.143
27967WAT      O84142   9.018   8.144   7.949
27967WAT     H184143   9.105   8.095   7.957
27967WAT     H284144   8.946   8.091   7.992
27968WAT      O84145   4.270   4.818   7.420
27968WAT     H184146   4.276   4.757   7.499
27968WAT     H284147   4.325   4.781   7.345
27969WAT      O84148   7.660   1.730   9.018
27969WAT     H184149   7.641   1.759   9.112
27969WAT     H284150   7.574   1.712   8.970
27970WAT      O84151   5.487   5.258   7.912
27970WAT     H184152   5.470   5.301   8.001
27970WAT     H284153   5.418   5.291   7.847
27971WAT      O84154   0.236   0.532   4.523
27971WAT     H184155   0.158   0.514   4.462
27971WAT     H284156   0.287   0.448   4.538
27972WAT      O84157   6.767   7.336   0.443
27972WAT     H184158   6.687   7.375   0.398
27972WAT     H284159   6.808   7.404   0.504
27973WAT      O84160   0.803   2.831   3.683
27973WAT     H184161   0.799   2.919   3.730
27973WAT     H284162   0.713   2.787   3.688
27974WAT      O84163   9.324   9.204   0.476
27974WAT     H184164   9.409   9.256   0.476
27974WAT     H284165   9.332   9.126   0.538
27975WAT      O84166   1.448   4.158   7.211
27975WAT     H184167   1.526   4.149   7.273
27975WAT     H284168   1.445   4.080   7.149
27976WAT      O84169   5.442   4.484   6.275
27976WAT     H184170   5.522   4.544   6.278
27976WAT     H284171   5.410   4.466   6.368
27977WAT      O84172   2.591   2.125   5.146
27977WAT     H184173   2.513   2.096   5.091
27977WAT     H284174   2.656   2.174   5.089
27978WAT      O84175   8.391   6.641   3.553
27978WAT     H184176   8.300   6.617   3.587
27978WAT     H284177   8.434   6.706   3.616
27979WAT      O84178   2.969   2.574   4.343
27979WAT     H184179   2.922   2.513   4.279
27979WAT     H284180   3.046   2.524   4.385
27980WAT      O84181   1.716   0.340   0.268
27980WAT     H184182   1.636   0.377   0.315
27980WAT     H284183   1.735   0.248   0.302
27981WAT      O84184   0.346   1.789   6.633
27981WAT     H184185   0.264   1.843   6.647
27981WAT     H284186   0.345   1.749   6.541
27982WAT      O84187   6.056   6.707   5.891
27982WAT     H184188   6.034   6.756   5.975
27982WAT     H284189   6.064   6.772   5.815
27983WAT      O84190   5.801   3.656   0.197
27983WAT     H184191   5.858   3.575   0.188
27983WAT     H284192   5.705   3.631   0.189
27984WAT      O84193   2.030   4.365   0.498
27984WAT     H184194   1.969   4.381   0.576
27984WAT     H284195   1.980   4.381   0.413
27985WAT      O84196   8.615   5.026   2.262
27985WAT     H184197   8.518   5.046   2.277
27985WAT     H284198   8.626   4.929   2.240
27986WAT      O84199   4.552   9.502   2.587
27986WAT     H184200   4.514   9.412   2.610
27986WAT     H284201   4.528   9.525   2.493
27987WAT      O84202   3.066   5.648   8.350
27987WAT     H184203   3.141   5.704   8.314
27987WAT     H284204   3.104   5.579   8.413
27988WAT      O84205   3.725   5.210   2.853
27988WAT     H184206   3.770   5.292   2.889
27988WAT     H284207   3.630   5.231   2.830
27989WAT      O84208   2.608   5.902   8.825
27989WAT     H184209   2.540   5.926   8.756
27989WAT     H284210   2.695   5.878   8.780
27990WAT      O84211   1.884   4.926   8.767
27990WAT     H184212   1.892   5.019   8.802
27990WAT     H284213   1.973   4.897   8.731
27991WAT      O84214   4.123   3.074   8.111
27991WAT     H184215   4.072   3.060   8.196
27991WAT     H284216   4.221   3.074   8.131
27992WAT      O84217   6.557   9.406   6.556
27992WAT     H184218   6.558   9.445   6.463
27992WAT     H284219   6.514   9.471   6.619
27993WAT      O84220   8.119   5.606   5.484
27993WAT     H184221   8.162   5.691   5.454
27993WAT     H284222   8.150   5.531   5.426
27994WAT      O84223   5.547   2.658   5.439
27994WAT     H184224   5.632   2.651   5.492
27994WAT     H284225   5.514   2.566   5.418
27995WAT      O84226   1.174   0.041   4.379
27995WAT     H184227   1.132   0.039   4.470
27995WAT     H284228   1.205  -0.050   4.354
27996WAT      O84229   7.715   7.411   0.979
27996WAT     H184230   7.646   7.453   1.038
27996WAT     H284231   7.687   7.418   0.884
27997WAT      O84232   6.710   5.242   1.967
27997WAT     H184233   6.612   5.262   1.973
27997WAT     H284234   6.727   5.151   2.004
27998WAT      O84235   1.065   1.754   4.267
27998WAT     H184236   1.009   1.704   4.201
27998WAT     H284237   1.112   1.689   4.327
27999WAT      O84238   7.676   2.887   7.605
27999WAT     H184239   7.657   2.943   7.524
27999WAT     H284240   7.658   2.791   7.584
28000WAT      O84241   7.605   5.831   7.208
28000WAT     H184242   7.692   5.788   7.183
28000WAT     H284243   7.603   5.847   7.307
28001WAT      O84244   3.006   2.822   9.486
28001WAT     H184245   2.925   2.873   9.458
28001WAT     H284246   3.069   2.883   9.534
28002WAT      O84247   2.202   4.058   7.965
28002WAT     H184248   2.171   3.965   7.986
28002WAT     H284249   2.155   4.123   8.024
28003WAT      O84250   8.013   8.293   9.182
28003WAT     H184251   7.949   8.275   9.256
28003WAT     H284252   8.061   8.208   9.159
28004WAT      O84253   3.353   3.751   9.836
28004WAT     H184254   3.307   3.835   9.864
28004WAT     H284255   3.362   3.749   9.736
28005WAT      O84256   0.882   8.286   5.724
28005WAT     H184257   0.963   8.311   5.671
28005WAT     H284258   0.867   8.187   5.718
28006WAT      O84259   0.691   7.770   9.398
28006WAT     H184260   0.778   7.793   9.356
28006WAT     H284261   0.657   7.684   9.359
28007WAT      O84262   2.914   6.222   0.702
28007WAT     H184263   2.841   6.277   0.661
28007WAT     H284264   2.950   6.270   0.782
28008WAT      O84265   1.697   0.084   8.203
28008WAT     H184266   1.661   0.043   8.120
28008WAT     H284267   1.628   0.146   8.242
28009WAT      O84268   0.195   2.734   8.424
28009WAT     H184269   0.285   2.702   8.395
28009WAT     H284270   0.158   2.796   8.354
28010WAT      O84271   2.396   2.381   5.836
28010WAT     H184272   2.421   2.300   5.889
28010WAT     H284273   2.442   2.379   5.747
28011WAT      O84274   3.848   0.680   3.206
28011WAT     H184275   3.776   0.621   3.171
28011WAT     H284276   3.837   0.692   3.305
28012WAT      O84277   2.871   8.508   1.139
28012WAT     H184278   2.882   8.421   1.091
28012WAT     H284279   2.785   8.551   1.110
28013WAT      O84280   7.438   1.701   6.671
28013WAT     H184281   7.456   1.682   6.575
28013WAT     H284282   7.343   1.731   6.682
28014WAT      O84283   4.231   3.315   9.568
28014WAT     H184284   4.144   3.271   9.594
28014WAT     H284285   4.270   3.360   9.648
28015WAT      O84286   9.101   2.194   1.024
28015WAT     H184287   9.125   2.194   1.121
28015WAT     H284288   9.173   2.239   0.971
28016WAT      O84289   7.972   7.909   0.296
28016WAT     H184290   7.983   7.846   0.219
28016WAT     H284291   7.875   7.933   0.306
28017WAT      O84292   5.250   4.809   7.640
28017WAT     H184293   5.294   4.720   7.635
28017WAT     H284294   5.253   4.853   7.550
28018WAT      O84295   8.481   3.091   8.705
28018WAT     H184296   8.484   3.051   8.797
28018WAT     H284297   8.497   3.020   8.637
28019WAT      O84298   1.993   0.784   6.398
28019WAT     H184299   2.017   0.703   6.345
28019WAT     H284300   1.944   0.849   6.339
28020WAT      O84301   2.743   5.222   3.745
28020WAT     H184302   2.703   5.177   3.825
28020WAT     H284303   2.720   5.319   3.746
28021WAT      O84304   4.088   1.196   7.899
28021WAT     H184305   4.174   1.208   7.851
28021WAT     H284306   4.058   1.100   7.892
28022WAT      O84307   1.666   7.508   7.525
28022WAT     H184308   1.712   7.457   7.597
28022WAT     H284309   1.674   7.458   7.439
28023WAT      O84310   7.017   8.199   5.221
28023WAT     H184311   7.101   8.153   5.191
28023WAT     H284312   6.998   8.276   5.160
28024WAT      O84313   4.006   6.103   8.531
28024WAT     H184314   3.980   6.122   8.626
28024WAT     H284315   4.055   6.016   8.526
28025WAT      O84316   3.335   4.521   1.655
28025WAT     H184317   3.425   4.558   1.678
28025WAT     H284318   3.346   4.440   1.598
28026WAT      O84319   8.928   4.658   9.309
28026WAT     H184320   9.013   4.662   9.256
28026WAT     H284321   8.879   4.575   9.286
28027WAT      O84322   3.075   2.760   7.723
28027WAT     H184323   3.162   2.808   7.717
28027WAT     H284324   3.090   2.669   7.762
28028WAT      O84325   8.631   5.614   8.067
28028WAT     H184326   8.594   5.560   8.142
28028WAT     H284327   8.717   5.657   8.095
28029WAT      O84328   7.218   2.169   0.872
28029WAT     H184329   7.181   2.143   0.783
28029WAT     H284330   7.208   2.268   0.883
28030WAT      O84331   4.512   4.192   3.837
28030WAT     H184332   4.466   4.108   3.866
28030WAT     H284333   4.611   4.177   3.836
28031WAT      O84334   0.854   8.918   3.217
28031WAT     H184335   0.915   8.964   3.153
28031WAT     H284336   0.907   8.858   3.277
28032WAT      O84337   2.289   5.653   9.229
28032WAT     H184338   2.242   5.708   9.160
28032WAT     H284339   2.300   5.707   9.312
28033WAT      O84340   5.615   1.203   5.035
28033WAT     H184341   5.532   1.255   5.017
28033WAT     H284342   5.646   1.221   5.129
28034WAT      O84343   7.111   1.637   2.722
28034WAT     H184344   7.127   1.728   2.761
28034WAT     H284345   7.039   1.643   2.653
28035WAT      O84346   9.572   0.865   5.714
28035WAT     H184347   9.574   0.910   5.804
28035WAT     H284348   9.477   0.856   5.684
28036WAT      O84349   6.706   0.721   0.592
28036WAT     H184350   6.648   0.762   0.663
28036WAT     H284351   6.770   0.657   0.634
28037WAT      O84352   4.389   6.169   7.221
28037WAT     H184353   4.483   6.204   7.217
28037WAT     H284354   4.325   6.245   7.218
28038WAT      O84355   2.181   7.943   2.709
28038WAT     H184356   2.123   7.864   2.687
28038WAT     H284357   2.128   8.011   2.758
28039WAT      O84358   3.096   5.820   2.438
28039WAT     H184359   3.026   5.876   2.482
28039WAT     H284360   3.162   5.879   2.392
28040WAT      O84361   3.109   1.511   8.902
28040WAT     H184362   3.113   1.603   8.943
28040WAT     H284363   3.044   1.455   8.954
28041WAT      O84364   7.985   3.649   4.366
28041WAT     H184365   7.991   3.607   4.457
28041WAT     H284366   7.889   3.658   4.340
28042WAT      O84367   9.350   0.460   7.142
28042WAT     H184368   9.393   0.471   7.052
28042WAT     H284369   9.276   0.525   7.151
28043WAT      O84370   3.726   4.667   0.007
28043WAT     H184371   3.645   4.707  -0.036
28043WAT     H284372   3.739   4.706   0.098
28044WAT      O84373   0.277   3.895   9.428
28044WAT     H184374   0.248   3.982   9.389
28044WAT     H284375   0.257   3.894   9.526
28045WAT      O84376   4.552   3.485   1.279
28045WAT     H184377   4.581   3.578   1.301
28045WAT     H284378   4.586   3.460   1.188
28046WAT      O84379   1.739   0.895   4.515
28046WAT     H184380   1.643   0.871   4.526
28046WAT     H284381   1.749   0.955   4.435
28047WAT      O84382   0.577   0.701   7.000
28047WAT     H184383   0.552   0.616   6.953
28047WAT     H284384   0.516   0.715   7.078
28048WAT      O84385   3.268   1.910   1.359
28048WAT     H184386   3.205   1.860   1.300
28048WAT     H284387   3.224   1.993   1.393
28049WAT      O84388   0.974   8.616   9.647
28049WAT     H184389   0.897   8.658   9.694
28049WAT     H284390   0.940   8.545   9.585
28050WAT      O84391   3.241   6.866   6.377
28050WAT     H184392   3.169   6.878   6.309
28050WAT     H284393   3.205   6.816   6.455
28051WAT      O84394   0.157   6.463   7.306
28051WAT     H184395   0.179   6.367   7.286
28051WAT     H284396   0.227   6.521   7.265
28052WAT      O84397   3.703   0.469   3.047
28052WAT     H184398   3.758   0.409   2.990
28052WAT     H284399   3.632   0.512   2.991
28053WAT      O84400   3.299   7.410   9.605
28053WAT     H184401   3.217   7.372   9.562
28053WAT     H284402   3.381   7.366   9.567
28054WAT      O84403   1.641   6.764   6.479
28054WAT     H184404   1.629   6.725   6.387
28054WAT     H284405   1.702   6.843   6.474
28055WAT      O84406   1.844   1.667   8.986
28055WAT     H184407   1.832   1.688   8.889
28055WAT     H284408   1.866   1.751   9.036
28056WAT      O84409   5.162   5.950   6.730
28056WAT     H184410   5.147   5.961   6.631
28056WAT     H284411   5.135   5.858   6.758
28057WAT      O84412   2.988   3.649   3.647
28057WAT     H184413   2.913   3.661   3.712
28057WAT     H284414   3.029   3.558   3.660
28058WAT      O84415   7.300   8.947   6.205
28058WAT     H184416   7.264   8.929   6.114
28058WAT     H284417   7.292   8.865   6.261
28059WAT      O84418   4.934   1.440   4.297
28059WAT     H184419   5.021   1.478   4.327
28059WAT     H284420   4.914   1.470   4.204
28060WAT      O84421   2.561   3.051   7.324
28060WAT     H184422   2.499   3.053   7.246
28060WAT     H284423   2.635   3.117   7.310
28061WAT      O84424   6.136   3.972   2.390
28061WAT     H184425   6.168   4.050   2.444
28061WAT     H284426   6.039   3.956   2.408
28062WAT      O84427   4.919   8.060   8.226
28062WAT     H184428   4.959   8.119   8.295
28062WAT     H284429   4.819   8.069   8.227
28063WAT      O84430   1.280   3.255   1.791
28063WAT     H184431   1.373   3.267   1.756
28063WAT     H284432   1.250   3.339   1.836
28064WAT      O84433   6.705   7.773   6.330
28064WAT     H184434   6.804   7.773   6.344
28064WAT     H284435   6.660   7.820   6.407
28065WAT      O84436   0.957   9.192   2.542
28065WAT     H184437   0.999   9.182   2.632
28065WAT     H284438   0.859   9.176   2.548
28066WAT      O84439   8.909   7.193   7.839
28066WAT     H184440   8.990   7.168   7.785
28066WAT     H284441   8.887   7.290   7.824
28067WAT      O84442   4.782   7.217   3.951
28067WAT     H184443   4.802   7.250   4.044
28067WAT     H284444   4.688   7.241   3.927
28068WAT      O84445   1.573   1.827   7.816
28068WAT     H184446   1.476   1.850   7.814
28068WAT     H284447   1.599   1.787   7.728
28069WAT      O84448   8.530   9.494   4.935
28069WAT     H184449   8.443   9.449   4.953
28069WAT     H284450   8.605   9.429   4.951
28070WAT      O84451   6.357   1.497   1.146
28070WAT     H184452   6.314   1.587   1.151
28070WAT     H284453   6.455   1.506   1.168
28071WAT      O84454   7.448   9.372   0.031
28071WAT     H184455   7.463   9.436   0.107
28071WAT     H284456   7.519   9.385  -0.038
28072WAT      O84457   0.487   4.528   4.614
28072WAT     H184458   0.413   4.480   4.661
28072WAT     H284459   0.564   4.466   4.599
28073WAT      O84460   7.649   9.795   4.400
28073WAT     H184461   7.641   9.805   4.499
28073WAT     H284462   7.558   9.798   4.359
28074WAT      O84463   2.418   2.221   1.516
28074WAT     H184464   2.475   2.157   1.463
28074WAT     H284465   2.344   2.254   1.458
28075WAT      O84466   3.327   9.334   0.339
28075WAT     H184467   3.403   9.343   0.403
28075WAT     H284468   3.240   9.350   0.386
28076WAT      O84469   1.988   3.052   1.858
28076WAT     H184470   1.963   2.988   1.931
28076WAT     H284471   1.939   3.138   1.872
28077WAT      O84472   6.957   8.247   8.809
28077WAT     H184473   6.960   8.174   8.742
28077WAT     H284474   6.930   8.210   8.898
28078WAT      O84475   4.435   3.701   2.589
28078WAT     H184476   4.501   3.720   2.516
28078WAT     H284477   4.346   3.680   2.548
28079WAT      O84478   1.758   5.984   2.341
28079WAT     H184479   1.774   5.893   2.304
28079WAT     H284480   1.662   6.009   2.326
28080WAT      O84481   8.700   8.912   7.578
28080WAT     H184482   8.796   8.915   7.551
28080WAT     H284483   8.664   8.820   7.567
28081WAT      O84484   2.599   5.876   0.261
28081WAT     H184485   2.571   5.933   0.184
28081WAT     H284486   2.697   5.888   0.278
28082WAT      O84487   7.488   6.848   4.614
28082WAT     H184488   7.576   6.877   4.577
28082WAT     H284489   7.486   6.867   4.712
28083WAT      O84490   1.319   5.015   3.605
28083WAT     H184491   1.274   5.101   3.630
28083WAT     H284492   1.399   5.002   3.664
28084WAT      O84493   9.073   4.124   1.863
28084WAT     H184494   9.044   4.113   1.958
28084WAT     H284495   9.170   4.100   1.855
28085WAT      O84496   7.319   1.541   8.213
28085WAT     H184497   7.251   1.468   8.210
28085WAT     H284498   7.380   1.534   8.134
28086WAT      O84499   5.782   0.755   5.030
28086WAT     H184500   5.819   0.728   5.119
28086WAT     H284501   5.684   0.771   5.037
28087WAT      O84502   5.853   6.286   1.080
28087WAT     H184503   5.806   6.297   1.167
28087WAT     H284504   5.790   6.304   1.005
28088WAT      O84505   6.420   5.453   7.665
28088WAT     H184506   6.464   5.423   7.750
28088WAT     H284507   6.436   5.385   7.594
28089WAT      O84508   9.803   5.271   9.254
28089WAT     H184509   9.763   5.358   9.224
28089WAT     H284510   9.843   5.283   9.345
28090WAT      O84511   2.444   0.222   6.661
28090WAT     H184512   2.348   0.250   6.656
28090WAT     H284513   2.491   0.251   6.578
28091WAT      O84514   8.585   6.317   5.168
28091WAT     H184515   8.595   6.377   5.247
28091WAT     H284516   8.619   6.363   5.087
28092WAT      O84517   3.376   3.756   5.177
28092WAT     H184518   3.473   3.783   5.178
28092WAT     H284519   3.360   3.693   5.101
28093WAT      O84520   7.308   6.351   9.116
28093WAT     H184521   7.320   6.340   9.215
28093WAT     H284522   7.222   6.309   9.089
28094WAT      O84523   8.507   9.410   8.329
28094WAT     H184524   8.418   9.426   8.372
28094WAT     H284525   8.563   9.493   8.335
28095WAT      O84526   8.407   2.103   4.913
28095WAT     H184527   8.319   2.105   4.865
28095WAT     H284528   8.480   2.089   4.846
28096WAT      O84529   1.722   0.707   6.017
28096WAT     H184530   1.650   0.732   5.953
28096WAT     H284531   1.809   0.702   5.968
28097WAT      O84532   3.876   2.870   0.794
28097WAT     H184533   3.803   2.825   0.844
28097WAT     H284534   3.895   2.959   0.836
28098WAT      O84535   0.448   7.922   5.526
28098WAT     H184536   0.450   7.823   5.512
28098WAT     H284537   0.390   7.942   5.606
28099WAT      O84538   5.600   5.864   4.881
28099WAT     H184539   5.700   5.874   4.881
28099WAT     H284540   5.577   5.767   4.874
28100WAT      O84541   3.794   2.977   7.093
28100WAT     H184542   3.716   2.999   7.034
28100WAT     H284543   3.801   3.045   7.166
28101WAT      O84544   6.704   7.787   1.656
28101WAT     H184545   6.630   7.838   1.611
28101WAT     H284546   6.679   7.769   1.751
28102WAT      O84547   5.545   0.648   8.705
28102WAT     H184548   5.507   0.563   8.671
28102WAT     H284549   5.535   0.719   8.635
28103WAT      O84550   1.817   3.688   8.900
28103WAT     H184551   1.780   3.696   8.808
28103WAT     H284552   1.881   3.762   8.917
28104WAT      O84553   0.030   3.173   8.052
28104WAT     H184554   0.009   3.237   8.126
28104WAT     H284555   0.122   3.190   8.018
28105WAT      O84556   5.230   1.924   5.891
28105WAT     H184557   5.310   1.866   5.875
28105WAT     H284558   5.255   2.000   5.950
28106WAT      O84559   1.651   6.383   6.270
28106WAT     H184560   1.649   6.483   6.269
28106WAT     H284561   1.591   6.350   6.342
28107WAT      O84562   5.212   1.946   8.681
28107WAT     H184563   5.176   1.860   8.717
28107WAT     H284564   5.256   1.930   8.593
28108WAT      O84565   3.517   1.135   7.276
28108WAT     H184566   3.429   1.139   7.229
28108WAT     H284567   3.502   1.119   7.374
28109WAT      O84568   9.489   2.757   7.481
28109WAT     H184569   9.397   2.720   7.470
28109WAT     H284570   9.534   2.712   7.558
28110WAT      O84571   0.902   7.374   3.141
28110WAT     H184572   0.989   7.339   3.106
28110WAT     H284573   0.844   7.402   3.065
28111WAT      O84574   8.592   5.388   1.312
28111WAT     H184575   8.636   5.389   1.222
28111WAT     H284576   8.632   5.316   1.368
28112WAT      O84577   2.129   5.475   9.564
28112WAT     H184578   2.053   5.507   9.508
28112WAT     H284579   2.159   5.549   9.624
28113WAT      O84580   3.543   7.123   7.598
28113WAT     H184581   3.611   7.055   7.572
28113WAT     H284582   3.477   7.135   7.523
28114WAT      O84583   6.653   2.206   6.866
28114WAT     H184584   6.602   2.274   6.815
28114WAT     H284585   6.751   2.224   6.857
28115WAT      O84586   1.693   4.471   5.962
28115WAT     H184587   1.770   4.535   5.959
28115WAT     H284588   1.728   4.377   5.952
28116WAT      O84589   4.690   8.829   5.894
28116WAT     H184590   4.730   8.759   5.835
28116WAT     H284591   4.748   8.911   5.891
28117WAT      O84592   8.617   4.669   1.924
28117WAT     H184593   8.643   4.756   1.883
28117WAT     H284594   8.543   4.628   1.870
28118WAT      O84595   1.994   2.349   5.768
28118WAT     H184596   2.059   2.421   5.791
28118WAT     H284597   1.999   2.277   5.837
28119WAT      O84598   5.612   7.630   4.422
28119WAT     H184599   5.618   7.530   4.424
28119WAT     H284600   5.592   7.659   4.328
28120WAT      O84601   2.562   4.114   7.610
28120WAT     H184602   2.526   4.079   7.523
28120WAT     H284603   2.613   4.041   7.656
28121WAT      O84604   0.359   0.219   5.598
28121WAT     H184605   0.340   0.173   5.685
28121WAT     H284606   0.456   0.208   5.576
28122WAT      O84607   2.524   9.561   9.630
28122WAT     H184608   2.574   9.484   9.592
28122WAT     H284609   2.521   9.553   9.730
28123WAT      O84610   6.373   4.839   4.357
28123WAT     H184611   6.422   4.909   4.305
28123WAT     H284612   6.325   4.778   4.293
28124WAT      O84613   7.910   4.775   6.841
28124WAT     H184614   7.853   4.704   6.802
28124WAT     H284615   8.001   4.738   6.861
28125WAT      O84616   1.109   3.884   6.761
28125WAT     H184617   1.198   3.929   6.767
28125WAT     H284618   1.047   3.923   6.829
28126WAT      O84619   5.957   3.711   7.264
28126WAT     H184620   5.971   3.613   7.247
28126WAT     H284621   5.860   3.733   7.254
28127WAT      O84622   0.272   2.917   4.827
28127WAT     H184623   0.225   2.838   4.866
28127WAT     H284624   0.214   2.958   4.756
28128WAT      O84625   0.737   6.740   0.790
28128WAT     H184626   0.817   6.736   0.731
28128WAT     H284627   0.762   6.714   0.884
28129WAT      O84628   3.174   3.920   2.998
28129WAT     H184629   3.207   3.925   2.904
28129WAT     H284630   3.187   3.827   3.033
28130WAT      O84631   5.348   1.475   3.096
28130WAT     H184632   5.276   1.427   3.145
28130WAT     H284633   5.408   1.522   3.161
28131WAT      O84634   2.059   8.955   8.272
28131WAT     H184635   2.116   8.918   8.346
28131WAT     H284636   2.068   8.898   8.191
28132WAT      O84637   5.167   5.521   7.478
28132WAT     H184638   5.092   5.490   7.420
28132WAT     H284639   5.252   5.477   7.449
28133WAT      O84640   1.657   2.838   4.966
28133WAT     H184641   1.589   2.772   4.938
28133WAT     H284642   1.627   2.884   5.050
28134WAT      O84643   2.433   2.084   2.528
28134WAT     H184644   2.489   2.001   2.532
28134WAT     H284645   2.489   2.164   2.546
28135WAT      O84646   7.451   1.122   8.994
28135WAT     H184647   7.387   1.051   9.022
28135WAT     H284648   7.435   1.145   8.898
28136WAT      O84649   6.752   6.706   0.711
28136WAT     H184650   6.846   6.720   0.679
28136WAT     H284651   6.714   6.794   0.740
28137WAT      O84652   7.749   0.529   7.773
28137WAT     H184653   7.797   0.596   7.716
28137WAT     H284654   7.658   0.511   7.736
28138WAT      O84655   1.839   9.562   0.333
28138WAT     H184656   1.848   9.656   0.367
28138WAT     H284657   1.761   9.519   0.377
28139WAT      O84658   6.124   3.211   6.218
28139WAT     H184659   6.095   3.249   6.131
28139WAT     H284660   6.203   3.262   6.252
28140WAT      O84661   3.653   1.911   3.658
28140WAT     H184662   3.562   1.927   3.695
28140WAT     H284663   3.680   1.817   3.675
28141WAT      O84664   2.269   1.451   4.261
28141WAT     H184665   2.271   1.535   4.317
28141WAT     H284666   2.188   1.398   4.285
28142WAT      O84667   5.351   7.795   1.705
28142WAT     H184668   5.402   7.879   1.726
28142WAT     H284669   5.372   7.767   1.611
28143WAT      O84670   5.292   6.231   3.956
28143WAT     H184671   5.360   6.159   3.970
28143WAT     H284672   5.209   6.208   4.009
28144WAT      O84673   4.832   8.782   2.656
28144WAT     H184674   4.766   8.778   2.581
28144WAT     H284675   4.870   8.874   2.662
28145WAT      O84676   7.116   1.593   5.470
28145WAT     H184677   7.067   1.514   5.507
28145WAT     H284678   7.088   1.675   5.520
28146WAT      O84679   3.083   3.551   7.925
28146WAT     H184680   3.063   3.597   7.838
28146WAT     H284681   3.078   3.452   7.912
28147WAT      O84682   0.889   3.388   0.737
28147WAT     H184683   0.951   3.349   0.669
28147WAT     H284684   0.798   3.349   0.726
28148WAT      O84685   1.618   1.191   7.928
28148WAT     H184686   1.523   1.181   7.900
28148WAT     H284687   1.650   1.105   7.968
28149WAT      O84688   2.241   5.189   2.497
28149WAT     H184689   2.181   5.237   2.433
28149WAT     H284690   2.207   5.096   2.511
28150WAT      O84691   6.199   7.135   5.897
28150WAT     H184692   6.228   7.178   5.811
28150WAT     H284693   6.252   7.172   5.973
28151WAT      O84694   7.708   5.707   6.125
28151WAT     H184695   7.655   5.783   6.162
28151WAT     H284696   7.784   5.686   6.187
28152WAT      O84697   9.154   4.901   1.117
28152WAT     H184698   9.117   4.914   1.208
28152WAT     H284699   9.093   4.841   1.064
28153WAT      O84700   5.412   6.227   2.465
28153WAT     H184701   5.356   6.296   2.421
28153WAT     H284702   5.491   6.270   2.508
28154WAT      O84703   5.648   6.307   7.807
28154WAT     H184704   5.642   6.302   7.707
28154WAT     H284705   5.669   6.216   7.843
28155WAT      O84706   9.521   8.321   2.650
28155WAT     H184707   9.553   8.380   2.576
28155WAT     H284708   9.463   8.248   2.613
28156WAT      O84709   2.447   8.870   0.470
28156WAT     H184710   2.357   8.840   0.502
28156WAT     H284711   2.503   8.790   0.450
28157WAT      O84712   9.611   1.548   8.517
28157WAT     H184713   9.668   1.573   8.595
28157WAT     H284714   9.559   1.465   8.539
28158WAT      O84715   4.444   1.799   1.238
28158WAT     H184716   4.479   1.784   1.146
28158WAT     H284717   4.438   1.712   1.287
28159WAT      O84718   8.981   4.065   6.470
28159WAT     H184719   9.023   4.062   6.561
28159WAT     H284720   9.043   4.025   6.403
28160WAT      O84721   0.227   8.808   3.099
28160WAT     H184722   0.256   8.713   3.108
28160WAT     H284723   0.160   8.830   3.169
28161WAT      O84724   1.342   6.336   0.575
28161WAT     H184725   1.383   6.298   0.658
28161WAT     H284726   1.391   6.420   0.550
28162WAT      O84727   3.689   4.650   6.772
28162WAT     H184728   3.694   4.651   6.872
28162WAT     H284729   3.596   4.626   6.744
28163WAT      O84730   3.919   9.104   2.790
28163WAT     H184731   3.820   9.096   2.807
28163WAT     H284732   3.934   9.142   2.699
28164WAT      O84733   6.395   8.620   7.660
28164WAT     H184734   6.359   8.627   7.567
28164WAT     H284735   6.482   8.571   7.659
28165WAT      O84736   0.975   3.158   1.196
28165WAT     H184737   0.894   3.170   1.139
28165WAT     H284738   1.056   3.144   1.138
28166WAT      O84739   8.250   7.435   6.238
28166WAT     H184740   8.238   7.409   6.334
28166WAT     H284741   8.316   7.373   6.195
28167WAT      O84742   4.145   6.312   5.922
28167WAT     H184743   4.046   6.321   5.923
28167WAT     H284744   4.174   6.252   5.997
28168WAT      O84745   5.689   6.297   1.519
28168WAT     H184746   5.635   6.289   1.435
28168WAT     H284747   5.718   6.392   1.531
28169WAT      O84748   0.835   9.372   7.342
28169WAT     H184749   0.797   9.282   7.321
28169WAT     H284750   0.933   9.364   7.360
28170WAT      O84751   7.757   1.248   5.834
28170WAT     H184752   7.773   1.171   5.895
28170WAT     H284753   7.668   1.288   5.853
28171WAT      O84754   4.991   6.335   6.092
28171WAT     H184755   5.008   6.421   6.140
28171WAT     H284756   4.920   6.349   6.023
28172WAT      O84757   1.332   6.459   6.274
28172WAT     H184758   1.308   6.480   6.179
28172WAT     H284759   1.249   6.433   6.324
28173WAT      O84760   1.801   1.344   8.037
28173WAT     H184761   1.730   1.294   7.987
28173WAT     H284762   1.853   1.401   7.974
28174WAT      O84763   1.543   7.198   0.571
28174WAT     H184764   1.504   7.254   0.498
28174WAT     H284765   1.569   7.257   0.648
28175WAT      O84766   3.907   2.681   6.922
28175WAT     H184767   3.837   2.613   6.944
28175WAT     H284768   3.930   2.733   7.005
28176WAT      O84769   8.918   1.978   0.579
28176WAT     H184770   8.847   2.037   0.616
28176WAT     H284771   8.985   2.033   0.529
28177WAT      O84772   5.426   4.451   0.828
28177WAT     H184773   5.398   4.356   0.842
28177WAT     H284774   5.436   4.468   0.730
28178WAT      O84775   8.435   1.650   2.935
28178WAT     H184776   8.418   1.597   3.019
28178WAT     H284777   8.397   1.601   2.857
28179WAT      O84778   6.710   0.615   6.191
28179WAT     H184779   6.652   0.651   6.117
28179WAT     H284780   6.790   0.673   6.201
28180WAT      O84781   6.376   7.464   7.076
28180WAT     H184782   6.382   7.391   7.009
28180WAT     H284783   6.300   7.525   7.054
28181WAT      O84784   0.710   8.649   0.861
28181WAT     H184785   0.673   8.623   0.950
28181WAT     H284786   0.691   8.746   0.844
28182WAT      O84787   6.903   4.680   0.571
28182WAT     H184788   6.896   4.632   0.658
28182WAT     H284789   6.997   4.711   0.557
28183WAT      O84790   6.118   5.628   3.887
28183WAT     H184791   6.046   5.695   3.869
28183WAT     H284792   6.188   5.669   3.946
28184WAT      O84793   7.262   6.031   3.040
28184WAT     H184794   7.329   6.054   2.969
28184WAT     H284795   7.169   6.047   3.005
28185WAT      O84796   6.903   6.218   4.611
28185WAT     H184797   6.871   6.227   4.706
28185WAT     H284798   6.903   6.308   4.568
28186WAT      O84799   7.707   8.293   4.959
28186WAT     H184800   7.778   8.304   5.029
28186WAT     H284801   7.694   8.379   4.911
28187WAT      O84802   5.641   1.724   9.434
28187WAT     H184803   5.607   1.806   9.479
28187WAT     H284804   5.696   1.749   9.355
28188WAT      O84805   9.679   3.172   7.916
28188WAT     H184806   9.773   3.176   7.949
28188WAT     H284807   9.651   3.263   7.884
28189WAT      O84808   9.168   5.383   0.258
28189WAT     H184809   9.265   5.389   0.238
28189WAT     H284810   9.141   5.460   0.316
28190WAT      O84811   2.247   9.695   3.590
28190WAT     H184812   2.157   9.684   3.632
28190WAT     H284813   2.244   9.772   3.527
28191WAT      O84814   6.391   8.209   1.873
28191WAT     H184815   6.328   8.273   1.828
28191WAT     H284816   6.446   8.164   1.803
28192WAT      O84817   8.771   0.229   0.121
28192WAT     H184818   8.717   0.195   0.044
28192WAT     H284819   8.844   0.288   0.087
28193WAT      O84820   8.843   5.538   3.175
28193WAT     H184821   8.876   5.481   3.099
28193WAT     H284822   8.916   5.548   3.242
28194WAT      O84823   5.990   6.179   1.795
28194WAT     H184824   6.059   6.125   1.843
28194WAT     H284825   6.004   6.171   1.696
28195WAT      O84826   1.731   0.300   2.065
28195WAT     H184827   1.779   0.362   2.003
28195WAT     H284828   1.792   0.274   2.139
28196WAT      O84829   5.005   3.457   8.293
28196WAT     H184830   4.944   3.509   8.233
28196WAT     H284831   5.020   3.507   8.378
28197WAT      O84832   1.823   5.412   2.015
28197WAT     H184833   1.843   5.444   2.108
28197WAT     H284834   1.725   5.396   2.006
28198WAT      O84835   3.623   5.854   1.190
28198WAT     H184836   3.716   5.821   1.180
28198WAT     H284837   3.620   5.953   1.175
28199WAT      O84838   5.071   6.335   3.453
28199WAT     H184839   5.095   6.354   3.548
28199WAT     H284840   5.119   6.252   3.423
28200WAT      O84841   5.614   6.320   1.245
28200WAT     H184842   5.531   6.358   1.204
28200WAT     H284843   5.607   6.220   1.246
28201WAT      O84844   7.598   4.443   8.903
28201WAT     H184845   7.587   4.542   8.894
28201WAT     H284846   7.625   4.404   8.815
28202WAT      O84847   1.605   4.479   5.518
28202WAT     H184848   1.562   4.465   5.607
28202WAT     H284849   1.540   4.522   5.455
28203WAT      O84850   9.391   5.275   8.515
28203WAT     H184851   9.376   5.334   8.437
28203WAT     H284852   9.321   5.204   8.518
28204WAT      O84853   0.798   6.046   9.564
28204WAT     H184854   0.885   6.096   9.569
28204WAT     H284855   0.791   5.983   9.641
28205WAT      O84856   7.154   1.309   9.851
28205WAT     H184857   7.238   1.362   9.844
28205WAT     H284858   7.088   1.341   9.782
28206WAT      O84859   8.338   1.162   9.493
28206WAT     H184860   8.349   1.260   9.477
28206WAT     H284861   8.406   1.131   9.559
28207WAT      O84862   9.746   5.746   4.938
28207WAT     H184863   9.740   5.716   4.843
28207WAT     H284864   9.822   5.810   4.948
28208WAT      O84865   4.706   6.550   2.934
28208WAT     H184866   4.738   6.517   2.845
28208WAT     H284867   4.611   6.579   2.928
28209WAT      O84868   9.831   3.690   7.438
28209WAT     H184869   9.772   3.768   7.457
28209WAT     H284870   9.836   3.675   7.339
28210WAT      O84871   6.651   0.289   4.675
28210WAT     H184872   6.707   0.343   4.613
28210WAT     H284873   6.604   0.218   4.623
28211WAT      O84874   9.271   2.838   2.541
28211WAT     H184875   9.201   2.795   2.484
28211WAT     H284876   9.326   2.768   2.586
28212WAT      O84877   5.694   2.205   8.355
28212WAT     H184878   5.748   2.255   8.287
28212WAT     H284879   5.750   2.135   8.398
28213WAT      O84880   1.461   4.026   2.165
28213WAT     H184881   1.456   4.125   2.177
28213WAT     H284882   1.446   3.980   2.253
28214WAT      O84883   1.020   6.862   7.166
28214WAT     H184884   1.047   6.773   7.130
28214WAT     H284885   0.987   6.919   7.090
28215WAT      O84886   6.708   3.791   3.001
28215WAT     H184887   6.666   3.843   2.927
28215WAT     H284888   6.785   3.843   3.039
28216WAT      O84889   2.071   3.023   4.273
28216WAT     H184890   2.171   3.012   4.274
28216WAT     H284891   2.048   3.118   4.294
28217WAT      O84892   1.870   5.993   5.559
28217WAT     H184893   1.815   6.042   5.627
28217WAT     H284894   1.829   6.004   5.469
28218WAT      O84895   1.065   0.754   8.053
28218WAT     H184896   0.999   0.741   7.980
28218WAT     H284897   1.018   0.758   8.141
28219WAT      O84898   4.993   4.046   4.947
28219WAT     H184899   5.019   3.956   4.912
28219WAT     H284900   4.922   4.036   5.016
28220WAT      O84901   1.937   1.244   1.663
28220WAT     H184902   1.916   1.245   1.565
28220WAT     H284903   2.036   1.249   1.676
28221WAT      O84904   0.065   1.543   6.796
28221WAT     H184905   0.078   1.573   6.702
28221WAT     H284906   0.101   1.450   6.807
28222WAT      O84907   8.089   7.745   1.045
28222WAT     H184908   8.098   7.693   1.130
28222WAT     H284909   8.086   7.843   1.066
28223WAT      O84910   3.917   3.884   1.004
28223WAT     H184911   3.824   3.871   1.041
28223WAT     H284912   3.981   3.898   1.080
28224WAT      O84913   5.373   6.680   3.917
28224WAT     H184914   5.401   6.584   3.912
28224WAT     H284915   5.449   6.738   3.891
28225WAT      O84916   8.997   4.734   0.977
28225WAT     H184917   9.073   4.719   0.914
28225WAT     H284918   8.913   4.751   0.925
28226WAT      O84919   9.624   3.341   2.714
28226WAT     H184920   9.650   3.257   2.667
28226WAT     H284921   9.706   3.395   2.733
28227WAT      O84922   6.392   6.522   7.697
28227WAT     H184923   6.313   6.483   7.742
28227WAT     H284924   6.375   6.527   7.598
28228WAT      O84925   2.048   5.972   4.118
28228WAT     H184926   2.041   5.873   4.118
28228WAT     H284927   2.036   6.007   4.210
28229WAT      O84928   5.256   4.326   0.585
28229WAT     H184929   5.323   4.351   0.516
28229WAT     H284930   5.299   4.266   0.653
28230WAT      O84931   5.318   8.102   7.729
28230WAT     H184932   5.401   8.099   7.785
28230WAT     H284933   5.300   8.011   7.691
28231WAT      O84934   2.984   7.608   5.993
28231WAT     H184935   2.921   7.567   5.928
28231WAT     H284936   2.936   7.677   6.047
28232WAT      O84937   9.517   9.634   9.602
28232WAT     H184938   9.512   9.734   9.603
28232WAT     H284939   9.424   9.597   9.600
28233WAT      O84940   8.776   1.576   4.048
28233WAT     H184941   8.768   1.675   4.056
28233WAT     H284942   8.716   1.532   4.115
28234WAT      O84943   1.525   4.875   1.487
28234WAT     H184944   1.540   4.965   1.447
28234WAT     H284945   1.490   4.812   1.418
28235WAT      O84946   8.315   7.991   9.527
28235WAT     H184947   8.379   8.045   9.582
28235WAT     H284948   8.262   8.052   9.468
28236WAT      O84949   9.711   2.586   5.057
28236WAT     H184950   9.697   2.527   4.977
28236WAT     H284951   9.750   2.673   5.027
28237WAT      O84952   3.476   5.670   6.554
28237WAT     H184953   3.398   5.707   6.604
28237WAT     H284954   3.480   5.571   6.567
28238WAT      O84955   5.387   6.045   0.122
28238WAT     H184956   5.307   6.075   0.072
28238WAT     H284957   5.469   6.059   0.067
28239WAT      O84958   3.660   1.855   9.206
28239WAT     H184959   3.620   1.763   9.199
28239WAT     H284960   3.645   1.904   9.121
28240WAT      O84961   9.845   3.313   0.096
28240WAT     H184962   9.843   3.403   0.052
28240WAT     H284963   9.765   3.303   0.154
28241WAT      O84964   7.209   9.110   7.732
28241WAT     H184965   7.165   9.150   7.813
28241WAT     H284966   7.307   9.101   7.748
28242WAT      O84967   7.584   1.343   9.086
28242WAT     H184968   7.535   1.277   9.028
28242WAT     H284969   7.635   1.406   9.028
28243WAT      O84970   9.286   1.027   5.508
28243WAT     H184971   9.313   0.935   5.539
28243WAT     H284972   9.364   1.071   5.463
28244WAT      O84973   4.520   7.720   3.600
28244WAT     H184974   4.522   7.621   3.592
28244WAT     H284975   4.441   7.748   3.654
28245WAT      O84976   3.028   9.429   5.904
28245WAT     H184977   2.999   9.509   5.851
28245WAT     H284978   3.110   9.451   5.956
28246WAT      O84979   8.179   7.250   9.446
28246WAT     H184980   8.103   7.216   9.391
28246WAT     H284981   8.266   7.227   9.401
28247WAT      O84982   8.111   3.919   5.215
28247WAT     H184983   8.143   3.995   5.158
28247WAT     H284984   8.137   3.832   5.173
28248WAT      O84985   2.515   4.627   8.477
28248WAT     H184986   2.609   4.604   8.503
28248WAT     H284987   2.458   4.630   8.559
28249WAT      O84988   3.827   4.126   9.273
28249WAT     H184989   3.842   4.203   9.336
28249WAT     H284990   3.896   4.128   9.201
28250WAT      O84991   3.643   0.269   9.126
28250WAT     H184992   3.627   0.307   9.217
28250WAT     H284993   3.561   0.222   9.094
28251WAT      O84994   8.226   1.958   5.055
28251WAT     H184995   8.299   1.992   4.996
28251WAT     H284996   8.264   1.937   5.145
28252WAT      O84997   5.735   5.171   3.111
28252WAT     H184998   5.807   5.137   3.051
28252WAT     H284999   5.769   5.250   3.162
28253WAT      O85000   5.920   2.987   9.495
28253WAT     H185001   5.882   2.928   9.567
28253WAT     H285002   5.877   2.965   9.408
28254WAT      O85003   6.702   8.927   7.751
28254WAT     H185004   6.795   8.962   7.766
28254WAT     H285005   6.639   8.970   7.816
28255WAT      O85006   3.071   6.582   0.670
28255WAT     H185007   3.037   6.566   0.763
28255WAT     H285008   2.996   6.573   0.605
28256WAT      O85009   8.622   6.968   9.773
28256WAT     H185010   8.583   6.909   9.843
28256WAT     H285011   8.563   6.967   9.692
28257WAT      O85012   9.042   6.877   0.041
28257WAT     H185013   8.972   6.874  -0.030
28257WAT     H285014   9.132   6.888  -0.002
28258WAT      O85015   4.705   0.769   1.937
28258WAT     H185016   4.692   0.717   2.021
28258WAT     H285017   4.652   0.853   1.941
28259WAT      O85018   0.583   7.089   3.857
28259WAT     H185019   0.527   7.041   3.789
28259WAT     H285020   0.666   7.124   3.813
28260WAT      O85021   8.644   4.320   9.039
28260WAT     H185022   8.675   4.402   8.989
28260WAT     H285023   8.548   4.302   9.017
28261WAT      O85024   7.484   9.468   8.464
28261WAT     H185025   7.485   9.385   8.409
28261WAT     H285026   7.573   9.514   8.458
28262WAT      O85027   3.764   4.455   8.062
28262WAT     H185028   3.696   4.513   8.107
28262WAT     H285029   3.718   4.388   8.005
28263WAT      O85030   5.630   0.668   8.978
28263WAT     H185031   5.603   0.626   8.892
28263WAT     H285032   5.556   0.727   9.011
28264WAT      O85033   8.214   1.925   7.739
28264WAT     H185034   8.203   1.957   7.833
28264WAT     H285035   8.260   1.995   7.685
28265WAT      O85036   0.198   8.916   5.883
28265WAT     H185037   0.152   8.999   5.914
28265WAT     H285038   0.197   8.913   5.783
28266WAT      O85039   5.370   5.979   1.946
28266WAT     H185040   5.283   5.931   1.960
28266WAT     H285041   5.361   6.074   1.976
28267WAT      O85042   1.559   9.760   0.956
28267WAT     H185043   1.614   9.708   1.022
28267WAT     H285044   1.573   9.858   0.971
28268WAT      O85045   8.712   3.522   2.049
28268WAT     H185046   8.796   3.560   2.088
28268WAT     H285047   8.685   3.574   1.968
28269WAT      O85048   3.680   3.965   6.578
28269WAT     H185049   3.696   3.868   6.559
28269WAT     H285050   3.745   4.020   6.527
28270WAT      O85051   7.173   5.675   0.907
28270WAT     H185052   7.217   5.615   0.840
28270WAT     H285053   7.238   5.694   0.981
28271WAT      O85054   2.324   7.566   4.182
28271WAT     H185055   2.387   7.551   4.106
28271WAT     H285056   2.367   7.625   4.251
28272WAT      O85057   8.635   2.069   0.650
28272WAT     H185058   8.578   2.137   0.603
28272WAT     H285059   8.597   1.978   0.634
28273WAT      O85060   8.440   1.884   0.839
28273WAT     H185061   8.499   1.962   0.861
28273WAT     H285062   8.383   1.907   0.760
28274WAT      O85063   3.325   1.881   0.377
28274WAT     H185064   3.265   1.869   0.298
28274WAT     H285065   3.391   1.807   0.381
28275WAT      O85066   0.963   1.757   2.156
28275WAT     H185067   1.036   1.825   2.163
28275WAT     H285068   0.990   1.685   2.092
28276WAT      O85069   3.484   1.844   7.470
28276WAT     H185070   3.580   1.851   7.442
28276WAT     H285071   3.425   1.870   7.394
28277WAT      O85072   4.049   6.851   4.497
28277WAT     H185073   4.124   6.812   4.550
28277WAT     H285074   4.067   6.839   4.399
28278WAT      O85075   6.816   1.672   5.247
28278WAT     H185076   6.915   1.679   5.233
28278WAT     H285077   6.798   1.634   5.338
28279WAT      O85078   9.035   6.934   5.477
28279WAT     H185079   9.057   6.843   5.512
28279WAT     H285080   8.936   6.944   5.471
28280WAT      O85081   6.515   9.428   2.845
28280WAT     H185082   6.522   9.342   2.895
28280WAT     H285083   6.595   9.484   2.864
28281WAT      O85084   9.788   3.508   1.428
28281WAT     H185085   9.718   3.495   1.498
28281WAT     H285086   9.774   3.597   1.383
28282WAT      O85087   2.221   5.888   0.056
28282WAT     H185088   2.171   5.865   0.140
28282WAT     H285089   2.247   5.985   0.059
28283WAT      O85090   7.969   6.999   4.558
28283WAT     H185091   7.888   6.949   4.527
28283WAT     H285092   7.948   7.048   4.643
28284WAT      O85093   1.704   2.783   2.293
28284WAT     H185094   1.651   2.809   2.374
28284WAT     H285095   1.642   2.767   2.216
28285WAT      O85096   3.314   1.930   4.781
28285WAT     H185097   3.348   2.019   4.811
28285WAT     H285098   3.217   1.922   4.803
28286WAT      O85099   9.870   8.791   5.349
28286WAT     H185100   9.901   8.771   5.442
28286WAT     H285101   9.902   8.719   5.287
28287WAT      O85102   0.525   1.765   5.261
28287WAT     H185103   0.485   1.816   5.185
28287WAT     H285104   0.574   1.685   5.226
28288WAT      O85105   4.496   2.336   4.848
28288WAT     H185106   4.562   2.284   4.795
28288WAT     H285107   4.473   2.421   4.800
28289WAT      O85108   8.778   0.913   0.941
28289WAT     H185109   8.834   0.871   0.870
28289WAT     H285110   8.699   0.958   0.899
28290WAT      O85111   2.403   1.988   9.422
28290WAT     H185112   2.425   2.080   9.389
28290WAT     H285113   2.390   1.991   9.522
28291WAT      O85114   5.723   5.294   5.529
28291WAT     H185115   5.818   5.264   5.526
28291WAT     H285116   5.708   5.352   5.609
28292WAT      O85117   3.875   4.451   7.344
28292WAT     H185118   3.878   4.415   7.437
28292WAT     H285119   3.869   4.551   7.347
28293WAT      O85120   1.499   2.942   6.836
28293WAT     H185121   1.596   2.950   6.858
28293WAT     H285122   1.474   2.846   6.829
28294WAT      O85123   4.063   2.415   5.723
28294WAT     H185124   4.139   2.402   5.660
28294WAT     H285125   4.098   2.419   5.817
28295WAT      O85126   9.619   7.231   7.864
28295WAT     H185127   9.708   7.247   7.820
28295WAT     H285128   9.582   7.144   7.831
28296WAT      O85129   3.079   4.148   5.499
28296WAT     H185130   3.093   4.247   5.489
28296WAT     H285131   2.983   4.126   5.477
28297WAT      O85132   2.349   6.239   5.872
28297WAT     H185133   2.294   6.155   5.867
28297WAT     H285134   2.446   6.217   5.860
28298WAT      O85135   4.611   5.160   1.028
28298WAT     H185136   4.527   5.106   1.021
28298WAT     H285137   4.690   5.099   1.022
28299WAT      O85138   0.772   5.512   2.434
28299WAT     H185139   0.835   5.571   2.485
28299WAT     H285140   0.824   5.442   2.384
28300WAT      O85141   1.052   3.823   3.415
28300WAT     H185142   0.987   3.750   3.398
28300WAT     H285143   1.015   3.886   3.483
28301WAT      O85144   2.406   9.569   0.794
28301WAT     H185145   2.460   9.625   0.857
28301WAT     H285146   2.457   9.486   0.771
28302WAT      O85147   9.730   8.666   0.428
28302WAT     H185148   9.708   8.627   0.517
28302WAT     H285149   9.696   8.606   0.356
28303WAT      O85150   4.016   6.382   8.742
28303WAT     H185151   4.007   6.355   8.838
28303WAT     H285152   4.108   6.418   8.727
28304WAT      O85153   3.797   5.568   1.769
28304WAT     H185154   3.807   5.497   1.699
28304WAT     H285155   3.760   5.527   1.853
28305WAT      O85156   7.997   6.204   7.609
28305WAT     H185157   7.963   6.119   7.567
28305WAT     H285158   8.049   6.256   7.541
28306WAT      O85159   2.012   1.535   6.438
28306WAT     H185160   2.004   1.632   6.457
28306WAT     H285161   2.089   1.497   6.489
28307WAT      O85162   9.838   2.795   0.343
28307WAT     H185163   9.880   2.793   0.433
28307WAT     H285164   9.740   2.814   0.352
28308WAT      O85165   7.205   4.096   1.673
28308WAT     H185166   7.160   4.015   1.636
28308WAT     H285167   7.299   4.071   1.701
28309WAT      O85168   8.100   3.446   2.073
28309WAT     H185169   8.089   3.544   2.084
28309WAT     H285170   8.055   3.398   2.148
28310WAT      O85171   8.319   2.488   8.577
28310WAT     H185172   8.356   2.461   8.666
28310WAT     H285173   8.328   2.412   8.513
28311WAT      O85174   2.385   0.432   1.514
28311WAT     H185175   2.297   0.412   1.556
28311WAT     H285176   2.436   0.497   1.571
28312WAT      O85177   5.779   8.807   3.874
28312WAT     H185178   5.809   8.733   3.934
28312WAT     H285179   5.857   8.865   3.850
28313WAT      O85180   8.500   9.359   0.168
28313WAT     H185181   8.501   9.260   0.163
28313WAT     H285182   8.415   9.390   0.211
28314WAT      O85183   3.205   7.935   1.259
28314WAT     H185184   3.283   7.981   1.301
28314WAT     H285185   3.159   7.877   1.327
28315WAT      O85186   9.706   7.226   6.084
28315WAT     H185187   9.629   7.194   6.028
28315WAT     H285188   9.737   7.152   6.144
28316WAT      O85189   4.724   3.930   3.415
28316WAT     H185190   4.823   3.939   3.416
28316WAT     H285191   4.695   3.879   3.334
28317WAT      O85192   0.622   4.257   8.462
28317WAT     H185193   0.546   4.196   8.485
28317WAT     H285194   0.705   4.228   8.510
28318WAT      O85195   7.260   4.793   7.634
28318WAT     H185196   7.170   4.751   7.618
28318WAT     H285197   7.270   4.814   7.731
28319WAT      O85198   5.881   0.035   7.064
28319WAT     H185199   5.840   0.085   7.140
28319WAT     H285200   5.813   0.023   6.992
28320WAT      O85201   1.913   5.945   7.405
28320WAT     H185202   1.912   5.871   7.473
28320WAT     H285203   2.007   5.969   7.383
28321WAT      O85204   3.292   8.606   4.027
28321WAT     H185205   3.344   8.593   4.111
28321WAT     H285206   3.288   8.520   3.977
28322WAT      O85207   3.181   2.559   1.379
28322WAT     H185208   3.174   2.658   1.383
28322WAT     H285209   3.261   2.533   1.325
28323WAT      O85210   5.435   7.794   4.536
28323WAT     H185211   5.499   7.720   4.557
28323WAT     H285212   5.393   7.827   4.621
28324WAT      O85213   5.409   6.597   1.450
28324WAT     H185214   5.324   6.646   1.467
28324WAT     H285215   5.469   6.654   1.394
28325WAT      O85216   7.912   7.111   5.541
28325WAT     H185217   7.921   7.205   5.508
28325WAT     H285218   7.910   7.112   5.641
28326WAT      O85219   3.076   2.988   0.835
28326WAT     H185220   3.027   2.948   0.757
28326WAT     H285221   3.027   3.068   0.868
28327WAT      O85222   2.664   2.398   6.923
28327WAT     H185223   2.678   2.384   6.825
28327WAT     H285224   2.661   2.310   6.969
28328WAT      O85225   2.535   2.200   8.516
28328WAT     H185226   2.484   2.190   8.601
28328WAT     H285227   2.627   2.234   8.536
28329WAT      O85228   0.621   8.641   6.567
28329WAT     H185229   0.655   8.570   6.506
28329WAT     H285230   0.586   8.600   6.651
28330WAT      O85231   1.504   8.289   9.035
28330WAT     H185232   1.540   8.347   9.109
28330WAT     H285233   1.580   8.253   8.981
28331WAT      O85234   1.441   9.357   3.006
28331WAT     H185235   1.464   9.262   3.024
28331WAT     H285236   1.373   9.387   3.073
28332WAT      O85237   1.036   8.811   0.745
28332WAT     H185238   1.030   8.908   0.770
28332WAT     H285239   1.130   8.789   0.720
28333WAT      O85240   1.525   4.772   4.313
28333WAT     H185241   1.554   4.848   4.372
28333WAT     H285242   1.425   4.769   4.309
28334WAT      O85243   3.272   0.661   2.065
28334WAT     H185244   3.345   0.698   2.123
28334WAT     H285245   3.301   0.574   2.026
28335WAT      O85246   3.708   1.312   3.067
28335WAT     H185247   3.646   1.263   3.128
28335WAT     H285248   3.746   1.391   3.115
28336WAT      O85249   3.634   3.193   4.351
28336WAT     H185250   3.543   3.165   4.320
28336WAT     H285251   3.661   3.137   4.430
28337WAT      O85252   6.973   7.463   3.059
28337WAT     H185253   6.980   7.450   2.960
28337WAT     H285254   6.964   7.375   3.104
28338WAT      O85255   0.444   5.951   2.401
28338WAT     H185256   0.419   5.986   2.491
28338WAT     H285257   0.481   5.859   2.410
28339WAT      O85258   2.804   6.472   7.682
28339WAT     H185259   2.861   6.391   7.673
28339WAT     H285260   2.766   6.496   7.593
28340WAT      O85261   4.417   1.112   4.086
28340WAT     H185262   4.362   1.195   4.094
28340WAT     H285263   4.489   1.113   4.155
28341WAT      O85264   3.560   3.460   4.320
28341WAT     H185265   3.524   3.473   4.413
28341WAT     H285266   3.618   3.379   4.318
28342WAT      O85267   2.565   6.598   9.058
28342WAT     H185268   2.654   6.589   9.013
28342WAT     H285269   2.561   6.537   9.136
28343WAT      O85270   7.544   2.158   2.933
28343WAT     H185271   7.594   2.072   2.921
28343WAT     H285272   7.595   2.217   2.995
28344WAT      O85273   9.780   7.566   6.735
28344WAT     H185274   9.844   7.493   6.759
28344WAT     H285275   9.749   7.612   6.818
28345WAT      O85276   9.294   8.462   2.151
28345WAT     H185277   9.359   8.402   2.105
28345WAT     H285278   9.299   8.554   2.111
28346WAT      O85279   1.620   8.902   1.732
28346WAT     H185280   1.589   8.978   1.790
28346WAT     H285281   1.595   8.815   1.775
28347WAT      O85282   2.785   0.066   3.871
28347WAT     H185283   2.866   0.124   3.883
28347WAT     H285284   2.707   0.109   3.917
28348WAT      O85285   3.545   2.163   1.398
28348WAT     H185286   3.571   2.219   1.477
28348WAT     H285287   3.573   2.068   1.414
28349WAT      O85288   0.530   4.444   8.635
28349WAT     H185289   0.547   4.367   8.574
28349WAT     H285290   0.473   4.414   8.711
28350WAT      O85291   2.312   3.680   6.033
28350WAT     H185292   2.371   3.676   5.953
28350WAT     H285293   2.225   3.635   6.012
28351WAT      O85294   3.342   7.255   5.203
28351WAT     H185295   3.415   7.277   5.138
28351WAT     H285296   3.327   7.156   5.204
28352WAT      O85297   6.926   3.149   1.494
28352WAT     H185298   6.859   3.110   1.558
28352WAT     H285299   6.944   3.083   1.421
28353WAT      O85300   1.754   9.549   6.638
28353WAT     H185301   1.798   9.577   6.553
28353WAT     H285302   1.712   9.459   6.626
28354WAT      O85303   4.007   8.283   7.426
28354WAT     H185304   4.074   8.236   7.483
28354WAT     H285305   3.985   8.227   7.346
28355WAT      O85306   5.299   1.082   4.048
28355WAT     H185307   5.381   1.099   3.994
28355WAT     H285308   5.224   1.140   4.015
28356WAT      O85309   5.321   4.568   3.372
28356WAT     H185310   5.242   4.515   3.405
28356WAT     H285311   5.372   4.602   3.451
28357WAT      O85312   7.098   7.532   5.949
28357WAT     H185313   7.189   7.542   5.990
28357WAT     H285314   7.058   7.623   5.935
28358WAT      O85315   0.838   7.045   6.931
28358WAT     H185316   0.804   6.977   6.865
28358WAT     H285317   0.871   7.126   6.882
28359WAT      O85318   7.070   7.364   1.994
28359WAT     H185319   7.096   7.454   2.027
28359WAT     H285320   7.142   7.298   2.017
28360WAT      O85321   0.216   8.079   8.140
28360WAT     H185322   0.182   8.171   8.159
28360WAT     H285323   0.237   8.033   8.226
28361WAT      O85324   1.279   6.476   5.601
28361WAT     H185325   1.378   6.485   5.607
28361WAT     H285326   1.240   6.558   5.558
28362WAT      O85327   0.197   8.665   0.126
28362WAT     H185328   0.242   8.626   0.046
28362WAT     H285329   0.098   8.669   0.109
28363WAT      O85330   1.731   8.367   9.312
28363WAT     H185331   1.636   8.378   9.342
28363WAT     H285332   1.771   8.286   9.355
28364WAT      O85333   8.792   0.238   0.736
28364WAT     H185334   8.748   0.231   0.647
28364WAT     H285335   8.779   0.331   0.772
28365WAT      O85336   1.090   5.839   2.211
28365WAT     H185337   1.026   5.802   2.144
28365WAT     H285338   1.087   5.782   2.294
28366WAT      O85339   6.019   8.487   3.840
28366WAT     H185340   6.094   8.512   3.901
28366WAT     H285341   6.016   8.388   3.830
28367WAT      O85342   8.077   5.235   3.874
28367WAT     H185343   8.124   5.187   3.800
28367WAT     H285344   7.993   5.276   3.840
28368WAT      O85345   8.634   3.388   6.803
28368WAT     H185346   8.603   3.476   6.766
28368WAT     H285347   8.590   3.314   6.753
28369WAT      O85348   7.298   7.583   4.545
28369WAT     H185349   7.345   7.666   4.574
28369WAT     H285350   7.268   7.532   4.626
28370WAT      O85351   4.748   2.525   2.600
28370WAT     H185352   4.721   2.587   2.526
28370WAT     H285353   4.829   2.561   2.645
28371WAT      O85354   0.317   3.748   4.818
28371WAT     H185355   0.238   3.697   4.784
28371WAT     H285356   0.382   3.685   4.860
28372WAT      O85357   3.695   8.631   0.585
28372WAT     H185358   3.756   8.571   0.637
28372WAT     H285359   3.601   8.617   0.616
28373WAT      O85360   5.332   8.778   8.809
28373WAT     H185361   5.393   8.754   8.733
28373WAT     H285362   5.238   8.783   8.777
28374WAT      O85363   9.581   8.552   0.249
28374WAT     H185364   9.574   8.464   0.202
28374WAT     H285365   9.559   8.626   0.185
28375WAT      O85366   2.146   2.569   8.444
28375WAT     H185367   2.166   2.518   8.527
28375WAT     H285368   2.063   2.624   8.458
28376WAT      O85369   9.630   4.799   2.753
28376WAT     H185370   9.656   4.773   2.660
28376WAT     H285371   9.558   4.868   2.750
28377WAT      O85372   7.135   2.901   2.045
28377WAT     H185373   7.047   2.935   2.078
28377WAT     H285374   7.201   2.977   2.042
28378WAT      O85375   8.095   2.986   4.653
28378WAT     H185376   8.002   3.013   4.627
28378WAT     H285377   8.124   2.908   4.598
28379WAT      O85378   5.033   6.840   6.212
28379WAT     H185379   4.995   6.920   6.258
28379WAT     H285380   5.131   6.833   6.232
28380WAT      O85381   8.875   5.281   1.646
28380WAT     H185382   8.827   5.264   1.732
28380WAT     H285383   8.931   5.364   1.655
28381WAT      O85384   4.141   6.229   3.230
28381WAT     H185385   4.108   6.260   3.320
28381WAT     H285386   4.216   6.289   3.200
28382WAT      O85387   1.047   2.912   8.353
28382WAT     H185388   0.997   2.960   8.425
28382WAT     H285389   1.013   2.818   8.345
28383WAT      O85390   4.667   1.660   4.284
28383WAT     H185391   4.647   1.683   4.379
28383WAT     H285392   4.762   1.681   4.263
28384WAT      O85393   7.765   9.487   6.818
28384WAT     H185394   7.700   9.423   6.776
28384WAT     H285395   7.740   9.501   6.914
28385WAT      O85396   3.434   3.537   8.480
28385WAT     H185397   3.533   3.537   8.462
28385WAT     H285398   3.418   3.541   8.578
28386WAT      O85399   1.760   3.515   2.796
28386WAT     H185400   1.856   3.512   2.767
28386WAT     H285401   1.702   3.532   2.716
28387WAT      O85402   7.388   0.990   4.807
28387WAT     H185403   7.475   0.957   4.842
28387WAT     H285404   7.384   0.978   4.708
28388WAT      O85405   7.710   1.014   3.859
28388WAT     H185406   7.795   1.021   3.911
28388WAT     H285407   7.694   0.919   3.831
28389WAT      O85408   7.946   1.805   9.195
28389WAT     H185409   7.985   1.790   9.104
28389WAT     H285410   7.849   1.782   9.193
28390WAT      O85411   1.348   9.792   1.682
28390WAT     H185412   1.350   9.886   1.648
28390WAT     H285413   1.308   9.790   1.774
28391WAT      O85414   4.686   2.766   3.131
28391WAT     H185415   4.751   2.690   3.130
28391WAT     H285416   4.723   2.841   3.186
28392WAT      O85417   3.411   2.037   0.120
28392WAT     H185418   3.449   2.032   0.028
28392WAT     H285419   3.413   1.946   0.162
28393WAT      O85420   1.420   1.143   1.197
28393WAT     H185421   1.324   1.153   1.223
28393WAT     H285422   1.430   1.062   1.139
28394WAT      O85423   6.908   1.092   8.764
28394WAT     H185424   6.910   1.176   8.818
28394WAT     H285425   6.859   1.021   8.814
28395WAT      O85426   1.213   5.206   9.018
28395WAT     H185427   1.150   5.188   8.942
28395WAT     H285428   1.275   5.128   9.028
28396WAT      O85429   9.413   4.349   0.367
28396WAT     H185430   9.433   4.447   0.364
28396WAT     H285431   9.488   4.300   0.411
28397WAT      O85432   5.070   7.199   1.620
28397WAT     H185433   5.025   7.288   1.610
28397WAT     H285434   5.021   7.131   1.565
28398WAT      O85435   3.502   0.167   6.506
28398WAT     H185436   3.555   0.119   6.576
28398WAT     H285437   3.558   0.181   6.425
28399WAT      O85438   1.619   2.211   6.595
28399WAT     H185439   1.542   2.188   6.655
28399WAT     H285440   1.627   2.141   6.524
28400WAT      O85441   0.268   8.106   3.174
28400WAT     H185442   0.352   8.062   3.206
28400WAT     H285443   0.291   8.188   3.122
28401WAT      O85444   3.164   0.869   2.436
28401WAT     H185445   3.118   0.828   2.357
28401WAT     H285446   3.137   0.964   2.444
28402WAT      O85447   2.713   1.785   0.986
28402WAT     H185448   2.620   1.796   0.952
28402WAT     H285449   2.724   1.839   1.070
28403WAT      O85450   6.031   4.078   5.263
28403WAT     H185451   5.992   4.146   5.325
28403WAT     H285452   6.131   4.078   5.273
28404WAT      O85453   8.078   7.093   1.608
28404WAT     H185454   8.050   7.121   1.700
28404WAT     H285455   7.999   7.062   1.557
28405WAT      O85456   6.329   0.416   2.856
28405WAT     H185457   6.274   0.333   2.846
28405WAT     H285458   6.372   0.437   2.768
28406WAT      O85459   0.801   3.997   7.219
28406WAT     H185460   0.704   3.986   7.196
28406WAT     H285461   0.834   4.084   7.183
28407WAT      O85462   3.760   0.572   4.892
28407WAT     H185463   3.812   0.493   4.858
28407WAT     H285464   3.667   0.569   4.855
28408WAT      O85465   8.158   8.023   1.096
28408WAT     H185466   8.185   8.113   1.129
28408WAT     H285467   8.233   7.983   1.043
28409WAT      O85468   1.347   7.973   4.248
28409WAT     H185469   1.440   8.009   4.237
28409WAT     H285470   1.319   7.928   4.163
28410WAT      O85471   9.838   6.024   4.234
28410WAT     H185472   9.791   6.053   4.318
28410WAT     H285473   9.820   6.091   4.162
28411WAT      O85474   7.392   9.735   4.352
28411WAT     H185475   7.350   9.757   4.264
28411WAT     H285476   7.320   9.721   4.421
28412WAT      O85477   9.423   2.424   2.484
28412WAT     H185478   9.340   2.440   2.430
28412WAT     H285479   9.418   2.335   2.528
28413WAT      O85480   6.227   7.749   8.398
28413WAT     H185481   6.207   7.830   8.344
28413WAT     H285482   6.297   7.771   8.466
28414WAT      O85483   5.281   2.932   6.692
28414WAT     H185484   5.329   2.999   6.750
28414WAT     H285485   5.276   2.844   6.740
28415WAT      O85486   5.619   1.000   1.073
28415WAT     H185487   5.547   1.035   1.014
28415WAT     H285488   5.703   0.989   1.020
28416WAT      O85489   2.649   3.275   9.185
28416WAT     H185490   2.620   3.303   9.276
28416WAT     H285491   2.598   3.194   9.156
28417WAT      O85492   5.555   3.493   4.448
28417WAT     H185493   5.544   3.520   4.543
28417WAT     H285494   5.545   3.394   4.440
28418WAT      O85495   6.875   5.954   3.004
28418WAT     H185496   6.905   5.951   3.100
28418WAT     H285497   6.782   5.989   3.000
28419WAT      O85498   4.464   9.787   2.238
28419WAT     H185499   4.552   9.748   2.265
28419WAT     H285500   4.422   9.729   2.168
28420WAT      O85501   8.966   7.392   8.687
28420WAT     H185502   8.984   7.311   8.631
28420WAT     H285503   8.871   7.422   8.674
28421WAT      O85504   2.720   2.750   2.897
28421WAT     H185505   2.803   2.806   2.889
28421WAT     H285506   2.655   2.794   2.958
28422WAT      O85507   6.029   9.779   8.286
28422WAT     H185508   6.084   9.753   8.206
28422WAT     H285509   5.964   9.850   8.260
28423WAT      O85510   7.306   7.836   6.613
28423WAT     H185511   7.355   7.756   6.580
28423WAT     H285512   7.220   7.808   6.656
28424WAT      O85513   1.073   6.754   4.989
28424WAT     H185514   0.993   6.807   4.964
28424WAT     H285515   1.119   6.722   4.906
28425WAT      O85516   8.504   6.980   8.101
28425WAT     H185517   8.548   6.893   8.124
28425WAT     H285518   8.546   7.054   8.154
28426WAT      O85519   7.254   9.238   9.212
28426WAT     H185520   7.237   9.336   9.222
28426WAT     H285521   7.352   9.220   9.213
28427WAT      O85522   8.572   1.206   5.545
28427WAT     H185523   8.532   1.117   5.563
28427WAT     H285524   8.555   1.232   5.449
28428WAT      O85525   0.536   7.441   7.814
28428WAT     H185526   0.594   7.454   7.894
28428WAT     H285527   0.562   7.505   7.743
28429WAT      O85528   0.908   7.671   3.917
28429WAT     H185529   0.940   7.601   3.852
28429WAT     H285530   0.887   7.627   4.004
28430WAT      O85531   5.881   5.122   2.182
28430WAT     H185532   5.901   5.030   2.217
28430WAT     H285533   5.966   5.172   2.169
28431WAT      O85534   1.238   0.685   9.651
28431WAT     H185535   1.335   0.660   9.657
28431WAT     H285536   1.217   0.752   9.723
28432WAT      O85537   1.008   3.296   5.281
28432WAT     H185538   1.031   3.316   5.186
28432WAT     H285539   0.966   3.205   5.286
28433WAT      O85540   0.313   2.699   4.015
28433WAT     H185541   0.277   2.609   4.037
28433WAT     H285542   0.317   2.755   4.098
28434WAT      O85543   8.789   2.634   5.696
28434WAT     H185544   8.839   2.557   5.655
28434WAT     H285545   8.853   2.693   5.746
28435WAT      O85546   2.731   3.519   3.235
28435WAT     H185547   2.776   3.524   3.145
28435WAT     H285548   2.647   3.573   3.233
28436WAT      O85549   3.119   5.955   4.245
28436WAT     H185550   3.163   5.892   4.308
28436WAT     H285551   3.170   5.957   4.159
28437WAT      O85552   4.729   6.294   4.906
28437WAT     H185553   4.727   6.390   4.880
28437WAT     H285554   4.636   6.259   4.912
28438WAT      O85555   5.277   8.111   4.187
28438WAT     H185556   5.318   8.068   4.267
28438WAT     H285557   5.316   8.202   4.175
28439WAT      O85558   8.569   3.440   4.747
28439WAT     H185559   8.481   3.396   4.727
28439WAT     H285560   8.627   3.376   4.797
28440WAT      O85561   7.049   8.095   8.579
28440WAT     H185562   7.017   8.023   8.518
28440WAT     H285563   7.082   8.173   8.526
28441WAT      O85564   2.876   6.276   4.203
28441WAT     H185565   2.876   6.374   4.226
28441WAT     H285566   2.795   6.233   4.242
28442WAT      O85567   1.586   4.341   2.578
28442WAT     H185568   1.604   4.246   2.604
28442WAT     H285569   1.595   4.400   2.659
28443WAT      O85570   0.702   9.480   3.165
28443WAT     H185571   0.692   9.384   3.142
28443WAT     H285572   0.612   9.523   3.173
28444WAT      O85573   1.529   2.463   2.043
28444WAT     H185574   1.623   2.432   2.057
28444WAT     H285575   1.484   2.405   1.976
28445WAT      O85576   7.618   0.987   8.450
28445WAT     H185577   7.578   0.936   8.526
28445WAT     H285578   7.637   1.081   8.480
28446WAT      O85579   3.526   7.855   6.517
28446WAT     H185580   3.613   7.849   6.468
28446WAT     H285581   3.464   7.917   6.468
28447WAT      O85582   7.307   1.231   1.812
28447WAT     H185583   7.252   1.161   1.767
28447WAT     H285584   7.401   1.228   1.777
28448WAT      O85585   6.055   1.470   9.846
28448WAT     H185586   5.975   1.454   9.904
28448WAT     H285587   6.120   1.528   9.895
28449WAT      O85588   5.118   3.799   4.861
28449WAT     H185589   5.191   3.797   4.929
28449WAT     H285590   5.059   3.719   4.873
28450WAT      O85591   9.887   7.393   6.169
28450WAT     H185592   9.814   7.332   6.139
28450WAT     H285593   9.858   7.488   6.161
28451WAT      O85594   6.643   9.664   9.637
28451WAT     H185595   6.580   9.632   9.567
28451WAT     H285596   6.736   9.662   9.601
28452WAT      O85597   7.367   3.097   1.119
28452WAT     H185598   7.389   3.182   1.166
28452WAT     H285599   7.328   3.117   1.029
28453WAT      O85600   6.338   9.069   6.494
28453WAT     H185601   6.271   8.994   6.493
28453WAT     H285602   6.329   9.120   6.579
28454WAT      O85603   4.599   5.631   8.575
28454WAT     H185604   4.672   5.586   8.525
28454WAT     H285605   4.540   5.562   8.618
28455WAT      O85606   2.274   5.554   5.876
28455WAT     H185607   2.358   5.597   5.841
28455WAT     H285608   2.260   5.581   5.971
28456WAT      O85609   2.815   4.663   0.298
28456WAT     H185610   2.792   4.693   0.391
28456WAT     H285611   2.791   4.566   0.288
28457WAT      O85612   4.742   0.512   6.426
28457WAT     H185613   4.692   0.557   6.499
28457WAT     H285614   4.817   0.570   6.396
28458WAT      O85615   1.414   0.886   8.921
28458WAT     H185616   1.319   0.896   8.891
28458WAT     H285617   1.427   0.935   9.007
28459WAT      O85618   5.779   2.872   1.149
28459WAT     H185619   5.758   2.970   1.152
28459WAT     H285620   5.823   2.850   1.062
28460WAT      O85621   7.499   9.043   6.056
28460WAT     H185622   7.432   9.019   6.126
28460WAT     H285623   7.581   8.987   6.068
28461WAT      O85624   0.870   2.693   9.521
28461WAT     H185625   0.912   2.606   9.547
28461WAT     H285626   0.782   2.702   9.569
28462WAT      O85627   5.701   6.384   0.848
28462WAT     H185628   5.684   6.459   0.785
28462WAT     H285629   5.688   6.296   0.801
28463WAT      O85630   3.873   7.542   3.016
28463WAT     H185631   3.879   7.642   3.008
28463WAT     H285632   3.965   7.503   3.022
28464WAT      O85633   5.923   8.471   4.233
28464WAT     H185634   5.863   8.528   4.176
28464WAT     H285635   5.883   8.461   4.324
28465WAT      O85636   6.923   2.508   9.366
28465WAT     H185637   6.948   2.427   9.313
28465WAT     H285638   6.988   2.582   9.348
28466WAT      O85639   9.307   2.845   0.822
28466WAT     H185640   9.400   2.875   0.802
28466WAT     H285641   9.284   2.870   0.916
28467WAT      O85642   2.050   2.824   7.860
28467WAT     H185643   2.088   2.799   7.949
28467WAT     H285644   2.030   2.741   7.807
28468WAT      O85645   7.800   0.796   8.926
28468WAT     H185646   7.727   0.792   8.858
28468WAT     H285647   7.767   0.841   9.009
28469WAT      O85648   9.377   3.835   5.966
28469WAT     H185649   9.317   3.911   5.941
28469WAT     H285650   9.325   3.749   5.964
28470WAT      O85651   1.319   6.419   4.023
28470WAT     H185652   1.315   6.356   4.100
28470WAT     H285653   1.264   6.500   4.043
28471WAT      O85654   5.681   9.790   8.309
28471WAT     H185655   5.638   9.811   8.221
28471WAT     H285656   5.679   9.691   8.324
28472WAT      O85657   2.399   2.882   8.068
28472WAT     H185658   2.422   2.944   8.143
28472WAT     H285659   2.393   2.934   7.982
28473WAT      O85660   8.710   0.555   5.467
28473WAT     H185661   8.734   0.479   5.407
28473WAT     H285662   8.611   0.562   5.474
28474WAT      O85663   4.212   3.322   8.022
28474WAT     H185664   4.179   3.414   8.044
28474WAT     H285665   4.251   3.280   8.104
28475WAT      O85666   1.439   1.661   4.081
28475WAT     H185667   1.385   1.577   4.085
28475WAT     H285668   1.398   1.723   4.014
28476WAT      O85669   6.686   0.739   5.838
28476WAT     H185670   6.668   0.643   5.861
28476WAT     H285671   6.657   0.798   5.913
28477WAT      O85672   2.469   7.834   3.827
28477WAT     H185673   2.460   7.928   3.795
28477WAT     H285674   2.385   7.783   3.806
28478WAT      O85675   5.015   6.715   8.748
28478WAT     H185676   5.010   6.791   8.812
28478WAT     H285677   5.106   6.674   8.752
28479WAT      O85678   8.365   8.555   9.209
28479WAT     H185679   8.273   8.541   9.246
28479WAT     H285680   8.417   8.613   9.272
28480WAT      O85681   7.499   3.547   9.650
28480WAT     H185682   7.492   3.583   9.743
28480WAT     H285683   7.420   3.578   9.597
28481WAT      O85684   0.083   1.865   1.545
28481WAT     H185685   0.127   1.904   1.626
28481WAT     H285686   0.050   1.773   1.566
28482WAT      O85687   0.827   9.759   8.469
28482WAT     H185688   0.840   9.819   8.391
28482WAT     H285689   0.807   9.666   8.437
28483WAT      O85690   3.815   9.353   5.372
28483WAT     H185691   3.764   9.275   5.407
28483WAT     H285692   3.913   9.330   5.368
28484WAT      O85693   4.085   7.568   6.300
28484WAT     H185694   4.081   7.634   6.376
28484WAT     H285695   4.169   7.583   6.248
28485WAT      O85696   3.693   5.220   2.398
28485WAT     H185697   3.651   5.268   2.321
28485WAT     H285698   3.688   5.122   2.383
28486WAT      O85699   1.800   0.404   8.447
28486WAT     H185700   1.846   0.489   8.473
28486WAT     H285701   1.785   0.403   8.348
28487WAT      O85702   1.239   6.831   3.709
28487WAT     H185703   1.244   6.741   3.666
28487WAT     H285704   1.331   6.867   3.722
28488WAT      O85705   8.494   6.175   9.095
28488WAT     H185706   8.577   6.127   9.124
28488WAT     H285707   8.422   6.109   9.075
28489WAT      O85708   0.943   3.435   8.190
28489WAT     H185709   0.964   3.489   8.109
28489WAT     H285710   0.844   3.427   8.201
28490WAT      O85711   4.980   1.391   8.440
28490WAT     H185712   4.932   1.326   8.499
28490WAT     H285713   5.078   1.385   8.457
28491WAT      O85714   5.501   8.649   7.478
28491WAT     H185715   5.596   8.643   7.446
28491WAT     H285716   5.488   8.735   7.527
28492WAT      O85717   0.556   6.605   5.281
28492WAT     H185718   0.465   6.592   5.320
28492WAT     H285719   0.572   6.702   5.264
28493WAT      O85720   4.683   4.361   3.261
28493WAT     H185721   4.762   4.322   3.309
28493WAT     H285722   4.631   4.288   3.218
28494WAT      O85723   0.911   2.053   4.053
28494WAT     H185724   0.999   2.037   4.098
28494WAT     H285725   0.842   1.991   4.090
28495WAT      O85726   6.247   8.683   0.135
28495WAT     H185727   6.320   8.614   0.137
28495WAT     H285728   6.273   8.757   0.074
28496WAT      O85729   0.680   0.402   3.995
28496WAT     H185730   0.733   0.419   3.913
28496WAT     H285731   0.714   0.320   4.041
28497WAT      O85732   2.628   6.477   1.976
28497WAT     H185733   2.717   6.463   2.018
28497WAT     H285734   2.626   6.433   1.887
28498WAT      O85735   7.231   0.482   6.475
28498WAT     H185736   7.272   0.526   6.555
28498WAT     H285737   7.286   0.403   6.447
28499WAT      O85738   2.147   9.502   8.620
28499WAT     H185739   2.122   9.419   8.670
28499WAT     H285740   2.245   9.502   8.603
28500WAT      O85741   7.641   4.836   1.700
28500WAT     H185742   7.554   4.881   1.684
28500WAT     H285743   7.643   4.749   1.650
28501WAT      O85744   0.318   0.243   4.782
28501WAT     H185745   0.221   0.218   4.778
28501WAT     H285746   0.367   0.177   4.839
28502WAT      O85747   6.528   2.095   8.147
28502WAT     H185748   6.616   2.053   8.121
28502WAT     H285749   6.523   2.102   8.246
28503WAT      O85750   7.095   4.627   6.145
28503WAT     H185751   7.159   4.551   6.158
28503WAT     H285752   7.084   4.644   6.047
28504WAT      O85753   3.770   5.154   2.061
28504WAT     H185754   3.716   5.143   1.978
28504WAT     H285755   3.751   5.243   2.102
28505WAT      O85756   4.573   6.694   3.886
28505WAT     H185757   4.630   6.619   3.917
28505WAT     H285758   4.593   6.713   3.790
28506WAT      O85759   1.140   3.330   7.668
28506WAT     H185760   1.195   3.398   7.718
28506WAT     H285761   1.045   3.359   7.666
28507WAT      O85762   2.337   3.498   6.865
28507WAT     H185763   2.287   3.463   6.945
28507WAT     H285764   2.273   3.545   6.804
28508WAT      O85765   5.019   4.063   7.360
28508WAT     H185766   5.117   4.082   7.366
28508WAT     H285767   4.999   3.975   7.403
28509WAT      O85768   8.466   0.304   5.671
28509WAT     H185769   8.384   0.284   5.725
28509WAT     H285770   8.504   0.219   5.635
28510WAT      O85771   1.048   1.959   8.408
28510WAT     H185772   1.117   2.031   8.399
28510WAT     H285773   0.962   1.991   8.367
28511WAT      O85774   8.279   9.376   4.942
28511WAT     H185775   8.215   9.371   4.866
28511WAT     H285776   8.231   9.402   5.025
28512WAT      O85777   7.993   8.577   5.475
28512WAT     H185778   7.900   8.606   5.494
28512WAT     H285779   8.040   8.555   5.560
28513WAT      O85780   5.178   7.399   8.486
28513WAT     H185781   5.133   7.310   8.496
28513WAT     H285782   5.277   7.387   8.492
28514WAT      O85783   6.024   7.299   2.637
28514WAT     H185784   5.947   7.340   2.587
28514WAT     H285785   6.034   7.203   2.611
28515WAT      O85786   2.109   9.423   6.716
28515WAT     H185787   2.050   9.405   6.795
28515WAT     H285788   2.101   9.519   6.690
28516WAT      O85789   3.328   2.016   6.323
28516WAT     H185790   3.391   2.064   6.383
28516WAT     H285791   3.380   1.953   6.264
28517WAT      O85792   7.382   8.566   2.607
28517WAT     H185793   7.423   8.475   2.617
28517WAT     H285794   7.286   8.562   2.633
28518WAT      O85795   2.455   7.517   7.245
28518WAT     H185796   2.454   7.617   7.243
28518WAT     H285797   2.431   7.485   7.336
28519WAT      O85798   0.495   9.361   7.367
28519WAT     H185799   0.511   9.264   7.387
28519WAT     H285800   0.523   9.416   7.445
28520WAT      O85801   3.744   7.431   2.762
28520WAT     H185802   3.781   7.519   2.733
28520WAT     H285803   3.818   7.366   2.776
28521WAT      O85804   6.098   4.025   7.879
28521WAT     H185805   6.197   4.039   7.878
28521WAT     H285806   6.078   3.929   7.859
28522WAT      O85807   2.980   8.461   3.868
28522WAT     H185808   2.984   8.558   3.845
28522WAT     H285809   2.943   8.450   3.960
28523WAT      O85810   7.881   8.000   8.228
28523WAT     H185811   7.895   8.074   8.163
28523WAT     H285812   7.819   7.932   8.188
28524WAT      O85813   3.052   5.142   9.124
28524WAT     H185814   3.025   5.069   9.186
28524WAT     H285815   3.042   5.111   9.029
28525WAT      O85816   0.643   4.930   5.183
28525WAT     H185817   0.617   4.865   5.112
28525WAT     H285818   0.604   5.020   5.162
28526WAT      O85819   0.622   8.796   3.187
28526WAT     H185820   0.712   8.838   3.197
28526WAT     H285821   0.625   8.728   3.114
28527WAT      O85822   8.665   7.165   6.812
28527WAT     H185823   8.735   7.164   6.883
28527WAT     H285824   8.596   7.095   6.833
28528WAT      O85825   8.853   3.472   5.304
28528WAT     H185826   8.927   3.404   5.311
28528WAT     H285827   8.784   3.453   5.375
28529WAT      O85828   4.040   1.318   2.143
28529WAT     H185829   3.976   1.310   2.066
28529WAT     H285830   3.991   1.304   2.229
28530WAT      O85831   6.872   5.196   8.093
28530WAT     H185832   6.879   5.275   8.154
28530WAT     H285833   6.836   5.118   8.143
28531WAT      O85834   6.077   7.280   9.621
28531WAT     H185835   6.126   7.224   9.554
28531WAT     H285836   5.979   7.265   9.611
28532WAT      O85837   6.835   6.038   5.874
28532WAT     H185838   6.737   6.024   5.864
28532WAT     H285839   6.878   5.955   5.911
28533WAT      O85840   2.841   5.680   3.617
28533WAT     H185841   2.810   5.717   3.530
28533WAT     H285842   2.938   5.656   3.611
28534WAT      O85843   8.844   5.022   1.270
28534WAT     H185844   8.819   4.980   1.182
28534WAT     H285845   8.881   4.952   1.331
28535WAT      O85846   3.735   2.728   5.208
28535WAT     H185847   3.800   2.652   5.202
28535WAT     H285848   3.779   2.807   5.249
28536WAT      O85849   1.555   6.568   3.085
28536WAT     H185850   1.599   6.488   3.044
28536WAT     H285851   1.620   6.645   3.086
28537WAT      O85852   3.277   9.318   4.966
28537WAT     H185853   3.209   9.387   4.991
28537WAT     H285854   3.307   9.333   4.872
28538WAT      O85855   1.422   1.453   2.866
28538WAT     H185856   1.429   1.455   2.965
28538WAT     H285857   1.455   1.366   2.831
28539WAT      O85858   8.263   9.680   1.772
28539WAT     H185859   8.224   9.712   1.858
28539WAT     H285860   8.222   9.592   1.747
28540WAT      O85861   1.658   5.315   8.483
28540WAT     H185862   1.730   5.368   8.527
28540WAT     H285863   1.698   5.244   8.427
28541WAT      O85864   6.800   9.689   7.324
28541WAT     H185865   6.895   9.679   7.354
28541WAT     H285866   6.739   9.667   7.400
28542WAT      O85867   6.964   2.465   4.138
28542WAT     H185868   6.993   2.559   4.122
28542WAT     H285869   6.960   2.448   4.237
28543WAT      O85870   9.754   3.170   2.951
28543WAT     H185871   9.711   3.209   2.870
28543WAT     H285872   9.684   3.152   3.020
28544WAT      O85873   5.695   2.020   3.883
28544WAT     H185874   5.656   2.061   3.800
28544WAT     H285875   5.626   2.020   3.955
28545WAT      O85876   2.037   2.559   4.882
28545WAT     H185877   2.128   2.546   4.921
28545WAT     H285878   2.045   2.604   4.793
28546WAT      O85879   0.424   3.371   2.252
28546WAT     H185880   0.349   3.426   2.215
28546WAT     H285881   0.434   3.288   2.198
28547WAT      O85882   6.462   4.725   6.679
28547WAT     H185883   6.531   4.671   6.728
28547WAT     H285884   6.491   4.820   6.674
28548WAT      O85885   1.793   5.311   4.745
28548WAT     H185886   1.849   5.262   4.812
28548WAT     H285887   1.840   5.394   4.716
28549WAT      O85888   1.845   5.778   7.603
28549WAT     H185889   1.844   5.692   7.655
28549WAT     H285890   1.752   5.805   7.581
28550WAT      O85891   1.999   1.564   8.579
28550WAT     H185892   2.067   1.627   8.541
28550WAT     H285893   2.046   1.489   8.627
28551WAT      O85894   4.980   8.416   7.620
28551WAT     H185895   4.996   8.508   7.584
28551WAT     H285896   4.885   8.389   7.602
28552WAT      O85897   3.900   2.097   6.012
28552WAT     H185898   3.804   2.072   6.023
28552WAT     H285899   3.911   2.195   6.031
28553WAT      O85900   8.320   0.789   5.457
28553WAT     H185901   8.226   0.778   5.426
28553WAT     H285902   8.364   0.699   5.462
28554WAT      O85903   3.552   7.010   0.309
28554WAT     H185904   3.493   6.963   0.243
28554WAT     H285905   3.615   7.070   0.259
28555WAT      O85906   3.694   1.793   9.881
28555WAT     H185907   3.622   1.861   9.870
28555WAT     H285908   3.782   1.840   9.893
28556WAT      O85909   2.797   2.657   3.514
28556WAT     H185910   2.841   2.739   3.551
28556WAT     H285911   2.829   2.641   3.420
28557WAT      O85912   8.261   0.146   7.059
28557WAT     H185913   8.318   0.207   7.114
28557WAT     H285914   8.265   0.174   6.963
28558WAT      O85915   8.139   6.979   4.334
28558WAT     H185916   8.056   6.956   4.384
28558WAT     H285917   8.130   7.070   4.293
28559WAT      O85918   6.121   6.831   1.241
28559WAT     H185919   6.033   6.876   1.259
28559WAT     H285920   6.194   6.886   1.281
28560WAT      O85921   7.523   3.249   4.990
28560WAT     H185922   7.570   3.166   4.961
28560WAT     H285923   7.590   3.320   5.011
28561WAT      O85924   8.383   1.306   6.265
28561WAT     H185925   8.479   1.276   6.268
28561WAT     H285926   8.324   1.231   6.296
28562WAT      O85927   5.134   3.484   0.163
28562WAT     H185928   5.151   3.582   0.151
28562WAT     H285929   5.129   3.440   0.073
28563WAT      O85930   0.163   5.380   7.783
28563WAT     H185931   0.228   5.310   7.752
28563WAT     H285932   0.140   5.364   7.879
28564WAT      O85933   7.124   1.465   6.794
28564WAT     H185934   7.054   1.398   6.770
28564WAT     H285935   7.209   1.443   6.747
28565WAT      O85936   3.125   1.827   5.015
28565WAT     H185937   3.158   1.776   5.095
28565WAT     H285938   3.140   1.924   5.029
28566WAT      O85939   9.112   8.592   4.452
28566WAT     H185940   9.068   8.518   4.401
28566WAT     H285941   9.043   8.655   4.485
28567WAT      O85942   4.008   4.792   1.949
28567WAT     H185943   3.999   4.883   1.987
28567WAT     H285944   4.105   4.770   1.937
28568WAT      O85945   9.693   5.802   1.260
28568WAT     H185946   9.618   5.739   1.243
28568WAT     H285947   9.711   5.807   1.358
28569WAT      O85948   0.869   2.816   7.637
28569WAT     H185949   0.902   2.910   7.644
28569WAT     H285950   0.913   2.772   7.559
28570WAT      O85951   6.214   3.060   9.178
28570WAT     H185952   6.214   2.970   9.222
28570WAT     H285953   6.154   3.057   9.098
28571WAT      O85954   8.076   0.752   4.204
28571WAT     H185955   8.127   0.678   4.159
28571WAT     H285956   8.127   0.838   4.194
28572WAT      O85957   9.752   2.073   2.192
28572WAT     H185958   9.779   2.108   2.103
28572WAT     H285959   9.677   2.128   2.229
28573WAT      O85960   6.346   0.263   5.439
28573WAT     H185961   6.427   0.207   5.461
28573WAT     H285962   6.322   0.318   5.518
28574WAT      O85963   6.154   2.442   8.966
28574WAT     H185964   6.059   2.447   8.934
28574WAT     H285965   6.214   2.489   8.901
28575WAT      O85966   3.174   1.284   5.362
28575WAT     H185967   3.247   1.254   5.301
28575WAT     H285968   3.097   1.318   5.308
28576WAT      O85969   7.192   9.745   5.258
28576WAT     H185970   7.221   9.649   5.262
28576WAT     H285971   7.271   9.804   5.240
28577WAT      O85972   0.287   1.227   5.862
28577WAT     H185973   0.204   1.172   5.869
28577WAT     H285974   0.368   1.167   5.866
28578WAT      O85975   2.100   2.519   0.831
28578WAT     H185976   2.187   2.485   0.795
28578WAT     H285977   2.033   2.524   0.757
28579WAT      O85978   3.000   0.853   9.558
28579WAT     H185979   2.990   0.764   9.602
28579WAT     H285980   3.048   0.843   9.471
28580WAT      O85981   6.076   5.393   4.452
28580WAT     H185982   6.083   5.488   4.483
28580WAT     H285983   6.123   5.383   4.364
28581WAT      O85984   1.818   7.253   4.338
28581WAT     H185985   1.794   7.323   4.404
28581WAT     H285986   1.737   7.226   4.286
28582WAT      O85987   3.824   8.205   1.380
28582WAT     H185988   3.819   8.116   1.426
28582WAT     H285989   3.778   8.274   1.436
28583WAT      O85990   5.797   5.058   9.689
28583WAT     H185991   5.874   4.994   9.678
28583WAT     H285992   5.778   5.070   9.786
28584WAT      O85993   8.599   4.380   3.872
28584WAT     H185994   8.635   4.433   3.795
28584WAT     H285995   8.670   4.318   3.906
28585WAT      O85996   8.817   1.388   7.088
28585WAT     H185997   8.840   1.374   6.992
28585WAT     H285998   8.746   1.458   7.096
28586WAT      O85999   4.899   9.756   9.207
28586WAT     H186000   4.836   9.795   9.141
28586WAT     H286001   4.848   9.707   9.278
28587WAT      O86002   7.298   9.833   6.782
28587WAT     H186003   7.215   9.866   6.828
28587WAT     H286004   7.373   9.898   6.797
28588WAT      O86005   2.326   4.849   5.511
28588WAT     H186006   2.257   4.882   5.446
28588WAT     H286007   2.408   4.906   5.504
28589WAT      O86008   6.544   3.188   4.005
28589WAT     H186009   6.589   3.144   4.082
28589WAT     H286010   6.544   3.287   4.019
28590WAT      O86011   2.135   5.781   2.210
28590WAT     H186012   2.184   5.813   2.290
28590WAT     H286013   2.180   5.815   2.127
28591WAT      O86014   0.914   8.441   4.248
28591WAT     H186015   1.010   8.428   4.273
28591WAT     H286016   0.865   8.354   4.257
28592WAT      O86017   7.836   7.873   4.721
28592WAT     H186018   7.935   7.857   4.715
28592WAT     H286019   7.790   7.825   4.647
28593WAT      O86020   4.805   8.583   0.586
28593WAT     H186021   4.848   8.666   0.552
28593WAT     H286022   4.867   8.505   0.573
28594WAT      O86023   6.141   1.611   5.734
28594WAT     H186024   6.088   1.679   5.785
28594WAT     H286025   6.129   1.626   5.636
28595WAT      O86026   3.772   5.885   8.761
28595WAT     H186027   3.745   5.970   8.715
28595WAT     H286028   3.693   5.826   8.772
28596WAT      O86029   0.805   4.091   4.538
28596WAT     H186030   0.727   4.033   4.515
28596WAT     H286031   0.877   4.078   4.470
28597WAT      O86032   0.659   1.945   4.472
28597WAT     H186033   0.665   1.880   4.397
28597WAT     H286034   0.751   1.964   4.508
28598WAT      O86035   8.354   0.876   0.922
28598WAT     H186036   8.436   0.930   0.905
28598WAT     H286037   8.311   0.907   1.007
28599WAT      O86038   2.388   3.024   8.329
28599WAT     H186039   2.466   3.076   8.364
28599WAT     H286040   2.332   2.991   8.405
28600WAT      O86041   2.372   8.063   0.464
28600WAT     H186042   2.455   8.065   0.520
28600WAT     H286043   2.356   7.970   0.431
28601WAT      O86044   9.429   2.090   0.411
28601WAT     H186045   9.515   2.099   0.360
28601WAT     H286046   9.393   1.997   0.398
28602WAT      O86047   8.476   0.118   9.813
28602WAT     H186048   8.445   0.144   9.905
28602WAT     H286049   8.557   0.170   9.789
28603WAT      O86050   9.119   9.572   7.361
28603WAT     H186051   9.165   9.522   7.434
28603WAT     H286052   9.182   9.585   7.285
28604WAT      O86053   1.212   3.130   8.900
28604WAT     H186054   1.233   3.032   8.907
28604WAT     H286055   1.146   3.144   8.826
28605WAT      O86056   3.883   7.299   8.861
28605WAT     H186057   3.971   7.291   8.907
28605WAT     H286058   3.809   7.288   8.928
28606WAT      O86059   4.539   5.325   1.457
28606WAT     H186060   4.578   5.365   1.540
28606WAT     H286061   4.479   5.249   1.482
28607WAT      O86062   0.556   0.826   6.160
28607WAT     H186063   0.622   0.800   6.231
28607WAT     H286064   0.515   0.914   6.184
28608WAT      O86065   9.207   4.863   0.744
28608WAT     H186066   9.234   4.813   0.827
28608WAT     H286067   9.159   4.801   0.682
28609WAT      O86068   7.473   4.515   6.420
28609WAT     H186069   7.511   4.589   6.367
28609WAT     H286070   7.507   4.427   6.385
28610WAT      O86071   7.364   5.643   1.652
28610WAT     H186072   7.330   5.717   1.710
28610WAT     H286073   7.397   5.680   1.565
28611WAT      O86074   1.061   9.654   2.093
28611WAT     H186075   1.083   9.569   2.141
28611WAT     H286076   0.992   9.635   2.023
28612WAT      O86077   3.324   2.348   1.972
28612WAT     H186078   3.325   2.432   1.918
28612WAT     H286079   3.406   2.294   1.950
28613WAT      O86080   5.190   4.929   0.556
28613WAT     H186081   5.212   5.026   0.559
28613WAT     H286082   5.234   4.888   0.476
28614WAT      O86083   0.780   2.972   7.046
28614WAT     H186084   0.777   2.879   7.008
28614WAT     H286085   0.819   2.969   7.138
28615WAT      O86086   9.381   1.662   7.139
28615WAT     H186087   9.415   1.597   7.070
28615WAT     H286088   9.382   1.754   7.102
28616WAT      O86089   5.431   3.809   0.090
28616WAT     H186090   5.421   3.870   0.169
28616WAT     H286091   5.487   3.853   0.020
28617WAT      O86092   0.934   6.505   8.193
28617WAT     H186093   0.920   6.572   8.120
28617WAT     H286094   1.014   6.531   8.247
28618WAT      O86095   3.134   6.697   1.799
28618WAT     H186096   3.134   6.719   1.701
28618WAT     H286097   3.101   6.603   1.811
28619WAT      O86098   0.251   7.955   0.992
28619WAT     H186099   0.307   7.892   0.938
28619WAT     H286100   0.276   8.049   0.970
28620WAT      O86101   5.383   6.369   1.134
28620WAT     H186102   5.334   6.322   1.061
28620WAT     H286103   5.319   6.422   1.189
28621WAT      O86104   6.064   6.699   9.882
28621WAT     H186105   6.016   6.775   9.839
28621WAT     H286106   6.144   6.733   9.931
28622WAT      O86107   0.771   3.198   8.404
28622WAT     H186108   0.849   3.256   8.427
28622WAT     H286109   0.702   3.253   8.356
28623WAT      O86110   7.636   1.815   8.105
28623WAT     H186111   7.552   1.805   8.158
28623WAT     H286112   7.616   1.802   8.008
28624WAT      O86113   5.267   3.231   7.474
28624WAT     H186114   5.264   3.281   7.561
28624WAT     H286115   5.211   3.149   7.481
28625WAT      O86116   6.298   8.991   1.049
28625WAT     H186117   6.250   9.023   1.130
28625WAT     H286118   6.380   8.941   1.077
28626WAT      O86119   5.616   0.314   1.652
28626WAT     H186120   5.672   0.384   1.696
28626WAT     H286121   5.524   0.315   1.692
28627WAT      O86122   4.644   2.221   8.862
28627WAT     H186123   4.647   2.122   8.853
28627WAT     H286124   4.732   2.260   8.834
28628WAT      O86125   6.245   9.113   5.575
28628WAT     H186126   6.167   9.126   5.637
28628WAT     H286127   6.258   9.015   5.558
28629WAT      O86128   4.840   6.105   9.389
28629WAT     H186129   4.756   6.058   9.417
28629WAT     H286130   4.837   6.123   9.291
28630WAT      O86131   3.211   4.227   7.413
28630WAT     H186132   3.185   4.182   7.327
28630WAT     H286133   3.128   4.253   7.463
28631WAT      O86134   6.914   8.486   4.488
28631WAT     H186135   6.819   8.466   4.467
28631WAT     H286136   6.973   8.423   4.437
28632WAT      O86137   0.732   1.258   2.968
28632WAT     H186138   0.670   1.248   2.890
28632WAT     H286139   0.781   1.345   2.961
28633WAT      O86140   3.950   9.096   0.126
28633WAT     H186141   3.952   9.193   0.104
28633WAT     H286142   3.995   9.045   0.053
28634WAT      O86143   4.455   6.652   2.832
28634WAT     H186144   4.403   6.567   2.834
28634WAT     H286145   4.427   6.706   2.753
28635WAT      O86146   7.584   6.191   2.253
28635WAT     H186147   7.655   6.134   2.211
28635WAT     H286148   7.613   6.217   2.346
28636WAT      O86149   1.002   7.768   6.351
28636WAT     H186150   1.101   7.766   6.336
28636WAT     H286151   0.963   7.848   6.308
28637WAT      O86152   8.721   9.239   6.355
28637WAT     H186153   8.821   9.231   6.350
28637WAT     H286154   8.690   9.214   6.447
28638WAT      O86155   0.881   3.054   5.260
28638WAT     H186156   0.855   3.033   5.166
28638WAT     H286157   0.799   3.066   5.316
28639WAT      O86158   4.026   8.747   7.315
28639WAT     H186159   4.098   8.740   7.246
28639WAT     H286160   3.948   8.798   7.278
28640WAT      O86161   8.431   6.655   0.896
28640WAT     H186162   8.334   6.677   0.908
28640WAT     H286163   8.453   6.573   0.948
28641WAT      O86164   4.587   7.335   8.355
28641WAT     H186165   4.679   7.295   8.350
28641WAT     H286166   4.520   7.269   8.323
28642WAT      O86167   3.880   6.442   6.435
28642WAT     H186168   3.840   6.387   6.361
28642WAT     H286169   3.830   6.425   6.520
28643WAT      O86170   1.381   2.155   5.866
28643WAT     H186171   1.423   2.228   5.920
28643WAT     H286172   1.417   2.067   5.896
28644WAT      O86173   3.482   5.718   5.087
28644WAT     H186174   3.394   5.701   5.042
28644WAT     H286175   3.497   5.816   5.095
28645WAT      O86176   8.768   6.635   0.173
28645WAT     H186177   8.797   6.646   0.268
28645WAT     H286178   8.848   6.628   0.114
28646WAT      O86179   7.023   6.456   0.771
28646WAT     H186180   7.060   6.541   0.733
28646WAT     H286181   7.009   6.467   0.870
28647WAT      O86182   8.106   0.218   7.365
28647WAT     H186183   8.128   0.307   7.403
28647WAT     H286184   8.184   0.182   7.314
28648WAT      O86185   3.243   9.746   1.926
28648WAT     H186186   3.335   9.716   1.952
28648WAT     H286187   3.176   9.691   1.975
28649WAT      O86188   2.880   1.301   6.713
28649WAT     H186189   2.874   1.274   6.809
28649WAT     H286190   2.945   1.376   6.703
28650WAT      O86191   2.548   8.039   2.452
28650WAT     H186192   2.607   8.044   2.371
28650WAT     H286193   2.467   7.984   2.430
28651WAT      O86194   5.237   5.754   2.109
28651WAT     H186195   5.327   5.794   2.094
28651WAT     H286196   5.226   5.673   2.052
28652WAT      O86197   5.418   7.069   5.890
28652WAT     H186198   5.373   6.985   5.859
28652WAT     H286199   5.405   7.079   5.989
28653WAT      O86200   2.127   0.345   8.875
28653WAT     H186201   2.046   0.371   8.822
28653WAT     H286202   2.204   0.331   8.812
28654WAT      O86203   6.104   5.759   0.663
28654WAT     H186204   6.010   5.751   0.629
28654WAT     H286205   6.112   5.842   0.719
28655WAT      O86206   2.492   1.934   3.714
28655WAT     H186207   2.478   2.030   3.689
28655WAT     H286208   2.570   1.927   3.777
28656WAT      O86209   4.400   5.118   0.726
28656WAT     H186210   4.336   5.117   0.803
28656WAT     H286211   4.435   5.211   0.712
28657WAT      O86212   9.413   5.042   7.580
28657WAT     H186213   9.342   5.091   7.531
28657WAT     H286214   9.503   5.067   7.543
28658WAT      O86215   6.013   3.786   1.001
28658WAT     H186216   5.947   3.726   1.045
28658WAT     H286217   5.981   3.809   0.909
28659WAT      O86218   3.415   9.291   4.666
28659WAT     H186219   3.471   9.214   4.636
28659WAT     H286220   3.319   9.270   4.649
28660WAT      O86221   5.137   5.568   3.419
28660WAT     H186222   5.117   5.533   3.511
28660WAT     H286223   5.208   5.512   3.377
28661WAT      O86224   6.410   5.322   3.212
28661WAT     H186225   6.446   5.369   3.293
28661WAT     H286226   6.481   5.264   3.173
28662WAT      O86227   9.536   7.518   9.288
28662WAT     H186228   9.616   7.526   9.229
28662WAT     H286229   9.561   7.471   9.373
28663WAT      O86230   0.478   8.121   8.710
28663WAT     H186231   0.570   8.102   8.743
28663WAT     H286232   0.412   8.068   8.763
28664WAT      O86233   9.348   7.756   7.938
28664WAT     H186234   9.318   7.678   7.882
28664WAT     H286235   9.271   7.787   7.994
28665WAT      O86236   1.919   4.693   4.200
28665WAT     H186237   1.854   4.725   4.131
28665WAT     H286238   2.004   4.746   4.193
28666WAT      O86239   7.046   5.034   2.159
28666WAT     H186240   7.008   5.041   2.251
28666WAT     H286241   7.042   4.939   2.128
28667WAT      O86242   5.682   3.755   2.231
28667WAT     H186243   5.747   3.815   2.278
28667WAT     H286244   5.598   3.805   2.212
28668WAT      O86245   9.146   7.828   8.129
28668WAT     H186246   9.118   7.735   8.151
28668WAT     H286247   9.065   7.886   8.121
28669WAT      O86248   4.723   0.581   5.699
28669WAT     H186249   4.790   0.555   5.768
28669WAT     H286250   4.733   0.523   5.618
28670WAT      O86251   9.356   9.694   9.130
28670WAT     H186252   9.411   9.675   9.049
28670WAT     H286253   9.279   9.753   9.106
28671WAT      O86254   3.939   2.087   2.712
28671WAT     H186255   3.891   2.170   2.740
28671WAT     H286256   3.907   2.059   2.621
28672WAT      O86257   5.345   4.419   9.661
28672WAT     H186258   5.400   4.462   9.589
28672WAT     H286259   5.401   4.352   9.709
28673WAT      O86260   7.316   5.617   9.862
28673WAT     H186261   7.334   5.642   9.957
28673WAT     H286262   7.346   5.691   9.802
28674WAT      O86263   1.344   7.562   3.983
28674WAT     H186264   1.275   7.603   4.043
28674WAT     H286265   1.399   7.634   3.941
28675WAT      O86266   3.757   5.145   3.686
28675WAT     H186267   3.845   5.132   3.641
28675WAT     H286268   3.713   5.056   3.697
28676WAT      O86269   0.975   4.813   7.248
28676WAT     H186270   0.889   4.860   7.268
28676WAT     H286271   1.045   4.841   7.314
28677WAT      O86272   2.422   0.885   7.434
28677WAT     H186273   2.467   0.828   7.365
28677WAT     H286274   2.384   0.827   7.506
28678WAT      O86275   2.243   7.980   7.995
28678WAT     H186276   2.185   8.060   8.013
28678WAT     H286277   2.187   7.905   7.960
28679WAT      O86278   9.306   7.114   2.897
28679WAT     H186279   9.303   7.128   2.798
28679WAT     H286280   9.375   7.173   2.937
28680WAT      O86281   8.950   3.914   3.278
28680WAT     H186282   8.900   3.827   3.277
28680WAT     H286283   9.042   3.900   3.242
28681WAT      O86284   2.050   4.248   9.612
28681WAT     H186285   2.058   4.176   9.543
28681WAT     H286286   2.060   4.337   9.568
28682WAT      O86287   8.859   7.086   1.921
28682WAT     H186288   8.789   7.057   1.856
28682WAT     H286289   8.821   7.085   2.014
28683WAT      O86290   9.711   6.341   1.424
28683WAT     H186291   9.723   6.273   1.496
28683WAT     H286292   9.800   6.364   1.384
28684WAT      O86293   3.029   2.368   7.512
28684WAT     H186294   2.992   2.414   7.592
28684WAT     H286295   3.117   2.327   7.534
28685WAT      O86296   1.476   0.730   1.664
28685WAT     H186297   1.560   0.772   1.628
28685WAT     H286298   1.448   0.655   1.605
28686WAT      O86299   9.055   9.043   5.443
28686WAT     H186300   9.082   9.083   5.531
28686WAT     H286301   9.065   9.112   5.371
28687WAT      O86302   2.018   0.009   7.292
28687WAT     H186303   1.937  -0.045   7.270
28687WAT     H286304   1.992   0.104   7.306
28688WAT      O86305   6.641   9.260   5.759
28688WAT     H186306   6.599   9.181   5.803
28688WAT     H286307   6.635   9.339   5.819
28689WAT      O86308   9.696   0.403   0.855
28689WAT     H186309   9.637   0.448   0.921
28689WAT     H286310   9.790   0.399   0.890
28690WAT      O86311   5.119   6.462   3.015
28690WAT     H186312   5.032   6.478   3.061
28690WAT     H286313   5.102   6.427   2.923
28691WAT      O86314   5.142   8.514   9.862
28691WAT     H186315   5.082   8.514   9.941
28691WAT     H286316   5.205   8.436   9.868
28692WAT      O86317   1.318   4.207   3.502
28692WAT     H186318   1.388   4.262   3.548
28692WAT     H286319   1.348   4.185   3.409
28693WAT      O86320   8.936   2.065   9.258
28693WAT     H186321   8.844   2.060   9.219
28693WAT     H286322   8.930   2.088   9.355
28694WAT      O86323   5.872   0.569   8.671
28694WAT     H186324   5.812   0.495   8.701
28694WAT     H286325   5.938   0.590   8.743
28695WAT      O86326   0.504   8.539   2.794
28695WAT     H186327   0.408   8.513   2.784
28695WAT     H286328   0.559   8.486   2.728
28696WAT      O86329   6.337   3.717   4.236
28696WAT     H186330   6.361   3.684   4.145
28696WAT     H286331   6.418   3.715   4.294
28697WAT      O86332   1.605   4.632   5.074
28697WAT     H186333   1.691   4.585   5.090
28697WAT     H286334   1.562   4.653   5.162
28698WAT      O86335   0.262   0.526   0.234
28698WAT     H186336   0.182   0.585   0.233
28698WAT     H286337   0.311   0.534   0.147
28699WAT      O86338   9.215   6.159   7.738
28699WAT     H186339   9.270   6.146   7.821
28699WAT     H286340   9.120   6.172   7.763
28700WAT      O86341   4.528   9.800   8.767
28700WAT     H186342   4.575   9.716   8.792
28700WAT     H286343   4.590   9.860   8.717
28701WAT      O86344   8.020   8.003   2.438
28701WAT     H186345   8.020   8.099   2.468
28701WAT     H286346   7.933   7.982   2.393
28702WAT      O86347   8.501   6.589   3.306
28702WAT     H186348   8.496   6.606   3.404
28702WAT     H286349   8.425   6.634   3.260
28703WAT      O86350   5.212   0.263   6.761
28703WAT     H186351   5.268   0.180   6.765
28703WAT     H286352   5.271   0.343   6.753
28704WAT      O86353   8.955   7.778   7.309
28704WAT     H186354   8.980   7.825   7.394
28704WAT     H286355   8.979   7.835   7.231
28705WAT      O86356   0.139   4.192   0.918
28705WAT     H186357   0.048   4.152   0.910
28705WAT     H286358   0.141   4.258   0.993
28706WAT      O86359   9.762   2.025   4.360
28706WAT     H186360   9.849   1.983   4.336
28706WAT     H286361   9.766   2.059   4.454
28707WAT      O86362   6.488   6.253   7.756
28707WAT     H186363   6.463   6.349   7.745
28707WAT     H286364   6.569   6.232   7.701
28708WAT      O86365   5.421   8.393   8.985
28708WAT     H186366   5.430   8.491   9.004
28708WAT     H286367   5.406   8.344   9.071
28709WAT      O86368   1.166   1.706   6.371
28709WAT     H186369   1.126   1.698   6.462
28709WAT     H286370   1.198   1.616   6.341
28710WAT      O86371   4.247   5.883   0.993
28710WAT     H186372   4.232   5.909   0.898
28710WAT     H286373   4.184   5.809   1.018
28711WAT      O86374   1.051   3.582   7.090
28711WAT     H186375   1.095   3.596   7.002
28711WAT     H286376   1.062   3.664   7.146
28712WAT      O86377   1.996   5.927   0.506
28712WAT     H186378   1.989   5.853   0.573
28712WAT     H286379   2.014   6.013   0.555
28713WAT      O86380   1.775   2.964   4.061
28713WAT     H186381   1.769   3.037   4.128
28713WAT     H286382   1.865   2.966   4.017
28714WAT      O86383   8.218   0.596   7.750
28714WAT     H186384   8.195   0.503   7.719
28714WAT     H286385   8.154   0.623   7.823
28715WAT      O86386   8.755   7.500   3.968
28715WAT     H186387   8.704   7.450   3.898
28715WAT     H286388   8.694   7.523   4.044
28716WAT      O86389   2.493   0.329   4.654
28716WAT     H186390   2.473   0.427   4.647
28716WAT     H286391   2.588   0.312   4.629
28717WAT      O86392   8.395   6.941   8.782
28717WAT     H186393   8.424   6.929   8.688
28717WAT     H286394   8.474   6.963   8.840
28718WAT      O86395   3.882   6.927   5.527
28718WAT     H186396   3.889   6.926   5.627
28718WAT     H286397   3.869   6.833   5.494
28719WAT      O86398   3.143   2.836   5.775
28719WAT     H186399   3.051   2.856   5.810
28719WAT     H286400   3.176   2.751   5.816
28720WAT      O86401   9.849   0.455   3.188
28720WAT     H186402   9.824   0.506   3.106
28720WAT     H286403   9.779   0.388   3.209
28721WAT      O86404   8.682   1.892   5.228
28721WAT     H186405   8.637   1.905   5.139
28721WAT     H286406   8.648   1.959   5.293
28722WAT      O86407   8.682   2.962   5.764
28722WAT     H186408   8.619   2.907   5.709
28722WAT     H286409   8.773   2.921   5.762
28723WAT      O86410   7.756   6.551   2.042
28723WAT     H186411   7.743   6.456   2.014
28723WAT     H286412   7.799   6.602   1.967
28724WAT      O86413   7.968   4.469   7.367
28724WAT     H186414   8.051   4.503   7.322
28724WAT     H286415   7.913   4.546   7.397
28725WAT      O86416   9.673   6.551   8.654
28725WAT     H186417   9.666   6.492   8.574
28725WAT     H286418   9.608   6.521   8.723
28726WAT      O86419   7.736   4.295   5.486
28726WAT     H186420   7.726   4.290   5.386
28726WAT     H286421   7.801   4.226   5.517
28727WAT      O86422   8.970   4.568   7.245
28727WAT     H186423   9.021   4.602   7.324
28727WAT     H286424   8.967   4.468   7.248
28728WAT      O86425   4.411   9.643   7.846
28728WAT     H186426   4.492   9.684   7.803
28728WAT     H286427   4.427   9.633   7.944
28729WAT      O86428   3.063   1.529   6.708
28729WAT     H186429   3.107   1.573   6.786
28729WAT     H286430   3.129   1.520   6.633
28730WAT      O86431   1.569   2.263   8.244
28730WAT     H186432   1.504   2.222   8.308
28730WAT     H286433   1.526   2.342   8.199
28731WAT      O86434   1.084   9.481   6.833
28731WAT     H186435   1.001   9.510   6.880
28731WAT     H286436   1.162   9.490   6.895
28732WAT      O86437   5.755   2.907   8.583
28732WAT     H186438   5.833   2.969   8.578
28732WAT     H286439   5.731   2.876   8.491
28733WAT      O86440   0.992   3.729   5.660
28733WAT     H186441   0.961   3.634   5.672
28733WAT     H286442   1.092   3.731   5.651
28734WAT      O86443   1.330   5.521   9.086
28734WAT     H186444   1.426   5.536   9.062
28734WAT     H286445   1.287   5.459   9.020
28735WAT      O86446   9.190   5.805   5.217
28735WAT     H186447   9.177   5.898   5.184
28735WAT     H286448   9.256   5.804   5.292
28736WAT      O86449   0.872   8.517   6.863
28736WAT     H186450   0.970   8.538   6.858
28736WAT     H286451   0.845   8.467   6.781
28737WAT      O86452   9.785   0.691   3.750
28737WAT     H186453   9.813   0.596   3.766
28737WAT     H286454   9.767   0.704   3.652
28738WAT      O86455   3.357   9.390   2.016
28738WAT     H186456   3.331   9.414   2.109
28738WAT     H286457   3.450   9.422   1.998
28739WAT      O86458   9.250   0.754   7.418
28739WAT     H186459   9.161   0.750   7.372
28739WAT     H286460   9.319   0.789   7.354
28740WAT      O86461   9.779   4.349   7.946
28740WAT     H186462   9.726   4.431   7.926
28740WAT     H286463   9.796   4.344   8.045
28741WAT      O86464   1.247   5.751   7.641
28741WAT     H186465   1.271   5.830   7.698
28741WAT     H286466   1.148   5.736   7.645
28742WAT      O86467   4.497   6.328   1.778
28742WAT     H186468   4.504   6.344   1.680
28742WAT     H286469   4.491   6.415   1.826
28743WAT      O86470   3.199   1.475   6.017
28743WAT     H186471   3.298   1.463   6.026
28743WAT     H286472   3.176   1.572   6.027
28744WAT      O86473   1.357   8.048   8.988
28744WAT     H186474   1.323   8.066   8.896
28744WAT     H286475   1.382   8.135   9.032
28745WAT      O86476   9.474   6.618   7.609
28745WAT     H186477   9.410   6.648   7.539
28745WAT     H286478   9.466   6.519   7.622
28746WAT      O86479   2.278   4.506   3.287
28746WAT     H186480   2.285   4.604   3.267
28746WAT     H286481   2.191   4.487   3.332
28747WAT      O86482   9.837   9.325   9.378
28747WAT     H186483   9.825   9.256   9.449
28747WAT     H286484   9.829   9.416   9.418
28748WAT      O86485   3.888   6.861   8.038
28748WAT     H186486   3.879   6.780   7.980
28748WAT     H286487   3.925   6.833   8.127
28749WAT      O86488   0.023   8.405   8.923
28749WAT     H186489   0.041   8.307   8.918
28749WAT     H286490   0.074   8.452   8.852
28750WAT      O86491   1.621   3.287   8.303
28750WAT     H186492   1.689   3.255   8.237
28750WAT     H286493   1.576   3.208   8.345
28751WAT      O86494   5.808   2.334   8.134
28751WAT     H186495   5.873   2.406   8.157
28751WAT     H286496   5.821   2.306   8.039
28752WAT      O86497   4.567   7.209   0.232
28752WAT     H186498   4.548   7.214   0.330
28752WAT     H286499   4.527   7.125   0.195
28753WAT      O86500   9.105   8.000   5.661
28753WAT     H186501   9.077   8.016   5.756
28753WAT     H286502   9.084   7.906   5.636
28754WAT      O86503   9.508   8.193   8.699
28754WAT     H186504   9.429   8.148   8.658
28754WAT     H286505   9.591   8.159   8.655
28755WAT      O86506   8.642   0.970   1.419
28755WAT     H186507   8.563   0.960   1.479
28755WAT     H286508   8.712   1.025   1.464
28756WAT      O86509   8.071   6.163   2.656
28756WAT     H186510   8.110   6.128   2.741
28756WAT     H286511   7.998   6.228   2.676
28757WAT      O86512   3.772   4.661   1.945
28757WAT     H186513   3.867   4.690   1.936
28757WAT     H286514   3.725   4.722   2.009
28758WAT      O86515   7.706   1.979   0.128
28758WAT     H186516   7.639   1.914   0.090
28758WAT     H286517   7.711   1.968   0.227
28759WAT      O86518   5.593   6.111   9.828
28759WAT     H186519   5.599   6.172   9.748
28759WAT     H286520   5.598   6.016   9.798
28760WAT      O86521   1.376   4.919   8.685
28760WAT     H186522   1.415   4.855   8.619
28760WAT     H286523   1.400   5.012   8.659
28761WAT      O86524   2.168   7.874   4.795
28761WAT     H186525   2.194   7.807   4.725
28761WAT     H286526   2.137   7.958   4.751
28762WAT      O86527   3.538   8.421   3.306
28762WAT     H186528   3.488   8.345   3.346
28762WAT     H286529   3.576   8.393   3.217
28763WAT      O86530   5.837   3.625   5.947
28763WAT     H186531   5.783   3.630   5.863
28763WAT     H286532   5.779   3.593   6.022
28764WAT      O86533   3.038   8.195   4.535
28764WAT     H186534   3.110   8.126   4.546
28764WAT     H286535   3.054   8.271   4.598
28765WAT      O86536   0.234   0.994   8.218
28765WAT     H186537   0.192   1.036   8.137
28765WAT     H286538   0.311   0.937   8.190
28766WAT      O86539   2.663   2.073   5.583
28766WAT     H186540   2.695   1.982   5.555
28766WAT     H286541   2.702   2.142   5.523
28767WAT      O86542   8.387   5.734   7.614
28767WAT     H186543   8.425   5.647   7.645
28767WAT     H286544   8.428   5.759   7.527
28768WAT      O86545   5.517   3.567   0.199
28768WAT     H186546   5.441   3.507   0.222
28768WAT     H286547   5.487   3.637   0.134
28769WAT      O86548   2.013   1.519   2.091
28769WAT     H186549   2.039   1.578   2.015
28769WAT     H286550   1.921   1.542   2.122
28770WAT      O86551   3.157   1.714   7.249
28770WAT     H186552   3.233   1.652   7.266
28770WAT     H286553   3.088   1.702   7.321
28771WAT      O86554   0.828   3.874   6.207
28771WAT     H186555   0.847   3.963   6.166
28771WAT     H286556   0.876   3.802   6.156
28772WAT      O86557   7.899   4.857   4.404
28772WAT     H186558   7.833   4.791   4.440
28772WAT     H286559   7.856   4.947   4.399
28773WAT      O86560   6.146   2.707   0.010
28773WAT     H186561   6.110   2.641  -0.055
28773WAT     H286562   6.202   2.659   0.078
28774WAT      O86563   5.836   4.485   7.979
28774WAT     H186564   5.934   4.478   7.962
28774WAT     H286565   5.788   4.507   7.894
28775WAT      O86566   0.586   4.965   4.315
28775WAT     H186567   0.593   4.880   4.368
28775WAT     H286568   0.490   4.986   4.298
28776WAT      O86569   2.390   4.613   3.928
28776WAT     H186570   2.421   4.640   4.019
28776WAT     H286571   2.402   4.690   3.865
28777WAT      O86572   0.339   8.400   7.638
28777WAT     H186573   0.410   8.465   7.662
28777WAT     H286574   0.272   8.444   7.577
28778WAT      O86575   2.360   1.410   2.852
28778WAT     H186576   2.393   1.480   2.914
28778WAT     H286577   2.260   1.415   2.846
28779WAT      O86578   1.798   5.062   3.637
28779WAT     H186579   1.812   5.160   3.654
28779WAT     H286580   1.838   5.038   3.549
28780WAT      O86581   3.291   0.716   7.293
28780WAT     H186582   3.293   0.632   7.239
28780WAT     H286583   3.385   0.744   7.315
28781WAT      O86584   9.439   6.533   8.783
28781WAT     H186585   9.401   6.582   8.704
28781WAT     H286586   9.408   6.577   8.867
28782WAT      O86587   9.643   3.621   3.545
28782WAT     H186588   9.684   3.581   3.627
28782WAT     H286589   9.647   3.556   3.470
28783WAT      O86590   8.401   1.029   7.876
28783WAT     H186591   8.363   1.121   7.886
28783WAT     H286592   8.480   1.033   7.815
28784WAT      O86593   5.345   0.535   8.387
28784WAT     H186594   5.396   0.456   8.421
28784WAT     H286595   5.284   0.507   8.314
28785WAT      O86596   5.264   0.612   1.596
28785WAT     H186597   5.232   0.668   1.672
28785WAT     H286598   5.305   0.528   1.631
28786WAT      O86599   1.804   7.834   2.572
28786WAT     H186600   1.791   7.933   2.579
28786WAT     H286601   1.799   7.806   2.477
28787WAT      O86602   6.377   2.232   0.928
28787WAT     H186603   6.304   2.295   0.905
28787WAT     H286604   6.389   2.229   1.027
28788WAT      O86605   9.719   2.394   9.191
28788WAT     H186606   9.764   2.343   9.264
28788WAT     H286607   9.687   2.482   9.227
28789WAT      O86608   1.201   4.329   4.151
28789WAT     H186609   1.260   4.399   4.112
28789WAT     H286610   1.147   4.368   4.225
28790WAT      O86611   0.552   5.874   3.781
28790WAT     H186612   0.527   5.898   3.687
28790WAT     H286613   0.652   5.870   3.790
28791WAT      O86614   1.894   2.955   2.329
28791WAT     H186615   1.818   2.890   2.330
28791WAT     H286616   1.979   2.908   2.349
28792WAT      O86617   2.344   1.756   5.113
28792WAT     H186618   2.333   1.740   5.211
28792WAT     H286619   2.351   1.668   5.066
28793WAT      O86620   1.463   7.942   7.056
28793WAT     H186621   1.458   7.998   7.139
28793WAT     H286622   1.371   7.922   7.024
28794WAT      O86623   4.038   0.232   0.301
28794WAT     H186624   4.025   0.138   0.268
28794WAT     H286625   4.106   0.278   0.243
28795WAT      O86626   8.206   0.785   0.513
28795WAT     H186627   8.239   0.762   0.605
28795WAT     H286628   8.125   0.843   0.520
28796WAT      O86629   0.591   0.371   7.125
28796WAT     H186630   0.533   0.403   7.050
28796WAT     H286631   0.540   0.306   7.181
28797WAT      O86632   9.841   3.253   5.633
28797WAT     H186633   9.826   3.351   5.639
28797WAT     H286634   9.826   3.222   5.539
28798WAT      O86635   9.426   7.386   8.808
28798WAT     H186636   9.443   7.401   8.905
28798WAT     H286637   9.333   7.415   8.785
28799WAT      O86638   3.710   3.153   3.499
28799WAT     H186639   3.688   3.209   3.579
28799WAT     H286640   3.626   3.127   3.452
28800WAT      O86641   4.033   9.220   5.280
28800WAT     H186642   4.048   9.307   5.233
28800WAT     H286643   4.120   9.188   5.318
28801WAT      O86644   1.181   3.354   3.982
28801WAT     H186645   1.252   3.424   3.972
28801WAT     H286646   1.220   3.273   4.025
28802WAT      O86647   8.772   4.715   7.670
28802WAT     H186648   8.791   4.808   7.638
28802WAT     H286649   8.844   4.686   7.733
28803WAT      O86650   7.347   9.429   7.575
28803WAT     H186651   7.254   9.460   7.554
28803WAT     H286652   7.349   9.389   7.667
28804WAT      O86653   6.139   1.271   9.421
28804WAT     H186654   6.084   1.334   9.477
28804WAT     H286655   6.139   1.181   9.464
28805WAT      O86656   1.787   6.743   1.523
28805WAT     H186657   1.718   6.754   1.595
28805WAT     H286658   1.757   6.672   1.460
28806WAT      O86659   7.051   4.245   9.674
28806WAT     H186660   7.056   4.320   9.739
28806WAT     H286661   6.957   4.213   9.666
28807WAT      O86662   1.125   0.564   1.792
28807WAT     H186663   1.200   0.499   1.807
28807WAT     H286664   1.059   0.557   1.867
28808WAT      O86665   0.550   8.858   6.968
28808WAT     H186666   0.478   8.923   6.944
28808WAT     H286667   0.591   8.885   7.056
28809WAT      O86668   8.660   5.277   6.771
28809WAT     H186669   8.634   5.360   6.723
28809WAT     H286670   8.579   5.234   6.810
28810WAT      O86671   6.540   4.613   3.079
28810WAT     H186672   6.505   4.630   3.171
28810WAT     H286673   6.635   4.583   3.083
28811WAT      O86674   0.034   2.072   3.464
28811WAT     H186675  -0.056   2.030   3.452
28811WAT     H286676   0.090   2.015   3.524
28812WAT      O86677   3.039   5.997   9.779
28812WAT     H186678   3.010   5.908   9.745
28812WAT     H286679   2.979   6.025   9.855
28813WAT      O86680   7.900   8.193   5.421
28813WAT     H186681   7.824   8.238   5.468
28813WAT     H286682   7.895   8.214   5.323
28814WAT      O86683   4.877   0.829   7.902
28814WAT     H186684   4.850   0.800   7.994
28814WAT     H286685   4.838   0.766   7.835
28815WAT      O86686   9.202   5.397   3.952
28815WAT     H186687   9.217   5.488   3.913
28815WAT     H286688   9.290   5.355   3.972
28816WAT      O86689   9.467   7.242   7.143
28816WAT     H186690   9.487   7.302   7.221
28816WAT     H286691   9.548   7.236   7.084
28817WAT      O86692   1.226   3.204   0.998
28817WAT     H186693   1.235   3.282   1.059
28817WAT     H286694   1.317   3.168   0.976
28818WAT      O86695   2.898   2.920   3.610
28818WAT     H186696   2.814   2.972   3.595
28818WAT     H286697   2.956   2.968   3.675
28819WAT      O86698   6.493   5.488   9.383
28819WAT     H186699   6.583   5.528   9.365
28819WAT     H286700   6.498   5.389   9.371
28820WAT      O86701   4.011   9.160   4.327
28820WAT     H186702   4.043   9.069   4.353
28820WAT     H286703   4.070   9.229   4.368
28821WAT      O86704   8.222   9.100   0.709
28821WAT     H186705   8.237   9.007   0.742
28821WAT     H286706   8.234   9.102   0.610
28822WAT      O86707   1.453   1.308   7.500
28822WAT     H186708   1.451   1.324   7.598
28822WAT     H286709   1.514   1.374   7.456
28823WAT      O86710   9.019   0.497   0.755
28823WAT     H186711   9.060   0.482   0.665
28823WAT     H286712   8.920   0.506   0.744
28824WAT      O86713   1.332   8.279   4.933
28824WAT     H186714   1.316   8.344   5.007
28824WAT     H286715   1.427   8.287   4.901
28825WAT      O86716   2.251   9.441   8.956
28825WAT     H186717   2.299   9.514   8.907
28825WAT     H286718   2.184   9.399   8.895
28826WAT      O86719   8.392   6.113   7.453
28826WAT     H186720   8.416   6.187   7.516
28826WAT     H286721   8.311   6.139   7.401
28827WAT      O86722   8.340   7.747   8.892
28827WAT     H186723   8.310   7.654   8.868
28827WAT     H286724   8.359   7.798   8.808
28828WAT      O86725   1.495   8.743   6.676
28828WAT     H186726   1.533   8.777   6.590
28828WAT     H286727   1.564   8.687   6.723
28829WAT      O86728   3.487   4.325   3.585
28829WAT     H186729   3.480   4.226   3.570
28829WAT     H286730   3.581   4.354   3.567
28830WAT      O86731   4.214   4.552   5.835
28830WAT     H186732   4.279   4.488   5.877
28830WAT     H286733   4.249   4.583   5.747
28831WAT      O86734   1.408   2.363   0.990
28831WAT     H186735   1.407   2.455   0.952
28831WAT     H286736   1.423   2.297   0.917
28832WAT      O86737   1.008   4.551   5.961
28832WAT     H186738   1.104   4.553   5.934
28832WAT     H286739   0.967   4.641   5.946
28833WAT      O86740   2.687   1.290   6.277
28833WAT     H186741   2.694   1.333   6.367
28833WAT     H286742   2.624   1.213   6.282
28834WAT      O86743   8.182   5.562   6.658
28834WAT     H186744   8.100   5.576   6.713
28834WAT     H286745   8.158   5.516   6.573
28835WAT      O86746   0.551   8.928   9.208
28835WAT     H186747   0.631   8.987   9.218
28835WAT     H286748   0.480   8.956   9.273
28836WAT      O86749   0.654   9.521   8.640
28836WAT     H186750   0.645   9.525   8.540
28836WAT     H286751   0.563   9.521   8.681
28837WAT      O86752   2.655   0.083   5.364
28837WAT     H186753   2.570   0.040   5.333
28837WAT     H286754   2.639   0.181   5.376
28838WAT      O86755   2.068   0.181   1.925
28838WAT     H186756   2.107   0.098   1.884
28838WAT     H286757   2.115   0.202   2.010
28839WAT      O86758   7.996   6.356   7.198
28839WAT     H186759   7.938   6.418   7.250
28839WAT     H286760   8.059   6.409   7.141
28840WAT      O86761   4.102   6.757   1.393
28840WAT     H186762   4.128   6.854   1.390
28840WAT     H286763   4.093   6.728   1.488
28841WAT      O86764   1.091   7.616   0.366
28841WAT     H186765   1.122   7.554   0.293
28841WAT     H286766   1.098   7.710   0.334
28842WAT      O86767   4.988   0.783   4.975
28842WAT     H186768   5.014   0.841   4.898
28842WAT     H286769   4.982   0.837   5.058
28843WAT      O86770   0.264   9.471   1.697
28843WAT     H186771   0.197   9.432   1.633
28843WAT     H286772   0.216   9.510   1.776
28844WAT      O86773   5.309   1.297   6.637
28844WAT     H186774   5.224   1.247   6.620
28844WAT     H286775   5.301   1.348   6.723
28845WAT      O86776   1.224   9.700   3.197
28845WAT     H186777   1.316   9.717   3.163
28845WAT     H286778   1.214   9.740   3.288
28846WAT      O86779   1.158   1.556   2.883
28846WAT     H186780   1.256   1.542   2.868
28846WAT     H286781   1.130   1.643   2.843
28847WAT      O86782   0.979   8.224   3.345
28847WAT     H186783   0.979   8.303   3.406
28847WAT     H286784   1.068   8.217   3.300
28848WAT      O86785   8.791   6.752   6.146
28848WAT     H186786   8.752   6.831   6.193
28848WAT     H286787   8.717   6.695   6.111
28849WAT      O86788   0.208   9.147   2.729
28849WAT     H186789   0.159   9.234   2.721
28849WAT     H286790   0.159   9.087   2.792
28850WAT      O86791   8.874   1.371   6.812
28850WAT     H186792   8.812   1.394   6.737
28850WAT     H286793   8.967   1.365   6.777
28851WAT      O86794   4.009   5.829   9.559
28851WAT     H186795   3.987   5.915   9.513
28851WAT     H286796   3.962   5.826   9.648
28852WAT      O86797   7.419   0.354   4.759
28852WAT     H186798   7.462   0.432   4.712
28852WAT     H286799   7.465   0.338   4.846
28853WAT      O86800   4.270   5.556   8.067
28853WAT     H186801   4.326   5.623   8.019
28853WAT     H286802   4.301   5.548   8.162
28854WAT      O86803   0.656   8.613   3.002
28854WAT     H186804   0.744   8.655   2.982
28854WAT     H286805   0.603   8.604   2.917
28855WAT      O86806   6.085   9.027   2.440
28855WAT     H186807   6.121   8.941   2.476
28855WAT     H286808   5.992   9.013   2.406
28856WAT      O86809   7.735   8.005   2.018
28856WAT     H186810   7.765   7.911   2.000
28856WAT     H286811   7.636   8.008   2.026
28857WAT      O86812   8.065   3.164   9.386
28857WAT     H186813   8.162   3.141   9.383
28857WAT     H286814   8.027   3.136   9.475
28858WAT      O86815   7.229   7.405   4.354
28858WAT     H186816   7.244   7.479   4.419
28858WAT     H286817   7.131   7.391   4.340
28859WAT      O86818   5.940   0.544   0.961
28859WAT     H186819   5.856   0.501   0.929
28859WAT     H286820   5.998   0.566   0.883
28860WAT      O86821   3.456   6.546   3.101
28860WAT     H186822   3.522   6.527   3.173
28860WAT     H286823   3.505   6.578   3.020
28861WAT      O86824   7.002   5.522   8.036
28861WAT     H186825   7.061   5.602   8.052
28861WAT     H286826   6.967   5.489   8.124
28862WAT      O86827   0.735   1.607   3.186
28862WAT     H186828   0.740   1.692   3.240
28862WAT     H286829   0.641   1.573   3.185
28863WAT      O86830   8.652   2.226   8.111
28863WAT     H186831   8.638   2.275   8.025
28863WAT     H286832   8.616   2.281   8.186
28864WAT      O86833   0.477   2.864   6.250
28864WAT     H186834   0.390   2.913   6.258
28864WAT     H286835   0.461   2.772   6.216
28865WAT      O86836   9.130   7.194   7.177
28865WAT     H186837   9.074   7.277   7.180
28865WAT     H286838   9.119   7.144   7.263
28866WAT      O86839   8.366   2.960   0.028
28866WAT     H186840   8.397   3.037  -0.027
28866WAT     H286841   8.442   2.928   0.085
28867WAT      O86842   9.015   7.694   7.716
28867WAT     H186843   9.029   7.768   7.650
28867WAT     H286844   9.093   7.631   7.712
28868WAT      O86845   9.315   5.704   7.621
28868WAT     H186846   9.382   5.709   7.695
28868WAT     H286847   9.250   5.630   7.639
28869WAT      O86848   9.013   4.871   0.010
28869WAT     H186849   9.090   4.885  -0.053
28869WAT     H286850   8.928   4.874  -0.042
28870WAT      O86851   8.293   3.047   1.704
28870WAT     H186852   8.345   3.011   1.781
28870WAT     H286853   8.268   3.142   1.722
28871WAT      O86854   6.772   8.333   2.337
28871WAT     H186855   6.778   8.430   2.361
28871WAT     H286856   6.819   8.279   2.406
28872WAT      O86857   6.672   1.166   9.820
28872WAT     H186858   6.585   1.211   9.804
28872WAT     H286859   6.715   1.202   9.903
28873WAT      O86860   8.540   8.846   2.063
28873WAT     H186861   8.513   8.752   2.085
28873WAT     H286862   8.482   8.880   1.989
28874WAT      O86863   0.578   0.960   3.238
28874WAT     H186864   0.545   1.054   3.232
28874WAT     H286865   0.672   0.959   3.272
28875WAT      O86866   3.649   9.071   4.991
28875WAT     H186867   3.737   9.062   5.037
28875WAT     H286868   3.585   9.119   5.051
28876WAT      O86869   1.513   5.370   1.088
28876WAT     H186870   1.498   5.311   1.167
28876WAT     H286871   1.604   5.351   1.049
28877WAT      O86872   6.786   8.183   6.065
28877WAT     H186873   6.860   8.228   6.014
28877WAT     H286874   6.698   8.222   6.038
28878WAT      O86875   3.106   1.605   2.625
28878WAT     H186876   3.132   1.509   2.611
28878WAT     H286877   3.090   1.621   2.722
28879WAT      O86878   3.229   4.812   9.853
28879WAT     H186879   3.160   4.758   9.805
28879WAT     H286880   3.185   4.884   9.905
28880WAT      O86881   5.430   6.785   2.331
28880WAT     H186882   5.448   6.745   2.241
28880WAT     H286883   5.334   6.770   2.355
28881WAT      O86884   2.601   8.104   1.052
28881WAT     H186885   2.639   8.185   1.007
28881WAT     H286886   2.602   8.027   0.989
28882WAT      O86887   3.525   6.918   4.650
28882WAT     H186888   3.515   6.972   4.567
28882WAT     H286889   3.435   6.905   4.693
28883WAT      O86890   1.471   6.725   2.232
28883WAT     H186891   1.498   6.629   2.233
28883WAT     H286892   1.508   6.772   2.312
28884WAT      O86893   3.194   2.110   9.590
28884WAT     H186894   3.137   2.158   9.657
28884WAT     H286895   3.195   2.013   9.611
28885WAT      O86896   4.428   1.578   8.887
28885WAT     H186897   4.419   1.570   8.788
28885WAT     H286898   4.458   1.671   8.910
28886WAT      O86899   7.166   1.629   7.238
28886WAT     H186900   7.220   1.706   7.272
28886WAT     H286901   7.139   1.647   7.143
28887WAT      O86902   9.654   2.648   7.665
28887WAT     H186903   9.744   2.642   7.623
28887WAT     H286904   9.658   2.708   7.745
28888WAT      O86905   0.913   4.061   5.690
28888WAT     H186906   0.860   3.980   5.713
28888WAT     H286907   1.005   4.053   5.726
28889WAT      O86908   9.015   7.237   5.947
28889WAT     H186909   9.004   7.193   5.857
28889WAT     H286910   8.963   7.322   5.949
28890WAT      O86911   8.631   3.609   0.905
28890WAT     H186912   8.659   3.513   0.897
28890WAT     H286913   8.692   3.667   0.851
28891WAT      O86914   8.939   4.838   1.920
28891WAT     H186915   8.953   4.935   1.942
28891WAT     H286916   8.868   4.830   1.850
28892WAT      O86917   7.911   2.831   9.440
28892WAT     H186918   7.914   2.787   9.351
28892WAT     H286919   7.950   2.770   9.509
28893WAT      O86920   3.772   9.239   3.086
28893WAT     H186921   3.709   9.296   3.139
28893WAT     H286922   3.826   9.298   3.026
28894WAT      O86923   2.731   9.429   0.151
28894WAT     H186924   2.749   9.528   0.153
28894WAT     H286925   2.792   9.382   0.214
28895WAT      O86926   3.505   6.521   1.314
28895WAT     H186927   3.498   6.459   1.236
28895WAT     H286928   3.539   6.471   1.393
28896WAT      O86929   5.963   7.479   4.325
28896WAT     H186930   5.884   7.458   4.268
28896WAT     H286931   6.008   7.562   4.290
28897WAT      O86932   9.366   9.196   5.274
28897WAT     H186933   9.375   9.111   5.326
28897WAT     H286934   9.276   9.236   5.290
28898WAT      O86935   8.948   0.080   6.825
28898WAT     H186936   8.965   0.012   6.755
28898WAT     H286937   8.971   0.171   6.790
28899WAT      O86938   4.449   8.778   3.044
28899WAT     H186939   4.464   8.694   3.096
28899WAT     H286940   4.453   8.757   2.946
28900WAT      O86941   9.291   0.663   8.877
28900WAT     H186942   9.354   0.709   8.815
28900WAT     H286943   9.200   0.704   8.870
28901WAT      O86944   2.646   3.750   9.101
28901WAT     H186945   2.740   3.725   9.128
28901WAT     H286946   2.593   3.667   9.086
28902WAT      O86947   4.557   8.627   8.786
28902WAT     H186948   4.516   8.546   8.829
28902WAT     H286949   4.554   8.704   8.850
28903WAT      O86950   5.005   0.529   4.895
28903WAT     H186951   5.046   0.468   4.962
28903WAT     H286952   4.990   0.619   4.936
28904WAT      O86953   3.548   0.693   8.686
28904WAT     H186954   3.477   0.624   8.692
28904WAT     H286955   3.523   0.761   8.618
28905WAT      O86956   4.215   1.415   0.523
28905WAT     H186957   4.199   1.406   0.424
28905WAT     H286958   4.228   1.511   0.546
28906WAT      O86959   6.765   9.210   0.347
28906WAT     H186960   6.844   9.248   0.394
28906WAT     H286961   6.781   9.114   0.327
28907WAT      O86962   5.466   5.266   1.834
28907WAT     H186963   5.507   5.347   1.875
28907WAT     H286964   5.480   5.268   1.735
28908WAT      O86965   8.790   5.858   6.540
28908WAT     H186966   8.775   5.934   6.605
28908WAT     H286967   8.719   5.859   6.471
28909WAT      O86968   4.639   4.815   2.281
28909WAT     H186969   4.681   4.743   2.336
28909WAT     H286970   4.574   4.774   2.217
28910WAT      O86971   3.937   8.990   0.376
28910WAT     H186972   3.931   9.039   0.289
28910WAT     H286973   3.856   8.933   0.388
28911WAT      O86974   1.554   8.387   6.587
28911WAT     H186975   1.495   8.308   6.606
28911WAT     H286976   1.648   8.355   6.572
28912WAT      O86977   2.531   0.053   0.337
28912WAT     H186978   2.478  -0.022   0.377
28912WAT     H286979   2.505   0.139   0.381
28913WAT      O86980   1.345   8.078   2.269
28913WAT     H186981   1.421   8.025   2.308
28913WAT     H286982   1.300   8.023   2.198
28914WAT      O86983   1.239   0.217   7.086
28914WAT     H186984   1.201   0.213   7.178
28914WAT     H286985   1.213   0.135   7.035
28915WAT      O86986   0.241   4.136   2.233
28915WAT     H186987   0.142   4.125   2.239
28915WAT     H286988   0.268   4.220   2.279
28916WAT      O86989   1.065   2.522   1.387
28916WAT     H186990   1.109   2.470   1.314
28916WAT     H286991   1.026   2.606   1.350
28917WAT      O86992   4.104   9.393   3.711
28917WAT     H186993   4.007   9.414   3.696
28917WAT     H286994   4.112   9.310   3.765
28918WAT      O86995   8.712   9.769   1.272
28918WAT     H186996   8.762   9.811   1.197
28918WAT     H286997   8.659   9.839   1.321
28919WAT      O86998   4.040   7.035   3.461
28919WAT     H186999   3.997   6.987   3.385
28919WAT     H287000   4.053   7.131   3.436
28920WAT      O87001   6.560   0.777   2.194
28920WAT     H187002   6.601   0.838   2.262
28920WAT     H287003   6.555   0.824   2.106
28921WAT      O87004   4.796   5.656   5.805
28921WAT     H187005   4.801   5.598   5.724
28921WAT     H287006   4.821   5.750   5.780
28922WAT      O87007   8.567   5.107   1.158
28922WAT     H187008   8.598   5.022   1.117
28922WAT     H287009   8.626   5.182   1.128
28923WAT      O87010   0.333   5.973   3.950
28923WAT     H187011   0.392   5.936   3.879
28923WAT     H287012   0.290   6.057   3.917
28924WAT      O87013   9.304   7.865   6.083
28924WAT     H187014   9.365   7.786   6.089
28924WAT     H287015   9.223   7.841   6.030
28925WAT      O87016   9.841   2.621   1.901
28925WAT     H187017   9.867   2.529   1.873
28925WAT     H287018   9.767   2.654   1.842
28926WAT      O87019   8.321   8.433   8.898
28926WAT     H187020   8.327   8.374   8.979
28926WAT     H287021   8.260   8.510   8.917
28927WAT      O87022   4.428   8.239   0.228
28927WAT     H187023   4.450   8.336   0.214
28927WAT     H287024   4.508   8.184   0.207
28928WAT      O87025   3.413   8.977   5.846
28928WAT     H187026   3.314   8.973   5.859
28928WAT     H287027   3.437   9.061   5.798
28929WAT      O87028   5.067   4.560   6.578
28929WAT     H187029   5.095   4.599   6.491
28929WAT     H287030   4.993   4.615   6.618
28930WAT      O87031   7.378   4.095   6.948
28930WAT     H187032   7.384   4.059   7.042
28930WAT     H287033   7.365   4.194   6.951
28931WAT      O87034   9.848   9.345   8.839
28931WAT     H187035   9.838   9.393   8.926
28931WAT     H287036   9.945   9.332   8.820
28932WAT      O87037   9.714   0.720   2.554
28932WAT     H187038   9.729   0.763   2.466
28932WAT     H287039   9.692   0.623   2.540
28933WAT      O87040   3.119   3.823   8.341
28933WAT     H187041   3.147   3.885   8.414
28933WAT     H287042   3.035   3.776   8.368
28934WAT      O87043   5.335   2.846   2.099
28934WAT     H187044   5.284   2.929   2.124
28934WAT     H287045   5.294   2.806   2.018
28935WAT      O87046   5.036   4.887   0.128
28935WAT     H187047   5.003   4.834   0.206
28935WAT     H287048   4.983   4.971   0.119
28936WAT      O87049   2.832   8.349   7.454
28936WAT     H187050   2.894   8.275   7.482
28936WAT     H287051   2.803   8.334   7.360
28937WAT      O87052   0.268   5.446   0.274
28937WAT     H187053   0.343   5.382   0.263
28937WAT     H287054   0.195   5.423   0.209
28938WAT      O87055   2.978   4.548   3.860
28938WAT     H187056   3.028   4.597   3.931
28938WAT     H287057   2.887   4.587   3.850
28939WAT      O87058   1.499   5.212   7.322
28939WAT     H187059   1.440   5.224   7.402
28939WAT     H287060   1.533   5.118   7.319
28940WAT      O87061   8.263   8.126   6.220
28940WAT     H187062   8.291   8.216   6.253
28940WAT     H287063   8.309   8.054   6.272
28941WAT      O87064   3.144   2.598   2.143
28941WAT     H187065   3.108   2.638   2.058
28941WAT     H287066   3.243   2.603   2.143
28942WAT      O87067   8.463   5.405   5.645
28942WAT     H187068   8.548   5.386   5.694
28942WAT     H287069   8.427   5.493   5.674
28943WAT      O87070   1.011   8.743   1.197
28943WAT     H187071   1.031   8.767   1.292
28943WAT     H287072   1.080   8.678   1.164
28944WAT      O87073   0.593   6.727   9.171
28944WAT     H187074   0.611   6.631   9.190
28944WAT     H287075   0.646   6.784   9.234
28945WAT      O87076   5.738   6.181   9.205
28945WAT     H187077   5.644   6.181   9.172
28945WAT     H287078   5.786   6.261   9.170
28946WAT      O87079   5.406   2.819   7.022
28946WAT     H187080   5.487   2.765   7.043
28946WAT     H287081   5.362   2.783   6.940
28947WAT      O87082   0.301   0.281   6.394
28947WAT     H187083   0.384   0.336   6.393
28947WAT     H287084   0.238   0.313   6.322
28948WAT      O87085   4.939   0.967   7.088
28948WAT     H187086   4.952   0.909   7.168
28948WAT     H287087   4.880   1.044   7.112
28949WAT      O87088   8.531   1.156   4.600
28949WAT     H187089   8.437   1.124   4.615
28949WAT     H287090   8.590   1.123   4.674
28950WAT      O87091   2.751   3.807   4.139
28950WAT     H187092   2.821   3.754   4.186
28950WAT     H287093   2.795   3.875   4.079
28951WAT      O87094   8.977   6.706   4.175
28951WAT     H187095   9.072   6.689   4.151
28951WAT     H287096   8.929   6.744   4.095
28952WAT      O87097   3.167   1.410   7.483
28952WAT     H187098   3.189   1.373   7.574
28952WAT     H287099   3.108   1.347   7.435
28953WAT      O87100   6.281   3.644   6.733
28953WAT     H187101   6.208   3.683   6.788
28953WAT     H287102   6.302   3.552   6.766
28954WAT      O87103   6.479   2.369   1.854
28954WAT     H187104   6.381   2.360   1.873
28954WAT     H287105   6.530   2.305   1.912
28955WAT      O87106   0.088   3.188   7.378
28955WAT     H187107   0.037   3.257   7.327
28955WAT     H287108   0.042   3.100   7.372
28956WAT      O87109   5.723   5.297   5.257
28956WAT     H187110   5.689   5.291   5.351
28956WAT     H287111   5.816   5.262   5.253
28957WAT      O87112   7.963   6.779   5.053
28957WAT     H187113   8.003   6.796   4.963
28957WAT     H287114   8.035   6.756   5.118
28958WAT      O87115   7.063   6.946   2.696
28958WAT     H187116   7.018   7.014   2.754
28958WAT     H287117   7.157   6.934   2.727
28959WAT      O87118   3.638   8.851   0.175
28959WAT     H187119   3.550   8.815   0.145
28959WAT     H287120   3.711   8.814   0.118
28960WAT      O87121   8.402   4.792   9.532
28960WAT     H187122   8.396   4.695   9.559
28960WAT     H287123   8.412   4.799   9.433
28961WAT      O87124   8.318   6.088   0.064
28961WAT     H187125   8.295   6.033   0.144
28961WAT     H287126   8.414   6.117   0.071
28962WAT      O87127   2.711   2.947   8.474
28962WAT     H187128   2.698   2.898   8.388
28962WAT     H287129   2.701   3.045   8.458
28963WAT      O87130   9.145   8.785   1.559
28963WAT     H187131   9.068   8.848   1.548
28963WAT     H287132   9.133   8.732   1.643
28964WAT      O87133   7.983   7.125   1.844
28964WAT     H187134   7.889   7.106   1.818
28964WAT     H287135   8.003   7.082   1.932
28965WAT      O87136   8.638   6.271   2.427
28965WAT     H187137   8.610   6.315   2.512
28965WAT     H287138   8.631   6.172   2.437
28966WAT      O87139   2.678   2.817   8.221
28966WAT     H187140   2.594   2.797   8.170
28966WAT     H287141   2.747   2.852   8.159
28967WAT      O87142   7.328   1.377   6.614
28967WAT     H187143   7.367   1.325   6.690
28967WAT     H287144   7.376   1.353   6.529
28968WAT      O87145   6.169   4.501   9.367
28968WAT     H187146   6.222   4.422   9.397
28968WAT     H287147   6.223   4.556   9.303
28969WAT      O87148   7.568   2.042   6.311
28969WAT     H187149   7.560   1.954   6.264
28969WAT     H287150   7.485   2.060   6.364
28970WAT      O87151   2.187   6.331   1.593
28970WAT     H187152   2.129   6.412   1.587
28970WAT     H287153   2.201   6.307   1.689
28971WAT      O87154   5.946   1.325   0.372
28971WAT     H187155   6.041   1.313   0.343
28971WAT     H287156   5.885   1.299   0.297
28972WAT      O87157   3.099   1.217   3.374
28972WAT     H187158   3.136   1.127   3.352
28972WAT     H287159   3.015   1.206   3.427
28973WAT      O87160   4.238   1.662   6.467
28973WAT     H187161   4.233   1.761   6.478
28973WAT     H287162   4.294   1.623   6.540
28974WAT      O87163   1.879   0.214   1.727
28974WAT     H187164   1.935   0.202   1.809
28974WAT     H287165   1.799   0.269   1.749
28975WAT      O87166   2.883   8.473   4.305
28975WAT     H187167   2.897   8.386   4.352
28975WAT     H287168   2.860   8.544   4.372
28976WAT      O87169   2.945   5.003   2.480
28976WAT     H187170   2.931   5.018   2.578
28976WAT     H287171   3.041   4.986   2.462
28977WAT      O87172   5.585   0.442   1.187
28977WAT     H187173   5.593   0.531   1.141
28977WAT     H287174   5.557   0.373   1.121
28978WAT      O87175   5.953   3.097   0.888
28978WAT     H187176   5.951   2.999   0.907
28978WAT     H287177   5.864   3.125   0.850
28979WAT      O87178   4.857   8.722   6.557
28979WAT     H187179   4.867   8.626   6.530
28979WAT     H287180   4.838   8.777   6.476
28980WAT      O87181   5.473   4.005   2.581
28980WAT     H187182   5.546   3.997   2.514
28980WAT     H287183   5.384   3.996   2.535
28981WAT      O87184   4.566   1.856   1.715
28981WAT     H187185   4.515   1.928   1.667
28981WAT     H287186   4.575   1.776   1.655
28982WAT      O87187   8.053   0.778   9.145
28982WAT     H187188   7.971   0.798   9.091
28982WAT     H287189   8.108   0.709   9.097
28983WAT      O87190   0.116   9.517   4.716
28983WAT     H187191   0.085   9.598   4.765
28983WAT     H287192   0.117   9.439   4.778
28984WAT      O87193   9.581   6.740   4.535
28984WAT     H187194   9.654   6.801   4.504
28984WAT     H287195   9.502   6.748   4.473
28985WAT      O87196   2.998   4.367   0.973
28985WAT     H187197   3.004   4.463   0.946
28985WAT     H287198   3.074   4.344   1.034
28986WAT      O87199   4.667   3.538   9.100
28986WAT     H187200   4.722   3.613   9.063
28986WAT     H287201   4.683   3.455   9.046
28987WAT      O87202   5.724   6.987   1.917
28987WAT     H187203   5.823   6.992   1.929
28987WAT     H287204   5.693   7.066   1.865
28988WAT      O87205   4.094   4.923   5.735
28988WAT     H187206   4.105   4.952   5.640
28988WAT     H287207   4.048   4.835   5.739
28989WAT      O87208   3.578   3.966   7.321
28989WAT     H187209   3.664   4.012   7.342
28989WAT     H287210   3.566   3.961   7.222
28990WAT      O87211   2.530   7.230   1.509
28990WAT     H187212   2.558   7.192   1.597
28990WAT     H287213   2.461   7.301   1.524
28991WAT      O87214   4.623   9.438   6.722
28991WAT     H187215   4.636   9.512   6.788
28991WAT     H287216   4.601   9.354   6.771
28992WAT      O87217   0.111   9.240   8.463
28992WAT     H187218   0.016   9.210   8.453
28992WAT     H287219   0.145   9.272   8.374
28993WAT      O87220   0.338   7.327   9.240
28993WAT     H187221   0.386   7.279   9.167
28993WAT     H287222   0.289   7.405   9.202
28994WAT      O87223   6.048   7.061   2.483
28994WAT     H187224   6.102   7.002   2.543
28994WAT     H287225   6.051   7.025   2.389
28995WAT      O87226   3.263   6.156   3.499
28995WAT     H187227   3.228   6.155   3.406
28995WAT     H287228   3.360   6.132   3.499
28996WAT      O87229   0.435   6.848   8.966
28996WAT     H187230   0.488   6.821   9.046
28996WAT     H287231   0.340   6.819   8.979
28997WAT      O87232   9.857   8.762   8.801
28997WAT     H187233   9.760   8.780   8.789
28997WAT     H287234   9.910   8.838   8.764
28998WAT      O87235   7.134   1.729   9.680
28998WAT     H187236   7.158   1.668   9.604
28998WAT     H287237   7.214   1.783   9.706
28999WAT      O87238   7.936   4.972   9.702
28999WAT     H187239   8.034   4.983   9.718
28999WAT     H287240   7.890   4.952   9.788
29000WAT      O87241   7.778   3.020   5.461
29000WAT     H187242   7.804   3.070   5.378
29000WAT     H287243   7.813   2.927   5.456
29001WAT      O87244   7.333   8.185   4.570
29001WAT     H187245   7.243   8.206   4.531
29001WAT     H287246   7.327   8.188   4.670
29002WAT      O87247   9.235   8.725   8.308
29002WAT     H187248   9.263   8.704   8.402
29002WAT     H287249   9.228   8.825   8.297
29003WAT      O87250   6.420   9.433   5.096
29003WAT     H187251   6.442   9.367   5.025
29003WAT     H287252   6.457   9.403   5.184
29004WAT      O87253   4.273   1.157   9.470
29004WAT     H187254   4.177   1.130   9.473
29004WAT     H287255   4.302   1.189   9.560
29005WAT      O87256   7.682   0.047   8.363
29005WAT     H187257   7.677   0.070   8.265
29005WAT     H287258   7.634   0.116   8.416
29006WAT      O87259   8.978   8.475   7.293
29006WAT     H187260   9.071   8.513   7.298
29006WAT     H287261   8.983   8.375   7.296
29007WAT      O87262   6.652   2.909   9.193
29007WAT     H187263   6.567   2.860   9.175
29007WAT     H287264   6.687   2.882   9.283
29008WAT      O87265   3.893   5.368   8.678
29008WAT     H187266   3.907   5.400   8.772
29008WAT     H287267   3.832   5.431   8.630
29009WAT      O87268   1.066   2.381   4.311
29009WAT     H187269   1.135   2.310   4.299
29009WAT     H287270   1.060   2.406   4.408
29010WAT      O87271   4.824   1.640   8.449
29010WAT     H187272   4.886   1.562   8.451
29010WAT     H287273   4.865   1.714   8.394
29011WAT      O87274   1.588   7.617   7.909
29011WAT     H187275   1.565   7.690   7.844
29011WAT     H287276   1.571   7.528   7.865
29012WAT      O87277   9.367   1.275   5.139
29012WAT     H187278   9.275   1.298   5.169
29012WAT     H287279   9.414   1.224   5.211
29013WAT      O87280   4.574   3.932   6.506
29013WAT     H187281   4.570   4.004   6.575
29013WAT     H287282   4.669   3.902   6.495
29014WAT      O87283   1.158   9.744   0.263
29014WAT     H187284   1.237   9.687   0.240
29014WAT     H287285   1.164   9.831   0.215
29015WAT      O87286   7.587   6.006   1.688
29015WAT     H187287   7.531   5.975   1.765
29015WAT     H287288   7.562   6.100   1.664
29016WAT      O87289   0.569   7.621   4.691
29016WAT     H187290   0.640   7.553   4.672
29016WAT     H287291   0.486   7.575   4.723
29017WAT      O87292   0.054   2.824   5.566
29017WAT     H187293  -0.011   2.837   5.641
29017WAT     H287294   0.016   2.759   5.501
29018WAT      O87295   0.770   8.053   8.716
29018WAT     H187296   0.846   8.089   8.771
29018WAT     H287297   0.806   8.015   8.630
29019WAT      O87298   5.693   4.994   2.639
29019WAT     H187299   5.651   5.070   2.688
29019WAT     H287300   5.691   4.912   2.697
29020WAT      O87301   2.612   1.211   5.800
29020WAT     H187302   2.613   1.241   5.705
29020WAT     H287303   2.691   1.250   5.848
29021WAT      O87304   1.219   3.085   7.679
29021WAT     H187305   1.184   3.176   7.659
29021WAT     H287306   1.220   3.071   7.778
29022WAT      O87307   9.828   9.263   8.187
29022WAT     H187308   9.769   9.234   8.262
29022WAT     H287309   9.910   9.308   8.223
29023WAT      O87310   7.989   4.154   1.333
29023WAT     H187311   8.024   4.120   1.420
29023WAT     H287312   7.942   4.080   1.284
29024WAT      O87313   3.254   8.323   5.742
29024WAT     H187314   3.299   8.289   5.659
29024WAT     H287315   3.155   8.308   5.734
29025WAT      O87316   3.956   6.232   1.224
29025WAT     H187317   3.976   6.194   1.315
29025WAT     H287318   4.042   6.251   1.177
29026WAT      O87319   4.739   2.346   6.781
29026WAT     H187320   4.771   2.254   6.802
29026WAT     H287321   4.672   2.342   6.707
29027WAT      O87322   9.083   8.175   4.517
29027WAT     H187323   9.009   8.236   4.546
29027WAT     H287324   9.120   8.128   4.597
29028WAT      O87325   9.262   0.564   9.561
29028WAT     H187326   9.313   0.481   9.582
29028WAT     H287327   9.291   0.637   9.623
29029WAT      O87328   4.257   7.545   9.045
29029WAT     H187329   4.192   7.592   8.986
29029WAT     H287330   4.310   7.612   9.098
29030WAT      O87331   2.364   3.630   1.999
29030WAT     H187332   2.269   3.617   1.970
29030WAT     H287333   2.396   3.547   2.046
29031WAT      O87334   0.606   4.850   5.919
29031WAT     H187335   0.516   4.891   5.909
29031WAT     H287336   0.600   4.767   5.975
29032WAT      O87337   6.289   5.495   5.026
29032WAT     H187338   6.377   5.529   4.994
29032WAT     H287339   6.285   5.396   5.016
29033WAT      O87340   1.840   8.671   1.093
29033WAT     H187341   1.781   8.743   1.058
29033WAT     H287342   1.913   8.712   1.149
29034WAT      O87343   0.284   3.271   8.006
29034WAT     H187344   0.250   3.352   7.959
29034WAT     H287345   0.346   3.299   8.080
29035WAT      O87346   2.273   2.092   5.572
29035WAT     H187347   2.317   2.155   5.508
29035WAT     H287348   2.319   2.097   5.661
29036WAT      O87349   9.546   8.393   5.481
29036WAT     H187350   9.448   8.411   5.474
29036WAT     H287351   9.595   8.479   5.498
29037WAT      O87352   1.586   7.694   2.215
29037WAT     H187353   1.670   7.690   2.161
29037WAT     H287354   1.508   7.701   2.153
29038WAT      O87355   8.664   1.133   4.835
29038WAT     H187356   8.594   1.177   4.892
29038WAT     H287357   8.721   1.203   4.792
29039WAT      O87358   6.530   4.645   1.329
29039WAT     H187359   6.534   4.591   1.245
29039WAT     H287360   6.577   4.732   1.315
29040WAT      O87361   5.499   9.255   5.161
29040WAT     H187362   5.450   9.282   5.244
29040WAT     H287363   5.455   9.296   5.081
29041WAT      O87364   3.467   3.515   7.173
29041WAT     H187365   3.449   3.434   7.117
29041WAT     H287366   3.510   3.487   7.259
29042WAT      O87367   1.114   5.119   5.395
29042WAT     H187368   1.047   5.099   5.324
29042WAT     H287369   1.110   5.216   5.418
29043WAT      O87370   7.126   3.597   4.373
29043WAT     H187371   7.174   3.510   4.373
29043WAT     H287372   7.117   3.631   4.280
29044WAT      O87373   1.360   9.757   6.044
29044WAT     H187374   1.442   9.712   6.009
29044WAT     H287375   1.324   9.818   5.974
29045WAT      O87376   3.815   4.492   6.511
29045WAT     H187377   3.867   4.470   6.594
29045WAT     H287378   3.727   4.534   6.537
29046WAT      O87379   5.180   4.777   2.323
29046WAT     H187380   5.228   4.841   2.384
29046WAT     H287381   5.221   4.782   2.232
29047WAT      O87382   0.131   7.301   9.423
29047WAT     H187383   0.057   7.281   9.359
29047WAT     H287384   0.212   7.330   9.371
29048WAT      O87385   6.984   4.227   6.366
29048WAT     H187386   7.062   4.181   6.325
29048WAT     H287387   6.901   4.202   6.317
29049WAT      O87388   2.391   3.492   4.017
29049WAT     H187389   2.430   3.558   4.082
29049WAT     H287390   2.304   3.459   4.053
29050WAT      O87391   0.204   6.837   7.033
29050WAT     H187392   0.119   6.859   6.985
29050WAT     H287393   0.272   6.908   7.013
29051WAT      O87394   5.327   5.630   8.325
29051WAT     H187395   5.421   5.661   8.340
29051WAT     H287396   5.284   5.612   8.414
29052WAT      O87397   2.418   1.187   3.479
29052WAT     H187398   2.456   1.171   3.570
29052WAT     H287399   2.413   1.101   3.429
29053WAT      O87400   0.093   0.309   4.049
29053WAT     H187401   0.170   0.267   4.098
29053WAT     H287402   0.121   0.399   4.014
29054WAT      O87403   4.444   5.068   7.171
29054WAT     H187404   4.489   5.095   7.257
29054WAT     H287405   4.511   5.070   7.097
29055WAT      O87406   7.014   7.472   5.398
29055WAT     H187407   7.105   7.495   5.363
29055WAT     H287408   6.969   7.409   5.335
29056WAT      O87409   4.689   5.648   7.615
29056WAT     H187410   4.713   5.627   7.710
29056WAT     H287411   4.771   5.646   7.558
29057WAT      O87412   1.711   6.217   5.029
29057WAT     H187413   1.796   6.193   5.076
29057WAT     H287414   1.725   6.214   4.930
29058WAT      O87415   6.181   5.023   2.099
29058WAT     H187416   6.157   4.931   2.068
29058WAT     H287417   6.279   5.027   2.118
29059WAT      O87418   0.630   4.215   0.790
29059WAT     H187419   0.536   4.192   0.764
29059WAT     H287420   0.630   4.305   0.835
29060WAT      O87421   4.205   6.246   6.846
29060WAT     H187422   4.128   6.247   6.911
29060WAT     H287423   4.270   6.175   6.874
29061WAT      O87424   6.632   1.216   1.011
29061WAT     H187425   6.589   1.230   0.922
29061WAT     H287426   6.565   1.182   1.076
29062WAT      O87427   8.491   5.978   5.444
29062WAT     H187428   8.541   6.033   5.511
29062WAT     H287429   8.543   5.896   5.422
29063WAT      O87430   7.253   9.380   4.942
29063WAT     H187431   7.260   9.325   5.025
29063WAT     H287432   7.158   9.406   4.926
29064WAT      O87433   1.200   2.321   9.250
29064WAT     H187434   1.118   2.265   9.263
29064WAT     H287435   1.215   2.377   9.332
29065WAT      O87436   6.794   3.798   3.967
29065WAT     H187437   6.761   3.852   3.889
29065WAT     H287438   6.892   3.780   3.956
29066WAT      O87439   8.152   3.846   4.252
29066WAT     H187440   8.085   3.800   4.311
29066WAT     H287441   8.202   3.777   4.200
29067WAT      O87442   9.338   0.112   8.741
29067WAT     H187443   9.363   0.185   8.678
29067WAT     H287444   9.326   0.150   8.833
29068WAT      O87445   0.863   0.514   5.286
29068WAT     H187446   0.823   0.553   5.203
29068WAT     H287447   0.940   0.571   5.315
29069WAT      O87448   2.535   3.010   0.716
29069WAT     H187449   2.455   3.058   0.753
29069WAT     H287450   2.579   2.958   0.789
29070WAT      O87451   5.117   2.967   1.733
29070WAT     H187452   5.041   2.958   1.797
29070WAT     H287453   5.083   2.999   1.645
29071WAT      O87454   5.796   8.325   6.356
29071WAT     H187455   5.875   8.328   6.295
29071WAT     H287456   5.776   8.230   6.380
29072WAT      O87457   6.551   6.415   2.634
29072WAT     H187458   6.549   6.514   2.645
29072WAT     H287459   6.641   6.387   2.601
29073WAT      O87460   5.013   2.425   8.210
29073WAT     H187461   4.935   2.363   8.202
29073WAT     H287462   5.063   2.426   8.123
29074WAT      O87463   9.674   1.894   2.852
29074WAT     H187464   9.608   1.849   2.793
29074WAT     H287465   9.632   1.974   2.895
29075WAT      O87466   2.367   4.413   1.209
29075WAT     H187467   2.327   4.410   1.118
29075WAT     H287468   2.308   4.466   1.270
29076WAT      O87469   8.659   9.642   2.127
29076WAT     H187470   8.720   9.684   2.060
29076WAT     H287471   8.704   9.642   2.217
29077WAT      O87472   4.276   5.652   8.766
29077WAT     H187473   4.324   5.737   8.743
29077WAT     H287474   4.177   5.668   8.761
29078WAT      O87475   5.696   8.626   1.291
29078WAT     H187476   5.729   8.575   1.211
29078WAT     H287477   5.723   8.578   1.374
29079WAT      O87478   4.657   1.694   9.581
29079WAT     H187479   4.670   1.790   9.604
29079WAT     H287480   4.587   1.686   9.509
29080WAT      O87481   8.665   0.567   3.916
29080WAT     H187482   8.737   0.619   3.870
29080WAT     H287483   8.703   0.484   3.957
29081WAT      O87484   1.023   2.517   6.996
29081WAT     H187485   1.059   2.558   6.912
29081WAT     H287486   0.977   2.431   6.975
29082WAT      O87487   7.677   4.502   3.020
29082WAT     H187488   7.622   4.585   3.023
29082WAT     H287489   7.772   4.524   3.040
29083WAT      O87490   7.134   2.661   6.993
29083WAT     H187491   7.218   2.626   7.033
29083WAT     H287492   7.128   2.760   7.010
29084WAT      O87493   5.920   0.358   7.654
29084WAT     H187494   5.856   0.412   7.599
29084WAT     H287495   5.960   0.416   7.725
29085WAT      O87496   3.015   7.024   6.239
29085WAT     H187497   2.939   6.996   6.298
29085WAT     H287498   3.002   7.120   6.213
29086WAT      O87499   7.091   3.866   1.145
29086WAT     H187500   7.141   3.786   1.113
29086WAT     H287501   6.996   3.840   1.165
29087WAT      O87502   4.870   8.684   3.039
29087WAT     H187503   4.825   8.768   3.010
29087WAT     H287504   4.821   8.644   3.117
29088WAT      O87505   8.233   2.458   7.016
29088WAT     H187506   8.199   2.446   7.109
29088WAT     H287507   8.226   2.554   6.989
29089WAT      O87508   7.315   1.454   3.566
29089WAT     H187509   7.242   1.455   3.498
29089WAT     H287510   7.404   1.464   3.520
29090WAT      O87511   5.080   7.974   4.697
29090WAT     H187512   5.044   8.008   4.610
29090WAT     H287513   5.059   8.039   4.770
29091WAT      O87514   2.711   1.729   2.432
29091WAT     H187515   2.803   1.766   2.424
29091WAT     H287516   2.715   1.635   2.467
29092WAT      O87517   4.406   6.533   2.539
29092WAT     H187518   4.311   6.553   2.516
29092WAT     H287519   4.446   6.612   2.584
29093WAT      O87520   4.059   8.446   1.086
29093WAT     H187521   4.017   8.534   1.110
29093WAT     H287522   4.134   8.462   1.022
29094WAT      O87523   8.574   9.042   6.258
29094WAT     H187524   8.606   9.130   6.292
29094WAT     H287525   8.638   8.970   6.288
29095WAT      O87526   7.047   7.028   5.147
29095WAT     H187527   7.021   7.025   5.050
29095WAT     H287528   7.083   6.939   5.174
29096WAT      O87529   2.878   2.020   6.521
29096WAT     H187530   2.971   1.986   6.507
29096WAT     H287531   2.820   1.991   6.444
29097WAT      O87532   0.948   3.027   4.042
29097WAT     H187533   0.871   2.964   4.046
29097WAT     H287534   1.033   2.977   4.061
29098WAT      O87535   4.456   8.091   8.755
29098WAT     H187536   4.556   8.087   8.755
29098WAT     H287537   4.420   8.025   8.689
29099WAT      O87538   2.837   9.487   1.398
29099WAT     H187539   2.814   9.559   1.333
29099WAT     H287540   2.875   9.527   1.481
29100WAT      O87541   5.607   8.848   4.366
29100WAT     H187542   5.675   8.844   4.292
29100WAT     H287543   5.629   8.923   4.428
29101WAT      O87544   0.863   0.104   4.087
29101WAT     H187545   0.774   0.099   4.133
29101WAT     H287546   0.858   0.056   3.999
29102WAT      O87547   0.429   1.932   1.613
29102WAT     H187548   0.407   1.982   1.529
29102WAT     H287549   0.359   1.949   1.681
29103WAT      O87550   8.289   1.248   8.242
29103WAT     H187551   8.320   1.156   8.266
29103WAT     H287552   8.347   1.283   8.168
29104WAT      O87553   0.081   1.927   9.765
29104WAT     H187554   0.164   1.935   9.709
29104WAT     H287555   0.000   1.931   9.707
29105WAT      O87556   4.679   4.797   2.921
29105WAT     H187557   4.775   4.769   2.922
29105WAT     H287558   4.621   4.718   2.937
29106WAT      O87559   7.286   4.499   8.538
29106WAT     H187560   7.363   4.512   8.476
29106WAT     H287561   7.226   4.428   8.501
29107WAT      O87562   1.045   8.783   3.366
29107WAT     H187563   1.005   8.763   3.455
29107WAT     H287564   1.115   8.715   3.344
29108WAT      O87565   0.892   7.272   2.708
29108WAT     H187566   0.871   7.202   2.776
29108WAT     H287567   0.825   7.269   2.635
29109WAT      O87568   6.216   5.459   6.962
29109WAT     H187569   6.201   5.498   6.871
29109WAT     H287570   6.312   5.472   6.988
29110WAT      O87571   1.727   2.090   0.903
29110WAT     H187572   1.820   2.071   0.872
29110WAT     H287573   1.700   2.022   0.971
29111WAT      O87574   4.413   0.602   8.134
29111WAT     H187575   4.440   0.690   8.096
29111WAT     H287576   4.492   0.556   8.172
29112WAT      O87577   5.923   5.381   5.857
29112WAT     H187578   5.998   5.327   5.819
29112WAT     H287579   5.912   5.465   5.804
29113WAT      O87580   5.412   8.732   5.365
29113WAT     H187581   5.347   8.808   5.363
29113WAT     H287582   5.471   8.737   5.284
29114WAT      O87583   3.445   1.032   1.872
29114WAT     H187584   3.494   0.947   1.855
29114WAT     H287585   3.500   1.091   1.931
29115WAT      O87586   1.720   2.758   3.122
29115WAT     H187587   1.622   2.740   3.127
29115WAT     H287588   1.745   2.777   3.027
29116WAT      O87589   6.784   1.927   9.061
29116WAT     H187590   6.720   1.906   9.134
29116WAT     H287591   6.845   1.849   9.046
29117WAT      O87592   6.390   2.977   2.757
29117WAT     H187593   6.358   3.070   2.739
29117WAT     H287594   6.395   2.962   2.856
29118WAT      O87595   2.451   3.147   9.500
29118WAT     H187596   2.356   3.124   9.479
29118WAT     H287597   2.471   3.239   9.466
29119WAT      O87598   0.783   1.786   6.480
29119WAT     H187599   0.786   1.786   6.380
29119WAT     H287600   0.786   1.881   6.513
29120WAT      O87601   0.627   2.113   2.209
29120WAT     H187602   0.707   2.090   2.266
29120WAT     H287603   0.543   2.088   2.258
29121WAT      O87604   4.655   6.142   0.377
29121WAT     H187605   4.612   6.228   0.404
29121WAT     H287606   4.683   6.148   0.281
29122WAT      O87607   8.974   7.922   7.575
29122WAT     H187608   9.024   8.008   7.566
29122WAT     H287609   8.877   7.941   7.592
29123WAT      O87610   9.204   4.392   8.487
29123WAT     H187611   9.250   4.306   8.465
29123WAT     H287612   9.124   4.372   8.544
29124WAT      O87613   9.583   3.572   9.349
29124WAT     H187614   9.659   3.508   9.344
29124WAT     H287615   9.575   3.622   9.263
29125WAT      O87616   1.914   2.545   0.628
29125WAT     H187617   1.885   2.635   0.661
29125WAT     H287618   1.959   2.555   0.539
29126WAT      O87619   8.361   6.439   9.723
29126WAT     H187620   8.366   6.532   9.758
29126WAT     H287621   8.394   6.437   9.628
29127WAT      O87622   3.835   6.402   9.511
29127WAT     H187623   3.880   6.386   9.423
29127WAT     H287624   3.898   6.450   9.572
29128WAT      O87625   4.411   3.532   6.281
29128WAT     H187626   4.399   3.588   6.363
29128WAT     H287627   4.422   3.436   6.307
29129WAT      O87628   6.243   6.039   4.337
29129WAT     H187629   6.305   6.115   4.321
29129WAT     H287630   6.180   6.031   4.259
29130WAT      O87631   9.502   4.018   9.653
29130WAT     H187632   9.458   4.102   9.621
29130WAT     H287633   9.483   3.944   9.589
29131WAT      O87634   7.506   8.479   1.708
29131WAT     H187635   7.593   8.505   1.751
29131WAT     H287636   7.491   8.536   1.627
29132WAT      O87637   6.838   4.394   1.596
29132WAT     H187638   6.841   4.494   1.596
29132WAT     H287639   6.810   4.362   1.687
29133WAT      O87640   4.839   9.384   4.405
29133WAT     H187641   4.874   9.314   4.466
29133WAT     H287642   4.742   9.368   4.386
29134WAT      O87643   8.485   9.303   7.354
29134WAT     H187644   8.553   9.358   7.401
29134WAT     H287645   8.469   9.219   7.404
29135WAT      O87646   6.361   0.303   3.538
29135WAT     H187647   6.319   0.214   3.555
29135WAT     H287648   6.304   0.354   3.473
29136WAT      O87649   3.065   3.179   7.503
29136WAT     H187650   3.158   3.202   7.473
29136WAT     H287651   3.008   3.261   7.498
29137WAT      O87652   2.596   0.348   5.381
29137WAT     H187653   2.565   0.429   5.332
29137WAT     H287654   2.552   0.346   5.471
29138WAT      O87655   0.856   7.882   3.537
29138WAT     H187656   0.867   7.956   3.604
29138WAT     H287657   0.938   7.826   3.535
29139WAT      O87658   7.215   3.447   9.847
29139WAT     H187659   7.258   3.392   9.918
29139WAT     H287660   7.253   3.540   9.850
29140WAT      O87661   4.564   3.665   5.270
29140WAT     H187662   4.543   3.688   5.175
29140WAT     H287663   4.504   3.716   5.331
29141WAT      O87664   1.021   8.468   3.473
29141WAT     H187665   1.087   8.517   3.415
29141WAT     H287666   0.960   8.534   3.517
29142WAT      O87667   0.211   5.845   1.208
29142WAT     H187668   0.167   5.779   1.147
29142WAT     H287669   0.219   5.805   1.300
29143WAT      O87670   0.247   4.955   2.303
29143WAT     H187671   0.275   4.859   2.300
29143WAT     H287672   0.271   5.000   2.217
29144WAT      O87673   1.628   8.061   0.086
29144WAT     H187674   1.669   7.995   0.150
29144WAT     H287675   1.543   8.096   0.125
29145WAT      O87676   7.721   8.886   6.178
29145WAT     H187677   7.803   8.876   6.122
29145WAT     H287678   7.745   8.873   6.274
29146WAT      O87679   1.704   5.191   5.574
29146WAT     H187680   1.675   5.102   5.609
29146WAT     H287681   1.627   5.254   5.575
29147WAT      O87682   3.485   7.936   3.097
29147WAT     H187683   3.428   7.883   3.034
29147WAT     H287684   3.556   7.984   3.046
29148WAT      O87685   1.301   1.279   4.414
29148WAT     H187686   1.345   1.295   4.502
29148WAT     H287687   1.297   1.181   4.397
29149WAT      O87688   7.574   9.040   4.217
29149WAT     H187689   7.557   8.943   4.237
29149WAT     H287690   7.507   9.072   4.149
29150WAT      O87691   6.954   1.465   7.355
29150WAT     H187692   6.986   1.549   7.311
29150WAT     H287693   6.854   1.465   7.357
29151WAT      O87694   3.774   9.446   6.138
29151WAT     H187695   3.755   9.350   6.159
29151WAT     H287696   3.873   9.461   6.138
29152WAT      O87697   1.921   0.986   0.177
29152WAT     H187698   1.972   0.903   0.153
29152WAT     H287699   1.852   1.003   0.107
29153WAT      O87700   7.547   8.004   4.506
29153WAT     H187701   7.603   8.033   4.428
29153WAT     H287702   7.475   8.071   4.522
29154WAT      O87703   5.669   7.454   7.397
29154WAT     H187704   5.579   7.412   7.386
29154WAT     H287705   5.725   7.399   7.459
29155WAT      O87706   1.753   0.425   3.532
29155WAT     H187707   1.680   0.375   3.577
29155WAT     H287708   1.821   0.361   3.496
29156WAT      O87709   6.492   3.630   2.391
29156WAT     H187710   6.541   3.627   2.478
29156WAT     H287711   6.421   3.700   2.395
29157WAT      O87712   8.310   5.890   3.464
29157WAT     H187713   8.283   5.825   3.394
29157WAT     H287714   8.405   5.874   3.490
29158WAT      O87715   3.409   9.397   9.843
29158WAT     H187716   3.380   9.412   9.748
29158WAT     H287717   3.474   9.321   9.846
29159WAT      O87718   4.470   9.422   4.193
29159WAT     H187719   4.538   9.462   4.132
29159WAT     H287720   4.516   9.365   4.261
29160WAT      O87721   6.556   6.286   0.038
29160WAT     H187722   6.585   6.326   0.125
29160WAT     H287723   6.556   6.186   0.046
29161WAT      O87724   2.231   0.880   4.196
29161WAT     H187725   2.235   0.841   4.104
29161WAT     H287726   2.203   0.810   4.261
29162WAT      O87727   4.839   6.073   8.136
29162WAT     H187728   4.929   6.099   8.170
29162WAT     H287729   4.827   6.109   8.043
29163WAT      O87730   8.365   8.239   7.420
29163WAT     H187731   8.368   8.339   7.414
29163WAT     H287732   8.321   8.212   7.506
29164WAT      O87733   9.870   0.449   3.654
29164WAT     H187734   9.870   0.517   3.580
29164WAT     H287735   9.935   0.376   3.632
29165WAT      O87736   2.978   3.965   1.314
29165WAT     H187737   2.985   3.926   1.222
29165WAT     H287738   2.882   3.982   1.335
29166WAT      O87739   5.931   3.929   9.492
29166WAT     H187740   5.946   3.901   9.397
29166WAT     H287741   6.003   3.892   9.549
29167WAT      O87742   4.983   4.940   4.039
29167WAT     H187743   4.926   4.890   4.105
29167WAT     H287744   4.939   4.939   3.949
29168WAT      O87745   7.361   2.901   5.690
29168WAT     H187746   7.298   2.918   5.766
29168WAT     H287747   7.340   2.813   5.647
29169WAT      O87748   9.677   5.109   4.003
29169WAT     H187749   9.685   5.124   3.905
29169WAT     H287750   9.621   5.027   4.020
29170WAT      O87751   8.222   7.386   5.790
29170WAT     H187752   8.255   7.478   5.811
29170WAT     H287753   8.173   7.349   5.869
29171WAT      O87754   5.293   4.722   2.714
29171WAT     H187755   5.379   4.692   2.673
29171WAT     H287756   5.218   4.708   2.649
29172WAT      O87757   8.920   1.373   4.222
29172WAT     H187758   8.894   1.410   4.133
29172WAT     H287759   8.995   1.426   4.260
29173WAT      O87760   0.813   1.472   2.215
29173WAT     H187761   0.870   1.522   2.281
29173WAT     H287762   0.837   1.501   2.122
29174WAT      O87763   9.445   2.572   5.145
29174WAT     H187764   9.545   2.579   5.144
29174WAT     H287765   9.406   2.658   5.179
29175WAT      O87766   5.479   2.517   6.842
29175WAT     H187767   5.506   2.469   6.926
29175WAT     H287768   5.537   2.598   6.830
29176WAT      O87769   8.624   2.106   4.709
29176WAT     H187770   8.656   2.015   4.682
29176WAT     H287771   8.581   2.150   4.631
29177WAT      O87772   5.786   4.093   0.507
29177WAT     H187773   5.752   4.183   0.533
29177WAT     H287774   5.883   4.098   0.483
29178WAT      O87775   4.375   2.275   8.186
29178WAT     H187776   4.278   2.272   8.213
29178WAT     H287777   4.423   2.197   8.228
29179WAT      O87778   1.797   2.089   9.523
29179WAT     H187779   1.743   2.076   9.606
29179WAT     H287780   1.738   2.123   9.450
29180WAT      O87781   8.140   8.012   5.227
29180WAT     H187782   8.122   7.921   5.265
29180WAT     H287783   8.153   8.077   5.301
29181WAT      O87784   0.980   3.597   7.960
29181WAT     H187785   1.022   3.549   7.883
29181WAT     H287786   0.951   3.688   7.931
29182WAT      O87787   0.379   8.392   4.722
29182WAT     H187788   0.459   8.413   4.665
29182WAT     H287789   0.408   8.347   4.806
29183WAT      O87790   3.652   9.793   6.857
29183WAT     H187791   3.589   9.870   6.849
29183WAT     H287792   3.624   9.736   6.935
29184WAT      O87793   0.752   1.349   0.096
29184WAT     H187794   0.786   1.263   0.060
29184WAT     H287795   0.655   1.339   0.120
29185WAT      O87796   7.311   5.171   5.102
29185WAT     H187797   7.315   5.130   5.193
29185WAT     H287798   7.225   5.146   5.058
29186WAT      O87799   0.565   4.025   8.799
29186WAT     H187800   0.628   3.957   8.836
29186WAT     H287801   0.550   4.097   8.867
29187WAT      O87802   0.604   6.451   8.986
29187WAT     H187803   0.662   6.489   9.057
29187WAT     H287804   0.629   6.490   8.897
29188WAT      O87805   2.563   4.369   6.422
29188WAT     H187806   2.570   4.282   6.471
29188WAT     H287807   2.467   4.397   6.417
29189WAT      O87808   9.422   5.010   1.989
29189WAT     H187809   9.457   5.035   1.899
29189WAT     H287810   9.322   5.017   1.990
29190WAT      O87811   3.938   7.908   7.659
29190WAT     H187812   3.930   7.876   7.564
29190WAT     H287813   4.017   7.866   7.702
29191WAT      O87814   1.955   4.460   6.694
29191WAT     H187815   1.888   4.482   6.765
29191WAT     H287816   2.020   4.393   6.730
29192WAT      O87817   4.790   8.320   4.263
29192WAT     H187818   4.866   8.271   4.220
29192WAT     H287819   4.738   8.369   4.194
29193WAT      O87820   1.345   2.024   9.300
29193WAT     H187821   1.369   2.085   9.224
29193WAT     H287822   1.257   1.981   9.282
29194WAT      O87823   6.042   2.384   2.769
29194WAT     H187824   6.127   2.387   2.715
29194WAT     H287825   5.975   2.448   2.730
29195WAT      O87826   3.527   8.948   4.033
29195WAT     H187827   3.432   8.952   4.063
29195WAT     H287828   3.541   8.867   3.976
29196WAT      O87829   6.135   1.570   6.616
29196WAT     H187830   6.140   1.541   6.712
29196WAT     H287831   6.051   1.623   6.602
29197WAT      O87832   6.760   0.163   3.832
29197WAT     H187833   6.769   0.231   3.906
29197WAT     H287834   6.664   0.155   3.806
29198WAT      O87835   1.311   5.930   9.079
29198WAT     H187836   1.344   5.883   9.161
29198WAT     H287837   1.213   5.916   9.070
29199WAT      O87838   2.488   6.412   9.260
29199WAT     H187839   2.412   6.376   9.206
29199WAT     H287840   2.520   6.341   9.323
29200WAT      O87841   1.993   1.025   0.435
29200WAT     H187842   1.943   1.030   0.349
29200WAT     H287843   1.978   0.935   0.477
29201WAT      O87844   8.891   6.334   2.319
29201WAT     H187845   8.921   6.414   2.371
29201WAT     H287846   8.802   6.303   2.354
29202WAT      O87847   2.873   3.984   9.658
29202WAT     H187848   2.799   4.004   9.594
29202WAT     H287849   2.950   3.945   9.608
29203WAT      O87850   2.770   8.939   2.601
29203WAT     H187851   2.727   9.029   2.591
29203WAT     H287852   2.743   8.899   2.688
29204WAT      O87853   5.039   0.958   6.655
29204WAT     H187854   5.111   0.934   6.589
29204WAT     H287855   4.989   0.875   6.681
29205WAT      O87856   2.708   0.787   4.356
29205WAT     H187857   2.762   0.706   4.330
29205WAT     H287858   2.743   0.867   4.307
29206WAT      O87859   7.996   0.646   1.276
29206WAT     H187860   8.004   0.556   1.234
29206WAT     H287861   8.081   0.670   1.322
29207WAT      O87862   4.593   3.446   2.963
29207WAT     H187863   4.554   3.354   2.967
29207WAT     H287864   4.618   3.467   2.869
29208WAT      O87865   2.770   4.036   4.573
29208WAT     H187866   2.804   3.999   4.659
29208WAT     H287867   2.844   4.081   4.524
29209WAT      O87868   0.590   0.123   8.123
29209WAT     H187869   0.589   0.221   8.142
29209WAT     H287870   0.543   0.075   8.197
29210WAT      O87871   0.589   4.838   9.161
29210WAT     H187872   0.502   4.847   9.210
29210WAT     H287873   0.637   4.925   9.161
29211WAT      O87874   9.505   8.504   9.172
29211WAT     H187875   9.527   8.574   9.240
29211WAT     H287876   9.453   8.545   9.098
29212WAT      O87877   8.382   5.508   6.865
29212WAT     H187878   8.363   5.500   6.767
29212WAT     H287879   8.423   5.597   6.884
29213WAT      O87880   7.172   8.578   7.555
29213WAT     H187881   7.229   8.600   7.476
29213WAT     H287882   7.157   8.660   7.609
29214WAT      O87883   1.063   5.701   4.100
29214WAT     H187884   1.085   5.682   4.196
29214WAT     H287885   0.964   5.712   4.091
29215WAT      O87886   7.847   5.929   0.117
29215WAT     H187887   7.833   6.018   0.161
29215WAT     H287888   7.762   5.900   0.073
29216WAT      O87889   8.697   1.624   7.445
29216WAT     H187890   8.644   1.664   7.520
29216WAT     H287891   8.690   1.682   7.364
29217WAT      O87892   1.073   7.836   0.937
29217WAT     H187893   1.046   7.741   0.954
29217WAT     H287894   1.005   7.881   0.879
29218WAT      O87895   8.240   8.562   4.811
29218WAT     H187896   8.242   8.482   4.872
29218WAT     H287897   8.184   8.542   4.731
29219WAT      O87898   9.775   0.113   4.020
29219WAT     H187899   9.816   0.028   4.054
29219WAT     H287900   9.841   0.187   4.025
29220WAT      O87901   2.456   9.054   7.259
29220WAT     H187902   2.478   9.037   7.163
29220WAT     H287903   2.415   9.145   7.267
29221WAT      O87904   5.746   9.326   0.278
29221WAT     H187905   5.677   9.332   0.349
29221WAT     H287906   5.834   9.357   0.314
29222WAT      O87907   7.693   8.280   1.956
29222WAT     H187908   7.693   8.187   1.994
29222WAT     H287909   7.784   8.302   1.922
29223WAT      O87910   0.021   8.823   0.278
29223WAT     H187911   0.030   8.890   0.353
29223WAT     H287912  -0.040   8.750   0.306
29224WAT      O87913   6.038   0.480   9.617
29224WAT     H187914   6.134   0.478   9.645
29224WAT     H287915   6.028   0.438   9.527
29225WAT      O87916   5.582   6.890   9.414
29225WAT     H187917   5.483   6.872   9.418
29225WAT     H287918   5.604   6.966   9.475
29226WAT      O87919   5.582   8.216   5.327
29226WAT     H187920   5.610   8.243   5.419
29226WAT     H287921   5.508   8.276   5.296
29227WAT      O87922   2.606   2.349   3.443
29227WAT     H187923   2.586   2.272   3.383
29227WAT     H287924   2.683   2.325   3.502
29228WAT      O87925   0.900   5.276   5.933
29228WAT     H187926   0.990   5.245   5.900
29228WAT     H287927   0.836   5.200   5.928
29229WAT      O87928   5.724   3.758   8.090
29229WAT     H187929   5.800   3.739   8.152
29229WAT     H287930   5.697   3.854   8.099
29230WAT      O87931   8.013   3.651   9.444
29230WAT     H187932   7.934   3.630   9.501
29230WAT     H287933   8.083   3.697   9.498
29231WAT      O87934   1.260   8.890   2.638
29231WAT     H187935   1.350   8.893   2.595
29231WAT     H287936   1.261   8.826   2.715
29232WAT      O87937   6.729   6.766   8.232
29232WAT     H187938   6.744   6.699   8.160
29232WAT     H287939   6.763   6.731   8.319
29233WAT      O87940   3.884   0.917   5.502
29233WAT     H187941   3.848   0.825   5.487
29233WAT     H287942   3.860   0.975   5.424
29234WAT      O87943   5.301   0.314   4.865
29234WAT     H187944   5.250   0.372   4.928
29234WAT     H287945   5.367   0.258   4.915
29235WAT      O87946   3.709   0.569   7.731
29235WAT     H187947   3.665   0.586   7.819
29235WAT     H287948   3.658   0.617   7.659
29236WAT      O87949   3.695   9.709   2.293
29236WAT     H187950   3.710   9.769   2.372
29236WAT     H287951   3.707   9.614   2.322
29237WAT      O87952   4.668   7.446   4.341
29237WAT     H187953   4.605   7.453   4.264
29237WAT     H287954   4.660   7.356   4.384
29238WAT      O87955   3.483   7.220   2.976
29238WAT     H187956   3.424   7.264   2.908
29238WAT     H287957   3.452   7.244   3.068
29239WAT      O87958   1.736   8.529   5.474
29239WAT     H187959   1.764   8.499   5.383
29239WAT     H287960   1.801   8.597   5.508
29240WAT      O87961   9.227   3.465   7.090
29240WAT     H187962   9.272   3.553   7.078
29240WAT     H287963   9.228   3.440   7.187
29241WAT      O87964   7.279   9.328   1.757
29241WAT     H187965   7.217   9.352   1.832
29241WAT     H287966   7.297   9.409   1.701
29242WAT      O87967   6.901   3.096   0.524
29242WAT     H187968   6.855   3.176   0.484
29242WAT     H287969   6.980   3.071   0.468
29243WAT      O87970   8.007   0.759   6.773
29243WAT     H187971   8.002   0.668   6.814
29243WAT     H287972   7.941   0.765   6.698
29244WAT      O87973   0.105   4.539   5.827
29244WAT     H187974   0.157   4.472   5.880
29244WAT     H287975   0.091   4.504   5.734
29245WAT      O87976   8.075   9.785   7.318
29245WAT     H187977   8.109   9.729   7.393
29245WAT     H287978   8.066   9.880   7.348
29246WAT      O87979   9.811   9.533   3.445
29246WAT     H187980   9.891   9.562   3.392
29246WAT     H287981   9.842   9.494   3.532
29247WAT      O87982   1.630   6.756   4.567
29247WAT     H187983   1.668   6.688   4.504
29247WAT     H287984   1.568   6.710   4.631
29248WAT      O87985   9.615   3.093   6.778
29248WAT     H187986   9.651   3.034   6.851
29248WAT     H287987   9.654   3.065   6.690
29249WAT      O87988   6.319   4.925   9.747
29249WAT     H187989   6.271   4.950   9.663
29249WAT     H287990   6.254   4.914   9.822
29250WAT      O87991   7.795   9.213   9.272
29250WAT     H187992   7.833   9.305   9.257
29250WAT     H287993   7.845   9.168   9.345
29251WAT      O87994   5.214   2.974   0.283
29251WAT     H187995   5.176   3.010   0.369
29251WAT     H287996   5.238   2.878   0.295
29252WAT      O87997   3.366   3.147   2.092
29252WAT     H187998   3.283   3.111   2.135
29252WAT     H287999   3.400   3.225   2.145
29253WAT      O88000   0.194   9.040   8.992
29253WAT     H188001   0.111   9.049   8.937
29253WAT     H288002   0.236   8.951   8.975
29254WAT      O88003   7.517   9.830   3.590
29254WAT     H188004   7.464   9.815   3.506
29254WAT     H288005   7.606   9.869   3.566
29255WAT      O88006   4.633   9.696   1.270
29255WAT     H188007   4.656   9.765   1.339
29255WAT     H288008   4.716   9.671   1.220
29256WAT      O88009   5.533   9.733   4.199
29256WAT     H188010   5.574   9.781   4.276
29256WAT     H288011   5.584   9.649   4.181
29257WAT      O88012   5.249   6.160   9.823
29257WAT     H188013   5.296   6.235   9.776
29257WAT     H288014   5.154   6.185   9.841
29258WAT      O88015   8.258   6.253   3.396
29258WAT     H188016   8.197   6.199   3.339
29258WAT     H288017   8.206   6.326   3.441
29259WAT      O88018   2.223   3.879   3.373
29259WAT     H188019   2.320   3.884   3.396
29259WAT     H288020   2.179   3.811   3.430
29260WAT      O88021   3.747   6.219   7.889
29260WAT     H188022   3.713   6.127   7.870
29260WAT     H288023   3.710   6.283   7.821
29261WAT      O88024   8.383   0.499   6.344
29261WAT     H188025   8.364   0.532   6.436
29261WAT     H288026   8.410   0.576   6.285
29262WAT      O88027   6.080   4.151   3.460
29262WAT     H188028   6.177   4.147   3.435
29262WAT     H288029   6.056   4.244   3.485
29263WAT      O88030   0.605   3.794   7.962
29263WAT     H188031   0.525   3.756   7.916
29263WAT     H288032   0.574   3.848   8.041
29264WAT      O88033   3.769   3.498   2.598
29264WAT     H188034   3.688   3.513   2.654
29264WAT     H288035   3.851   3.528   2.648
29265WAT      O88036   7.141   4.574   3.388
29265WAT     H188037   7.168   4.548   3.480
29265WAT     H288038   7.203   4.532   3.322
29266WAT      O88039   5.991   8.255   8.497
29266WAT     H188040   5.893   8.272   8.482
29266WAT     H288041   6.001   8.182   8.565
29267WAT      O88042   2.033   1.564   5.991
29267WAT     H188043   2.095   1.539   5.916
29267WAT     H288044   2.019   1.486   6.051
29268WAT      O88045   4.604   8.435   6.658
29268WAT     H188046   4.645   8.439   6.750
29268WAT     H288047   4.531   8.366   6.657
29269WAT      O88048   8.968   6.671   2.207
29269WAT     H188049   8.879   6.693   2.166
29269WAT     H288050   9.031   6.640   2.136
29270WAT      O88051   9.335   9.508   3.601
29270WAT     H188052   9.386   9.491   3.685
29270WAT     H288053   9.281   9.592   3.611
29271WAT      O88054   9.540   9.025   1.564
29271WAT     H188055   9.536   9.071   1.475
29271WAT     H288056   9.449   9.026   1.605
29272WAT      O88057   4.420   7.892   8.552
29272WAT     H188058   4.486   7.918   8.483
29272WAT     H288059   4.434   7.797   8.579
29273WAT      O88060   8.493   0.638   7.248
29273WAT     H188061   8.396   0.663   7.239
29273WAT     H288062   8.549   0.708   7.205
29274WAT      O88063   9.557   6.666   7.070
29274WAT     H188064   9.595   6.755   7.093
29274WAT     H288065   9.465   6.659   7.108
29275WAT      O88066   8.556   8.947   2.982
29275WAT     H188067   8.603   8.919   2.898
29275WAT     H288068   8.578   9.042   3.003
29276WAT      O88069   6.246   8.661   6.900
29276WAT     H188070   6.155   8.620   6.890
29276WAT     H288071   6.272   8.661   6.996
29277WAT      O88072   6.631   9.073   2.611
29277WAT     H188073   6.537   9.072   2.643
29277WAT     H288074   6.660   8.980   2.588
29278WAT      O88075   5.580   3.094   9.543
29278WAT     H188076   5.587   3.046   9.630
29278WAT     H288077   5.649   3.059   9.480
29279WAT      O88078   5.591   6.793   7.852
29279WAT     H188079   5.615   6.718   7.914
29279WAT     H288080   5.673   6.846   7.830
29280WAT      O88081   5.464   5.642   4.837
29280WAT     H188082   5.458   5.574   4.909
29280WAT     H288083   5.451   5.599   4.748
29281WAT      O88084   7.971   7.658   3.566
29281WAT     H188085   8.059   7.643   3.520
29281WAT     H288086   7.961   7.756   3.587
29282WAT      O88087   6.569   6.528   9.623
29282WAT     H188088   6.631   6.451   9.639
29282WAT     H288089   6.523   6.552   9.708
29283WAT      O88090   7.173   1.633   6.548
29283WAT     H188091   7.226   1.550   6.565
29283WAT     H288092   7.157   1.642   6.450
29284WAT      O88093   7.588   6.156   1.164
29284WAT     H188094   7.581   6.058   1.184
29284WAT     H288095   7.591   6.171   1.065
29285WAT      O88096   8.575   8.449   5.686
29285WAT     H188097   8.629   8.440   5.770
29285WAT     H288098   8.494   8.504   5.704
29286WAT      O88099   9.657   2.129   0.934
29286WAT     H188100   9.607   2.078   0.863
29286WAT     H288101   9.593   2.160   1.004
29287WAT      O88102   0.757   9.527   5.574
29287WAT     H188103   0.727   9.593   5.506
29287WAT     H288104   0.793   9.446   5.529
29288WAT      O88105   2.177   0.004   8.386
29288WAT     H188106   2.111  -0.069   8.399
29288WAT     H288107   2.132   0.093   8.396
29289WAT      O88108   5.795   2.633   5.560
29289WAT     H188109   5.827   2.539   5.565
29289WAT     H288110   5.871   2.694   5.539
29290WAT      O88111   2.653   8.901   0.841
29290WAT     H188112   2.602   8.863   0.918
29290WAT     H288113   2.606   8.983   0.807
29291WAT      O88114   5.642   7.967   5.870
29291WAT     H188115   5.708   7.898   5.900
29291WAT     H288116   5.692   8.051   5.847
29292WAT      O88117   8.181   6.510   8.065
29292WAT     H188118   8.239   6.488   7.987
29292WAT     H288119   8.230   6.491   8.150
29293WAT      O88120   2.236   9.014   3.942
29293WAT     H188121   2.236   9.031   3.844
29293WAT     H288122   2.226   8.916   3.959
29294WAT      O88123   9.086   4.048   5.365
29294WAT     H188124   9.099   3.977   5.295
29294WAT     H288125   9.104   4.138   5.325
29295WAT      O88126   6.467   0.777   1.689
29295WAT     H188127   6.414   0.729   1.759
29295WAT     H288128   6.530   0.713   1.645
29296WAT      O88129   9.492   8.613   6.261
29296WAT     H188130   9.431   8.675   6.211
29296WAT     H288131   9.445   8.526   6.278
29297WAT      O88132   7.297   5.777   7.905
29297WAT     H188133   7.371   5.844   7.908
29297WAT     H288134   7.239   5.788   7.985
29298WAT      O88135   7.334   8.442   0.490
29298WAT     H188136   7.308   8.349   0.464
29298WAT     H288137   7.433   8.449   0.496
29299WAT      O88138   6.001   3.849   2.976
29299WAT     H188139   6.025   3.864   2.880
29299WAT     H288140   6.074   3.886   3.034
29300WAT      O88141   3.912   6.543   7.443
29300WAT     H188142   3.948   6.529   7.351
29300WAT     H288143   3.821   6.504   7.450
29301WAT      O88144   1.808   9.593   5.543
29301WAT     H188145   1.715   9.586   5.577
29301WAT     H288146   1.821   9.528   5.467
29302WAT      O88147   8.371   5.772   4.301
29302WAT     H188148   8.307   5.713   4.350
29302WAT     H288149   8.458   5.725   4.288
29303WAT      O88150   1.074   9.350   4.806
29303WAT     H188151   1.041   9.404   4.884
29303WAT     H288152   1.126   9.409   4.744
29304WAT      O88153   7.899   6.550   5.561
29304WAT     H188154   7.828   6.608   5.522
29304WAT     H288155   7.905   6.566   5.660
29305WAT      O88156   6.185   4.690   4.533
29305WAT     H188157   6.236   4.740   4.463
29305WAT     H288158   6.087   4.697   4.514
29306WAT      O88159   7.240   8.405   8.596
29306WAT     H188160   7.304   8.329   8.585
29306WAT     H288161   7.248   8.467   8.518
29307WAT      O88162   4.611   2.925   6.982
29307WAT     H188163   4.634   2.996   7.048
29307WAT     H288164   4.690   2.865   6.970
29308WAT      O88165   7.835   9.476   5.535
29308WAT     H188166   7.753   9.444   5.488
29308WAT     H288167   7.907   9.407   5.525
29309WAT      O88168   9.130   3.898   6.324
29309WAT     H188169   9.064   3.825   6.342
29309WAT     H288170   9.214   3.881   6.375
29310WAT      O88171   4.062   1.944   9.376
29310WAT     H188172   4.069   1.996   9.290
29310WAT     H288173   3.966   1.921   9.393
29311WAT      O88174   7.292   3.348   6.677
29311WAT     H188175   7.206   3.306   6.707
29311WAT     H288176   7.306   3.328   6.580
29312WAT      O88177   9.147   5.149   8.521
29312WAT     H188178   9.153   5.111   8.613
29312WAT     H288179   9.111   5.242   8.525
29313WAT      O88180   2.402   8.018   2.975
29313WAT     H188181   2.493   7.981   2.957
29313WAT     H288182   2.344   7.947   3.015
29314WAT      O88183   9.745   7.632   7.835
29314WAT     H188184   9.676   7.666   7.772
29314WAT     H288185   9.791   7.709   7.880
29315WAT      O88186   0.820   8.317   8.978
29315WAT     H188187   0.879   8.247   8.937
29315WAT     H288188   0.733   8.276   9.004
29316WAT      O88189   0.914   2.950   7.288
29316WAT     H188190   0.995   2.955   7.229
29316WAT     H288191   0.906   2.858   7.326
29317WAT      O88192   3.441   3.001   6.741
29317WAT     H188193   3.450   2.941   6.662
29317WAT     H288194   3.400   3.088   6.712
29318WAT      O88195   3.734   1.194   6.927
29318WAT     H188196   3.775   1.126   6.988
29318WAT     H288197   3.715   1.152   6.838
29319WAT      O88198   5.555   7.768   9.889
29319WAT     H188199   5.584   7.728   9.802
29319WAT     H288200   5.511   7.697   9.945
29320WAT      O88201   9.035   8.705   6.630
29320WAT     H188202   9.124   8.678   6.667
29320WAT     H288203   8.981   8.748   6.703
29321WAT      O88204   0.098   6.558   1.085
29321WAT     H188205   0.060   6.514   1.003
29321WAT     H288206   0.158   6.633   1.058
29322WAT      O88207   0.667   6.702   4.074
29322WAT     H188208   0.728   6.769   4.032
29322WAT     H288209   0.588   6.750   4.113
29323WAT      O88210   6.790   8.186   4.358
29323WAT     H188211   6.801   8.094   4.394
29323WAT     H288212   6.838   8.194   4.270
29324WAT      O88213   6.111   3.704   3.338
29324WAT     H188214   6.137   3.630   3.400
29324WAT     H288215   6.076   3.664   3.252
29325WAT      O88216   7.665   9.171   9.562
29325WAT     H188217   7.689   9.268   9.568
29325WAT     H288218   7.715   9.129   9.487
29326WAT      O88219   2.224   4.451   5.340
29326WAT     H188220   2.287   4.495   5.403
29326WAT     H288221   2.162   4.391   5.391
29327WAT      O88222   9.495   6.471   4.586
29327WAT     H188223   9.494   6.429   4.495
29327WAT     H288224   9.556   6.550   4.585
29328WAT      O88225   2.551   3.383   9.426
29328WAT     H188226   2.600   3.382   9.513
29328WAT     H288227   2.522   3.477   9.405
29329WAT      O88228   8.125   8.760   4.227
29329WAT     H188229   8.200   8.694   4.229
29329WAT     H288230   8.047   8.723   4.279
29330WAT      O88231   4.518   2.359   5.274
29330WAT     H188232   4.600   2.323   5.319
29330WAT     H288233   4.438   2.337   5.329
29331WAT      O88234   5.375   4.698   5.834
29331WAT     H188235   5.474   4.713   5.836
29331WAT     H288236   5.343   4.675   5.926
29332WAT      O88237   8.249   6.721   2.390
29332WAT     H188238   8.272   6.650   2.323
29332WAT     H288239   8.329   6.742   2.446
29333WAT      O88240   0.009   3.893   7.148
29333WAT     H188241   0.045   3.950   7.221
29333WAT     H288242  -0.001   3.947   7.065
29334WAT      O88243   1.332   9.504   8.709
29334WAT     H188244   1.297   9.418   8.673
29334WAT     H288245   1.351   9.495   8.806
29335WAT      O88246   9.254   8.743   8.568
29335WAT     H188247   9.301   8.676   8.626
29335WAT     H288248   9.283   8.835   8.594
29336WAT      O88249   8.181   2.086   9.692
29336WAT     H188250   8.210   2.000   9.650
29336WAT     H288251   8.134   2.066   9.778
29337WAT      O88252   5.804   4.557   6.533
29337WAT     H188253   5.763   4.562   6.442
29337WAT     H288254   5.875   4.486   6.535
29338WAT      O88255   8.594   4.510   3.072
29338WAT     H188256   8.539   4.593   3.084
29338WAT     H288257   8.689   4.530   3.098
29339WAT      O88258   8.718   5.359   1.070
29339WAT     H188259   8.806   5.320   1.098
29339WAT     H288260   8.730   5.411   0.985
29340WAT      O88261   1.385   2.776   8.518
29340WAT     H188262   1.305   2.721   8.541
29340WAT     H288263   1.374   2.815   8.426
29341WAT      O88264   1.563   9.667   1.664
29341WAT     H188265   1.629   9.691   1.736
29341WAT     H288266   1.476   9.712   1.682
29342WAT      O88267   6.446   0.464   8.943
29342WAT     H188268   6.470   0.520   8.863
29342WAT     H288269   6.403   0.380   8.912
29343WAT      O88270   9.474   8.304   0.860
29343WAT     H188271   9.428   8.219   0.831
29343WAT     H288272   9.409   8.362   0.908
29344WAT      O88273   9.252   3.592   9.777
29344WAT     H188274   9.318   3.569   9.849
29344WAT     H288275   9.250   3.692   9.766
29345WAT      O88276   9.590   8.073   1.582
29345WAT     H188277   9.689   8.075   1.596
29345WAT     H288278   9.546   8.032   1.662
29346WAT      O88279   2.366   5.578   5.401
29346WAT     H188280   2.442   5.528   5.442
29346WAT     H288281   2.388   5.675   5.400
29347WAT      O88282   1.786   6.887   0.180
29347WAT     H188283   1.766   6.974   0.133
29347WAT     H288284   1.704   6.830   0.180
29348WAT      O88285   6.813   4.754   9.188
29348WAT     H188286   6.880   4.819   9.153
29348WAT     H288287   6.808   4.762   9.287
29349WAT      O88288   3.842   6.222   7.423
29349WAT     H188289   3.891   6.141   7.391
29349WAT     H288290   3.896   6.304   7.404
29350WAT      O88291   7.365   4.814   3.302
29350WAT     H188292   7.339   4.774   3.214
29350WAT     H288293   7.353   4.913   3.298
29351WAT      O88294   4.463   4.695   0.423
29351WAT     H188295   4.473   4.603   0.461
29351WAT     H288296   4.368   4.710   0.396
29352WAT      O88297   9.526   1.448   0.209
29352WAT     H188298   9.427   1.455   0.219
29352WAT     H288299   9.555   1.500   0.129
29353WAT      O88300   5.875   4.837   6.568
29353WAT     H188301   5.867   4.741   6.542
29353WAT     H288302   5.827   4.894   6.502
29354WAT      O88303   4.964   0.311   1.293
29354WAT     H188304   4.937   0.369   1.216
29354WAT     H288305   5.060   0.330   1.316
29355WAT      O88306   8.451   2.175   2.638
29355WAT     H188307   8.384   2.107   2.668
29355WAT     H288308   8.540   2.156   2.678
29356WAT      O88309   0.441   5.077   5.405
29356WAT     H188310   0.502   5.140   5.358
29356WAT     H288311   0.407   5.119   5.489
29357WAT      O88312   9.382   8.306   5.843
29357WAT     H188313   9.331   8.377   5.795
29357WAT     H288314   9.391   8.226   5.783
29358WAT      O88315   7.655   1.933   7.388
29358WAT     H188316   7.572   1.974   7.425
29358WAT     H288317   7.631   1.851   7.335
29359WAT      O88318   6.088   0.115   0.262
29359WAT     H188319   6.005   0.106   0.207
29359WAT     H288320   6.142   0.032   0.254
29360WAT      O88321   6.483   6.230   1.470
29360WAT     H188322   6.454   6.138   1.496
29360WAT     H288323   6.404   6.285   1.447
29361WAT      O88324   1.731   7.566   5.493
29361WAT     H188325   1.765   7.517   5.412
29361WAT     H288326   1.691   7.502   5.557
29362WAT      O88327   5.654   2.974   3.992
29362WAT     H188328   5.752   2.952   3.983
29362WAT     H288329   5.629   2.975   4.089
29363WAT      O88330   9.322   2.666   3.912
29363WAT     H188331   9.278   2.736   3.856
29363WAT     H288332   9.276   2.659   4.000
29364WAT      O88333   2.365   5.599   8.134
29364WAT     H188334   2.343   5.510   8.175
29364WAT     H288335   2.373   5.589   8.035
29365WAT      O88336   5.422   8.092   7.324
29365WAT     H188337   5.366   8.166   7.285
29365WAT     H288338   5.495   8.132   7.379
29366WAT      O88339   1.937   7.513   0.156
29366WAT     H188340   1.936   7.612   0.169
29366WAT     H288341   1.876   7.470   0.223
29367WAT      O88342   3.410   6.700   2.401
29367WAT     H188343   3.330   6.728   2.347
29367WAT     H288344   3.467   6.638   2.347
29368WAT      O88345   5.087   8.217   6.453
29368WAT     H188346   5.027   8.263   6.387
29368WAT     H288347   5.170   8.271   6.465
29369WAT      O88348   1.694   6.193   6.556
29369WAT     H188349   1.643   6.109   6.574
29369WAT     H288350   1.630   6.269   6.548
29370WAT      O88351   6.047   3.696   4.215
29370WAT     H188352   6.026   3.662   4.123
29370WAT     H288353   6.146   3.710   4.222
29371WAT      O88354   5.457   1.781   5.866
29371WAT     H188355   5.529   1.792   5.935
29371WAT     H288356   5.481   1.834   5.785
29372WAT      O88357   9.535   8.810   2.692
29372WAT     H188358   9.467   8.752   2.738
29372WAT     H288359   9.610   8.754   2.659
29373WAT      O88360   0.234   4.396   0.544
29373WAT     H188361   0.209   4.411   0.449
29373WAT     H288362   0.241   4.484   0.591
29374WAT      O88363   1.703   7.516   5.076
29374WAT     H188364   1.731   7.448   5.145
29374WAT     H288365   1.627   7.570   5.111
29375WAT      O88366   2.976   1.525   7.800
29375WAT     H188367   2.989   1.476   7.713
29375WAT     H288368   2.879   1.543   7.813
29376WAT      O88369   9.752   4.076   5.925
29376WAT     H188370   9.708   4.079   6.015
29376WAT     H288371   9.740   4.164   5.879
29377WAT      O88372   2.697   7.664   2.575
29377WAT     H188373   2.781   7.702   2.535
29377WAT     H288374   2.627   7.736   2.579
29378WAT      O88375   6.089   2.294   3.610
29378WAT     H188376   6.151   2.324   3.683
29378WAT     H288377   6.141   2.286   3.525
29379WAT      O88378   3.443   6.468   7.008
29379WAT     H188379   3.404   6.480   6.916
29379WAT     H288380   3.541   6.450   7.000
29380WAT      O88381   6.026   6.603   4.887
29380WAT     H188382   5.992   6.563   4.802
29380WAT     H288383   5.988   6.695   4.899
29381WAT      O88384   7.593   4.055   2.162
29381WAT     H188385   7.628   4.143   2.129
29381WAT     H288386   7.663   3.985   2.150
29382WAT      O88387   3.619   9.423   4.803
29382WAT     H188388   3.540   9.368   4.774
29382WAT     H288389   3.674   9.370   4.868
29383WAT      O88390   2.228   1.959   2.344
29383WAT     H188391   2.245   1.888   2.413
29383WAT     H288392   2.276   2.043   2.370
29384WAT      O88393   2.639   7.384   2.104
29384WAT     H188394   2.723   7.438   2.112
29384WAT     H288395   2.618   7.341   2.192
29385WAT      O88396   7.883   0.687   2.417
29385WAT     H188397   7.798   0.676   2.365
29385WAT     H288398   7.902   0.603   2.468
29386WAT      O88399   1.091   4.602   6.566
29386WAT     H188400   1.059   4.663   6.639
29386WAT     H288401   1.093   4.508   6.600
29387WAT      O88402   4.264   2.818   1.825
29387WAT     H188403   4.223   2.866   1.903
29387WAT     H288404   4.264   2.719   1.843
29388WAT      O88405   3.798   2.886   6.779
29388WAT     H188406   3.866   2.821   6.813
29388WAT     H288407   3.707   2.859   6.810
29389WAT      O88408   5.771   1.355   8.436
29389WAT     H188409   5.714   1.434   8.459
29389WAT     H288410   5.841   1.383   8.371
29390WAT      O88411   8.801   2.072   7.870
29390WAT     H188412   8.754   2.062   7.783
29390WAT     H288413   8.739   2.050   7.945
29391WAT      O88414   3.925   4.318   6.918
29391WAT     H188415   3.882   4.261   6.988
29391WAT     H288416   3.954   4.261   6.841
29392WAT      O88417   8.617   8.666   7.554
29392WAT     H188418   8.639   8.584   7.608
29392WAT     H288419   8.535   8.649   7.500
29393WAT      O88420   0.687   0.145   6.748
29393WAT     H188421   0.673   0.050   6.720
29393WAT     H288422   0.609   0.200   6.719
29394WAT      O88423   3.942   8.070   2.238
29394WAT     H188424   3.908   8.109   2.152
29394WAT     H288425   3.936   7.971   2.234
29395WAT      O88426   8.023   2.560   0.161
29395WAT     H188427   7.991   2.474   0.198
29395WAT     H288428   8.084   2.542   0.083
29396WAT      O88429   6.095   7.447   9.354
29396WAT     H188430   6.121   7.535   9.392
29396WAT     H288431   6.145   7.374   9.400
29397WAT      O88432   9.274   6.294   4.881
29397WAT     H188433   9.199   6.257   4.827
29397WAT     H288434   9.246   6.302   4.977
29398WAT      O88435   3.612   0.766   6.930
29398WAT     H188436   3.706   0.736   6.918
29398WAT     H288437   3.610   0.864   6.951
29399WAT      O88438   5.358   8.249   4.661
29399WAT     H188439   5.270   8.292   4.682
29399WAT     H288440   5.412   8.241   4.745
29400WAT      O88441   5.617   9.815   6.089
29400WAT     H188442   5.629   9.913   6.073
29400WAT     H288443   5.592   9.800   6.185
29401WAT      O88444   8.778   6.898   7.106
29401WAT     H188445   8.817   6.938   7.189
29401WAT     H288446   8.698   6.843   7.130
29402WAT      O88447   6.766   9.848   5.066
29402WAT     H188448   6.791   9.803   5.152
29402WAT     H288449   6.754   9.779   4.995
29403WAT      O88450   3.416   1.370   3.049
29403WAT     H188451   3.426   1.280   3.092
29403WAT     H288452   3.423   1.441   3.119
29404WAT      O88453   4.161   8.606   6.586
29404WAT     H188454   4.144   8.522   6.636
29404WAT     H288455   4.259   8.614   6.567
29405WAT      O88456   6.432   0.437   3.779
29405WAT     H188457   6.431   0.373   3.702
29405WAT     H288458   6.497   0.510   3.760
29406WAT      O88459   1.468   9.186   7.302
29406WAT     H188460   1.477   9.108   7.239
29406WAT     H288461   1.375   9.189   7.339
29407WAT      O88462   6.488   1.875   0.033
29407WAT     H188463   6.462   1.795   0.087
29407WAT     H288464   6.579   1.861  -0.006
29408WAT      O88465   1.710   2.384   0.630
29408WAT     H188466   1.732   2.291   0.660
29408WAT     H288467   1.790   2.442   0.640
29409WAT      O88468   5.114   0.667   9.475
29409WAT     H188469   5.155   0.709   9.556
29409WAT     H288470   5.158   0.579   9.458
29410WAT      O88471   6.287   5.533   2.403
29410WAT     H188472   6.283   5.520   2.502
29410WAT     H288473   6.347   5.463   2.363
29411WAT      O88474   3.047   7.371   4.682
29411WAT     H188475   2.948   7.364   4.676
29411WAT     H288476   3.071   7.455   4.731
29412WAT      O88477   6.992   8.654   6.483
29412WAT     H188478   6.899   8.692   6.488
29412WAT     H288479   6.988   8.561   6.448
29413WAT      O88480   2.396   8.093   4.388
29413WAT     H188481   2.375   8.162   4.458
29413WAT     H288482   2.480   8.119   4.340
29414WAT      O88483   6.021   8.428   5.780
29414WAT     H188484   6.000   8.491   5.855
29414WAT     H288485   6.011   8.334   5.812
29415WAT      O88486   9.714   9.429   4.957
29415WAT     H188487   9.694   9.522   4.989
29415WAT     H288488   9.652   9.364   5.001
29416WAT      O88489   9.485   4.209   9.133
29416WAT     H188490   9.513   4.216   9.037
29416WAT     H288491   9.468   4.113   9.156
29417WAT      O88492   7.739   9.227   1.322
29417WAT     H188493   7.710   9.148   1.268
29417WAT     H288494   7.659   9.277   1.355
29418WAT      O88495   1.136   3.898   2.955
29418WAT     H188496   1.084   3.829   2.904
29418WAT     H288497   1.076   3.942   3.023
29419WAT      O88498   2.725   4.999   5.938
29419WAT     H188499   2.717   4.905   5.971
29419WAT     H288500   2.654   5.018   5.871
29420WAT      O88501   6.182   0.577   1.341
29420WAT     H188502   6.181   0.676   1.330
29420WAT     H288503   6.177   0.553   1.438
29421WAT      O88504   2.304   1.061   0.621
29421WAT     H188505   2.294   0.962   0.620
29421WAT     H288506   2.219   1.103   0.653
29422WAT      O88507   0.185   1.374   6.448
29422WAT     H188508   0.276   1.414   6.461
29422WAT     H288509   0.174   1.345   6.353
29423WAT      O88510   6.226   1.213   5.924
29423WAT     H188511   6.157   1.224   5.996
29423WAT     H288512   6.184   1.228   5.835
29424WAT      O88513   6.638   3.927   8.824
29424WAT     H188514   6.566   3.987   8.788
29424WAT     H288515   6.720   3.981   8.842
29425WAT      O88516   8.076   3.043   0.931
29425WAT     H188517   8.065   2.977   0.857
29425WAT     H288518   8.094   2.995   1.017
29426WAT      O88519   8.974   2.193   7.702
29426WAT     H188520   8.950   2.280   7.658
29426WAT     H288521   8.905   2.171   7.771
29427WAT      O88522   7.851   4.323   7.967
29427WAT     H188523   7.830   4.273   7.884
29427WAT     H288524   7.836   4.421   7.952
29428WAT      O88525   1.130   6.255   0.415
29428WAT     H188526   1.123   6.156   0.403
29428WAT     H288527   1.220   6.278   0.451
29429WAT      O88528   0.299   1.670   7.573
29429WAT     H188529   0.396   1.669   7.595
29429WAT     H288530   0.283   1.623   7.486
29430WAT      O88531   9.160   1.614   2.415
29430WAT     H188532   9.096   1.541   2.392
29430WAT     H288533   9.230   1.580   2.478
29431WAT      O88534   8.412   6.219   1.954
29431WAT     H188535   8.319   6.254   1.946
29431WAT     H288536   8.465   6.277   2.016
29432WAT      O88537   8.081   3.429   3.616
29432WAT     H188538   7.997   3.435   3.561
29432WAT     H288539   8.103   3.333   3.632
29433WAT      O88540   1.102   5.384   5.497
29433WAT     H188541   1.156   5.407   5.578
29433WAT     H288542   1.111   5.458   5.430
29434WAT      O88543   3.204   2.205   5.760
29434WAT     H188544   3.114   2.219   5.801
29434WAT     H288545   3.195   2.151   5.676
29435WAT      O88546   4.215   5.875   4.270
29435WAT     H188547   4.179   5.936   4.340
29435WAT     H288548   4.185   5.905   4.180
29436WAT      O88549   6.597   6.811   5.836
29436WAT     H188550   6.584   6.909   5.845
29436WAT     H288551   6.514   6.764   5.867
29437WAT      O88552   2.912   9.021   3.252
29437WAT     H188553   2.931   9.118   3.269
29437WAT     H288554   2.996   8.977   3.219
29438WAT      O88555   7.442   5.035   2.752
29438WAT     H188556   7.486   5.033   2.662
29438WAT     H288557   7.445   5.128   2.789
29439WAT      O88558   8.022   6.792   4.061
29439WAT     H188559   8.120   6.789   4.041
29439WAT     H288560   8.006   6.767   4.156
29440WAT      O88561   5.403   1.991   2.596
29440WAT     H188562   5.454   1.907   2.615
29440WAT     H288563   5.310   1.982   2.634
29441WAT      O88564   2.830   5.734   7.214
29441WAT     H188565   2.798   5.775   7.299
29441WAT     H288566   2.756   5.682   7.172
29442WAT      O88567   1.518   0.576   1.360
29442WAT     H188568   1.515   0.511   1.284
29442WAT     H288569   1.431   0.626   1.364
29443WAT      O88570   9.749   7.094   9.690
29443WAT     H188571   9.721   7.154   9.764
29443WAT     H288572   9.744   7.143   9.603
29444WAT      O88573   6.543   5.085   7.836
29444WAT     H188574   6.575   5.179   7.848
29444WAT     H288575   6.443   5.085   7.828
29445WAT      O88576   5.899   7.933   7.813
29445WAT     H188577   5.911   8.029   7.789
29445WAT     H288578   5.887   7.924   7.912
29446WAT      O88579   0.657   8.942   7.210
29446WAT     H188580   0.733   8.908   7.265
29446WAT     H288581   0.570   8.915   7.253
29447WAT      O88582   1.804   9.293   5.555
29447WAT     H188583   1.805   9.353   5.475
29447WAT     H288584   1.893   9.296   5.600
29448WAT      O88585   3.929   2.467   7.898
29448WAT     H188586   3.908   2.491   7.803
29448WAT     H288587   3.965   2.548   7.945
29449WAT      O88588   4.386   7.302   9.422
29449WAT     H188589   4.470   7.278   9.372
29449WAT     H288590   4.390   7.399   9.447
29450WAT      O88591   1.897   2.325   2.314
29450WAT     H188592   1.939   2.243   2.274
29450WAT     H288593   1.960   2.364   2.382
29451WAT      O88594   4.042   0.390   6.287
29451WAT     H188595   3.981   0.451   6.236
29451WAT     H288596   4.113   0.356   6.225
29452WAT      O88597   1.842   3.187   2.453
29452WAT     H188598   1.851   3.108   2.391
29452WAT     H288599   1.756   3.234   2.434
29453WAT      O88600   3.052   1.677   7.481
29453WAT     H188601   3.097   1.594   7.514
29453WAT     H288602   3.086   1.757   7.530
29454WAT      O88603   1.223   0.856   3.686
29454WAT     H188604   1.273   0.770   3.681
29454WAT     H288605   1.246   0.904   3.771
29455WAT      O88606   0.615   7.168   7.814
29455WAT     H188607   0.703   7.149   7.856
29455WAT     H288608   0.593   7.265   7.824
29456WAT      O88609   7.232   5.291   6.931
29456WAT     H188610   7.163   5.334   6.990
29456WAT     H288611   7.195   5.283   6.838
29457WAT      O88612   4.534   8.060   1.452
29457WAT     H188613   4.454   8.119   1.436
29457WAT     H288614   4.599   8.071   1.377
29458WAT      O88615   9.384   1.350   9.474
29458WAT     H188616   9.359   1.259   9.440
29458WAT     H288617   9.338   1.367   9.561
29459WAT      O88618   1.769   1.065   9.855
29459WAT     H188619   1.698   1.000   9.827
29459WAT     H288620   1.829   1.084   9.777
29460WAT      O88621   2.181   7.037   1.378
29460WAT     H188622   2.212   6.977   1.453
29460WAT     H288623   2.149   7.124   1.416
29461WAT      O88624   7.916   3.846   9.000
29461WAT     H188625   7.867   3.932   8.983
29461WAT     H288626   7.860   3.769   8.971
29462WAT      O88627   4.486   9.335   3.478
29462WAT     H188628   4.417   9.276   3.436
29462WAT     H288629   4.561   9.279   3.514
29463WAT      O88630   0.672   3.797   0.298
29463WAT     H188631   0.680   3.893   0.327
29463WAT     H288632   0.581   3.781   0.260
29464WAT      O88633   5.675   3.527   6.157
29464WAT     H188634   5.593   3.566   6.116
29464WAT     H288635   5.693   3.571   6.245
29465WAT      O88636   1.119   3.378   9.684
29465WAT     H188637   1.080   3.391   9.775
29465WAT     H288638   1.048   3.346   9.622
29466WAT      O88639   9.123   6.174   6.529
29466WAT     H188640   9.133   6.084   6.485
29466WAT     H288641   9.059   6.230   6.476
29467WAT      O88642   0.323   2.899   6.993
29467WAT     H188643   0.228   2.929   6.998
29467WAT     H288644   0.350   2.886   6.897
29468WAT      O88645   2.144   4.846   5.013
29468WAT     H188646   2.129   4.773   5.079
29468WAT     H288647   2.207   4.815   4.942
29469WAT      O88648   5.273   2.378   9.588
29469WAT     H188649   5.178   2.345   9.587
29469WAT     H288650   5.327   2.327   9.521
29470WAT      O88651   4.289   3.092   8.714
29470WAT     H188652   4.312   3.131   8.625
29470WAT     H288653   4.237   3.008   8.700
29471WAT      O88654   3.552   7.428   6.469
29471WAT     H188655   3.628   7.428   6.534
29471WAT     H288656   3.475   7.477   6.509
29472WAT      O88657   7.912   8.241   4.143
29472WAT     H188658   7.947   8.331   4.168
29472WAT     H288659   7.986   8.184   4.108
29473WAT      O88660   9.492   1.495   1.109
29473WAT     H188661   9.412   1.445   1.143
29473WAT     H288662   9.572   1.436   1.111
29474WAT      O88663   1.362   3.126   4.772
29474WAT     H188664   1.276   3.176   4.778
29474WAT     H288665   1.426   3.160   4.841
29475WAT      O88666   2.325   7.247   8.731
29475WAT     H188667   2.405   7.270   8.674
29475WAT     H288668   2.244   7.241   8.673
29476WAT      O88669   7.371   8.954   5.096
29476WAT     H188670   7.438   8.890   5.133
29476WAT     H288671   7.397   8.980   5.003
29477WAT      O88672   6.449   2.116   8.700
29477WAT     H188673   6.366   2.060   8.697
29477WAT     H288674   6.502   2.091   8.781
29478WAT      O88675   1.469   7.477   3.267
29478WAT     H188676   1.496   7.534   3.344
29478WAT     H288677   1.503   7.384   3.281
29479WAT      O88678   6.191   0.365   6.577
29479WAT     H188679   6.287   0.346   6.556
29479WAT     H288680   6.156   0.293   6.637
29480WAT      O88681   5.033   5.185   0.240
29480WAT     H188682   4.947   5.147   0.206
29480WAT     H288683   5.042   5.279   0.209
29481WAT      O88684   0.147   9.064   3.847
29481WAT     H188685   0.184   8.989   3.902
29481WAT     H288686   0.200   9.147   3.865
29482WAT      O88687   5.903   8.266   2.523
29482WAT     H188688   5.862   8.315   2.600
29482WAT     H288689   5.917   8.329   2.447
29483WAT      O88690   8.070   4.297   8.897
29483WAT     H188691   8.124   4.236   8.956
29483WAT     H288692   7.988   4.326   8.946
29484WAT      O88693   7.858   1.904   5.613
29484WAT     H188694   7.840   1.998   5.585
29484WAT     H288695   7.812   1.886   5.700
29485WAT      O88696   2.109   5.666   3.871
29485WAT     H188697   2.078   5.703   3.784
29485WAT     H288698   2.050   5.589   3.897
29486WAT      O88699   9.017   2.570   9.001
29486WAT     H188700   9.081   2.627   9.053
29486WAT     H288701   8.929   2.616   8.993
29487WAT      O88702   1.272   7.817   6.318
29487WAT     H188703   1.249   7.914   6.311
29487WAT     H288704   1.372   7.807   6.326
29488WAT      O88705   8.961   7.510   1.093
29488WAT     H188706   9.052   7.539   1.120
29488WAT     H288707   8.896   7.530   1.166
29489WAT      O88708   0.343   1.685   2.472
29489WAT     H188709   0.432   1.661   2.432
29489WAT     H288710   0.331   1.784   2.470
29490WAT      O88711   9.762   3.626   1.075
29490WAT     H188712   9.821   3.626   0.994
29490WAT     H288713   9.717   3.538   1.083
29491WAT      O88714   8.724   6.975   5.519
29491WAT     H188715   8.742   6.879   5.496
29491WAT     H288716   8.665   6.980   5.599
29492WAT      O88717   5.646   1.889   8.142
29492WAT     H188718   5.719   1.863   8.079
29492WAT     H288719   5.559   1.850   8.111
29493WAT      O88720   4.658   8.002   4.172
29493WAT     H188721   4.743   7.991   4.120
29493WAT     H288722   4.612   7.913   4.179
29494WAT      O88723   6.215   6.443   9.266
29494WAT     H188724   6.299   6.489   9.297
29494WAT     H288725   6.145   6.453   9.336
29495WAT      O88726   8.093   1.938   6.286
29495WAT     H188727   8.145   1.930   6.202
29495WAT     H288728   8.000   1.971   6.265
29496WAT      O88729   6.253   7.515   6.024
29496WAT     H188730   6.248   7.421   6.058
29496WAT     H288731   6.179   7.531   5.959
29497WAT      O88732   0.678   5.971   3.182
29497WAT     H188733   0.763   6.016   3.210
29497WAT     H288734   0.665   5.984   3.084
29498WAT      O88735   9.770   4.810   8.407
29498WAT     H188736   9.720   4.891   8.375
29498WAT     H288737   9.806   4.760   8.328
29499WAT      O88738   9.732   6.587   0.007
29499WAT     H188739   9.744   6.686   0.012
29499WAT     H288740   9.816   6.545  -0.026
29500WAT      O88741   7.284   3.269   0.391
29500WAT     H188742   7.302   3.184   0.440
29500WAT     H288743   7.265   3.249   0.295
29501WAT      O88744   6.601   9.316   7.640
29501WAT     H188745   6.551   9.232   7.662
29501WAT     H288746   6.696   9.308   7.671
29502WAT      O88747   8.006   6.097   8.996
29502WAT     H188748   8.051   6.115   9.085
29502WAT     H288749   8.003   6.182   8.944
29503WAT      O88750   7.656   3.393   1.301
29503WAT     H188751   7.724   3.331   1.262
29503WAT     H288752   7.697   3.444   1.376
29504WAT      O88753   8.636   0.304   0.495
29504WAT     H188754   8.629   0.205   0.479
29504WAT     H288755   8.549   0.338   0.530
29505WAT      O88756   3.055   6.889   1.428
29505WAT     H188757   3.110   6.964   1.392
29505WAT     H288758   3.113   6.827   1.480
29506WAT      O88759   3.048   4.743   1.207
29506WAT     H188760   3.148   4.741   1.207
29506WAT     H288761   3.015   4.818   1.149
29507WAT      O88762   4.454   7.695   1.042
29507WAT     H188763   4.486   7.601   1.055
29507WAT     H288764   4.354   7.697   1.042
29508WAT      O88765   7.653   2.145   0.729
29508WAT     H188766   7.572   2.164   0.673
29508WAT     H288767   7.674   2.224   0.785
29509WAT      O88768   1.401   2.137   2.715
29509WAT     H188769   1.318   2.094   2.681
29509WAT     H288770   1.405   2.232   2.687
29510WAT      O88771   0.641   5.655   9.191
29510WAT     H188772   0.554   5.612   9.214
29510WAT     H288773   0.658   5.731   9.252
29511WAT      O88774   5.738   2.384   0.265
29511WAT     H188775   5.644   2.392   0.233
29511WAT     H288776   5.742   2.321   0.343
29512WAT      O88777   6.772   6.291   4.861
29512WAT     H188778   6.824   6.303   4.945
29512WAT     H288779   6.695   6.229   4.878
29513WAT      O88780   2.824   7.642   5.036
29513WAT     H188781   2.771   7.676   5.114
29513WAT     H288782   2.902   7.702   5.020
29514WAT      O88783   6.452   1.246   1.450
29514WAT     H188784   6.455   1.166   1.511
29514WAT     H288785   6.418   1.325   1.500
29515WAT      O88786   1.559   5.993   1.772
29515WAT     H188787   1.575   6.005   1.870
29515WAT     H288788   1.610   5.913   1.740
29516WAT      O88789   0.087   2.216   2.905
29516WAT     H188790   0.105   2.270   2.987
29516WAT     H288791   0.067   2.276   2.828
29517WAT      O88792   0.989   0.406   1.291
29517WAT     H188793   1.015   0.495   1.254
29517WAT     H288794   1.070   0.350   1.305
29518WAT      O88795   7.120   8.415   2.545
29518WAT     H188796   7.047   8.457   2.599
29518WAT     H288797   7.142   8.474   2.467
29519WAT      O88798   9.838   8.164   9.527
29519WAT     H188799   9.906   8.108   9.573
29519WAT     H288800   9.880   8.250   9.498
29520WAT      O88801   1.498   4.743   0.163
29520WAT     H188802   1.546   4.774   0.081
29520WAT     H288803   1.541   4.660   0.197
29521WAT      O88804   0.276   1.413   9.626
29521WAT     H188805   0.265   1.491   9.566
29521WAT     H288806   0.201   1.410   9.692
29522WAT      O88807   4.049   2.900   8.947
29522WAT     H188808   4.068   2.994   8.975
29522WAT     H288809   4.091   2.883   8.858
29523WAT      O88810   3.448   5.309   2.832
29523WAT     H188811   3.376   5.363   2.789
29523WAT     H288812   3.458   5.339   2.928
29524WAT      O88813   3.722   8.494   3.484
29524WAT     H188814   3.682   8.540   3.563
29524WAT     H288815   3.658   8.497   3.407
29525WAT      O88816   4.501   7.747   4.202
29525WAT     H188817   4.562   7.767   4.280
29525WAT     H288818   4.533   7.664   4.157
29526WAT      O88819   4.132   2.874   8.670
29526WAT     H188820   4.039   2.903   8.646
29526WAT     H288821   4.170   2.818   8.597
29527WAT      O88822   4.317   5.803   3.091
29527WAT     H188823   4.268   5.838   3.171
29527WAT     H288824   4.367   5.877   3.047
29528WAT      O88825   1.290   5.422   4.067
29528WAT     H188826   1.195   5.392   4.076
29528WAT     H288827   1.350   5.353   4.105
29529WAT      O88828   6.941   9.191   1.167
29529WAT     H188829   6.965   9.115   1.105
29529WAT     H288830   6.962   9.278   1.122
29530WAT      O88831   2.990   2.317   8.601
29530WAT     H188832   3.007   2.399   8.545
29530WAT     H288833   3.040   2.240   8.561
29531WAT      O88834   5.793   5.425   3.692
29531WAT     H188835   5.869   5.366   3.664
29531WAT     H288836   5.707   5.387   3.657
29532WAT      O88837   9.559   6.900   6.372
29532WAT     H188838   9.549   6.802   6.388
29532WAT     H288839   9.546   6.950   6.458
29533WAT      O88840   6.023   9.795   6.481
29533WAT     H188841   6.104   9.799   6.538
29533WAT     H288842   5.962   9.872   6.504
29534WAT      O88843   0.674   7.792   3.084
29534WAT     H188844   0.758   7.759   3.128
29534WAT     H288845   0.633   7.717   3.031
29535WAT      O88846   2.137   9.699   4.498
29535WAT     H188847   2.226   9.660   4.521
29535WAT     H288848   2.147   9.760   4.419
29536WAT      O88849   1.361   2.057   7.507
29536WAT     H188850   1.347   2.147   7.467
29536WAT     H288851   1.351   2.063   7.607
29537WAT      O88852   6.041   7.168   1.743
29537WAT     H188853   6.134   7.202   1.735
29537WAT     H288854   6.038   7.092   1.808
29538WAT      O88855   5.110   4.763   8.004
29538WAT     H188856   5.149   4.833   8.065
29538WAT     H288857   5.184   4.717   7.955
29539WAT      O88858   6.958   8.976   8.478
29539WAT     H188859   6.877   8.926   8.448
29539WAT     H288860   6.993   8.936   8.562
29540WAT      O88861   5.006   7.877   7.100
29540WAT     H188862   5.023   7.944   7.173
29540WAT     H288863   4.908   7.862   7.091
29541WAT      O88864   8.874   8.201   8.636
29541WAT     H188865   8.972   8.202   8.653
29541WAT     H288866   8.845   8.291   8.604
29542WAT      O88867   7.924   5.967   7.529
29542WAT     H188868   7.845   5.948   7.587
29542WAT     H288869   7.953   5.883   7.482
29543WAT      O88870   1.546   3.024   1.815
29543WAT     H188871   1.630   3.027   1.760
29543WAT     H288872   1.502   2.935   1.804
29544WAT      O88873   7.078   5.867   6.846
29544WAT     H188874   7.099   5.962   6.867
29544WAT     H288875   7.158   5.810   6.869
29545WAT      O88876   4.983   3.864   5.248
29545WAT     H188877   5.026   3.943   5.291
29545WAT     H288878   5.038   3.782   5.267
29546WAT      O88879   5.355   9.046   8.495
29546WAT     H188880   5.380   8.962   8.447
29546WAT     H288881   5.413   9.057   8.575
29547WAT      O88882   1.469   7.392   5.569
29547WAT     H188883   1.484   7.406   5.667
29547WAT     H288884   1.387   7.335   5.556
29548WAT      O88885   7.240   3.868   1.384
29548WAT     H188886   7.185   3.892   1.464
29548WAT     H288887   7.181   3.863   1.304
29549WAT      O88888   4.726   8.737   8.232
29549WAT     H188889   4.711   8.649   8.278
29549WAT     H288890   4.643   8.792   8.240
29550WAT      O88891   4.369   9.734   1.869
29550WAT     H188892   4.305   9.738   1.792
29550WAT     H288893   4.408   9.824   1.885
29551WAT      O88894   7.791   7.684   2.295
29551WAT     H188895   7.768   7.636   2.211
29551WAT     H288896   7.865   7.635   2.342
29552WAT      O88897   7.508   2.423   6.457
29552WAT     H188898   7.579   2.366   6.499
29552WAT     H288899   7.423   2.415   6.510
29553WAT      O88900   5.482   4.890   3.012
29553WAT     H188901   5.398   4.874   2.960
29553WAT     H288902   5.470   4.970   3.070
29554WAT      O88903   2.596   5.695   9.576
29554WAT     H188904   2.612   5.673   9.673
29554WAT     H288905   2.498   5.699   9.559
29555WAT      O88906   0.199   2.069   6.973
29555WAT     H188907   0.291   2.032   6.967
29555WAT     H288908   0.138   2.000   7.011
29556WAT      O88909   8.123   2.979   3.337
29556WAT     H188910   8.129   2.884   3.369
29556WAT     H288911   8.089   2.980   3.243
29557WAT      O88912   5.738   9.036   8.696
29557WAT     H188913   5.645   9.022   8.729
29557WAT     H288914   5.803   9.017   8.769
29558WAT      O88915   9.317   3.251   1.564
29558WAT     H188916   9.390   3.226   1.628
29558WAT     H288917   9.356   3.304   1.489
29559WAT      O88918   6.764   4.508   8.524
29559WAT     H188919   6.821   4.439   8.569
29559WAT     H288920   6.717   4.467   8.446
29560WAT      O88921   1.345   1.367   8.974
29560WAT     H188922   1.401   1.410   8.903
29560WAT     H288923   1.402   1.347   9.054
29561WAT      O88924   5.854   8.141   6.993
29561WAT     H188925   5.927   8.080   7.022
29561WAT     H288926   5.887   8.235   6.993
29562WAT      O88927   0.211   5.675   2.051
29562WAT     H188928   0.213   5.772   2.074
29562WAT     H288929   0.116   5.647   2.035
29563WAT      O88930   6.926   0.625   3.532
29563WAT     H188931   6.873   0.667   3.606
29563WAT     H288932   6.924   0.525   3.542
29564WAT      O88933   6.087   6.141   9.072
29564WAT     H188934   6.079   6.089   8.987
29564WAT     H288935   6.023   6.105   9.139
29565WAT      O88936   3.083   7.375   3.133
29565WAT     H188937   3.047   7.418   3.216
29565WAT     H288938   3.183   7.376   3.135
29566WAT      O88939   0.206   5.496   0.980
29566WAT     H188940   0.220   5.441   0.898
29566WAT     H288941   0.110   5.493   1.007
29567WAT      O88942   3.733   1.359   3.967
29567WAT     H188943   3.677   1.442   3.975
29567WAT     H288944   3.797   1.355   4.045
29568WAT      O88945   7.575   0.057   3.259
29568WAT     H188946   7.623  -0.026   3.289
29568WAT     H288947   7.492   0.032   3.210
29569WAT      O88948   8.450   5.016   7.671
29569WAT     H188949   8.534   5.066   7.649
29569WAT     H288950   8.372   5.077   7.658
29570WAT      O88951   2.636   6.170   8.233
29570WAT     H188952   2.719   6.115   8.226
29570WAT     H288953   2.610   6.203   8.143
29571WAT      O88954   5.100   8.662   9.636
29571WAT     H188955   5.184   8.691   9.590
29571WAT     H288956   5.123   8.607   9.716
29572WAT      O88957   8.232   0.996   7.150
29572WAT     H188958   8.205   1.081   7.195
29572WAT     H288959   8.163   0.971   7.081
29573WAT      O88960   9.484   9.028   3.276
29573WAT     H188961   9.501   9.031   3.374
29573WAT     H288962   9.533   9.102   3.231
29574WAT      O88963   3.467   5.299   7.366
29574WAT     H188964   3.400   5.324   7.296
29574WAT     H288965   3.427   5.311   7.456
29575WAT      O88966   9.573   2.891   0.771
29575WAT     H188967   9.581   2.809   0.714
29575WAT     H288968   9.662   2.935   0.779
29576WAT      O88969   2.577   2.260   7.935
29576WAT     H188970   2.579   2.164   7.963
29576WAT     H288971   2.596   2.319   8.013
29577WAT      O88972   5.734   2.834   8.115
29577WAT     H188973   5.774   2.899   8.179
29577WAT     H288974   5.807   2.784   8.068
29578WAT      O88975   2.628   3.745   4.901
29578WAT     H188976   2.598   3.702   4.986
29578WAT     H288977   2.548   3.760   4.842
29579WAT      O88978   9.746   8.655   3.054
29579WAT     H188979   9.648   8.636   3.047
29579WAT     H288980   9.770   8.664   3.151
29580WAT      O88981   9.632   4.481   0.675
29580WAT     H188982   9.696   4.493   0.599
29580WAT     H288983   9.584   4.567   0.691
29581WAT      O88984   7.820   1.383   1.272
29581WAT     H188985   7.796   1.471   1.311
29581WAT     H288986   7.741   1.345   1.224
29582WAT      O88987   4.337   7.671   8.714
29582WAT     H188988   4.315   7.741   8.782
29582WAT     H288989   4.416   7.618   8.745
29583WAT      O88990   8.401   4.228   8.993
29583WAT     H188991   8.320   4.171   9.007
29583WAT     H288992   8.461   4.185   8.925
29584WAT      O88993   1.611   5.087   3.357
29584WAT     H188994   1.702   5.050   3.377
29584WAT     H288995   1.541   5.026   3.396
29585WAT      O88996   5.118   6.878   4.558
29585WAT     H188997   5.073   6.850   4.643
29585WAT     H288998   5.056   6.867   4.481
29586WAT      O88999   2.441   7.724   1.896
29586WAT     H189000   2.528   7.745   1.941
29586WAT     H289001   2.457   7.663   1.819
29587WAT      O89002   8.369   2.414   6.279
29587WAT     H189003   8.334   2.453   6.364
29587WAT     H289004   8.443   2.349   6.301
29588WAT      O89005   6.939   0.136   2.930
29588WAT     H189006   6.848   0.126   2.890
29588WAT     H289007   6.987   0.048   2.926
29589WAT      O89008   7.438   4.130   6.673
29589WAT     H189009   7.390   4.217   6.658
29589WAT     H289010   7.426   4.102   6.769
29590WAT      O89011   7.568   1.870   2.386
29590WAT     H189012   7.606   1.824   2.466
29590WAT     H289013   7.571   1.809   2.307
29591WAT      O89014   3.609   8.521   9.432
29591WAT     H189015   3.624   8.588   9.360
29591WAT     H289016   3.574   8.436   9.392
29592WAT      O89017   9.490   1.715   4.997
29592WAT     H189018   9.568   1.652   4.991
29592WAT     H289019   9.448   1.723   4.906
29593WAT      O89020   8.868   4.054   1.079
29593WAT     H189021   8.952   4.005   1.103
29593WAT     H289022   8.796   3.988   1.057
29594WAT      O89023   3.414   8.581   8.602
29594WAT     H189024   3.337   8.625   8.555
29594WAT     H289025   3.449   8.507   8.545
29595WAT      O89026   6.494   1.782   9.589
29595WAT     H189027   6.533   1.844   9.521
29595WAT     H289028   6.567   1.745   9.647
29596WAT      O89029   1.403   2.339   3.780
29596WAT     H189030   1.352   2.258   3.810
29596WAT     H289031   1.372   2.367   3.689
29597WAT      O89032   8.634   6.374   9.255
29597WAT     H189033   8.587   6.310   9.194
29597WAT     H289034   8.662   6.455   9.203
29598WAT      O89035   5.490   7.325   0.861
29598WAT     H189036   5.487   7.405   0.921
29598WAT     H289037   5.442   7.248   0.905
29599WAT      O89038   5.336   2.528   0.444
29599WAT     H189039   5.401   2.551   0.516
29599WAT     H289040   5.357   2.438   0.408
29600WAT      O89041   9.381   5.398   5.669
29600WAT     H189042   9.281   5.391   5.675
29600WAT     H289043   9.416   5.326   5.608
29601WAT      O89044   9.386   6.539   3.538
29601WAT     H189045   9.401   6.448   3.499
29601WAT     H289046   9.414   6.540   3.634
29602WAT      O89047   1.452   1.919   4.520
29602WAT     H189048   1.509   1.889   4.596
29602WAT     H289049   1.501   1.904   4.434
29603WAT      O89050   7.080   3.206   4.018
29603WAT     H189051   7.094   3.207   4.117
29603WAT     H289052   7.167   3.224   3.972
29604WAT      O89053   8.016   7.795   8.994
29604WAT     H189054   7.983   7.878   9.041
29604WAT     H289055   8.004   7.806   8.896
29605WAT      O89056   0.073   2.811   6.165
29605WAT     H189057   0.054   2.762   6.080
29605WAT     H289058   0.114   2.749   6.231
29606WAT      O89059   4.490   0.148   7.025
29606WAT     H189060   4.407   0.093   7.022
29606WAT     H289061   4.548   0.116   7.100
29607WAT      O89062   0.592   2.550   5.386
29607WAT     H189063   0.547   2.631   5.348
29607WAT     H289064   0.611   2.486   5.312
29608WAT      O89065   0.229   2.495   3.772
29608WAT     H189066   0.141   2.467   3.811
29608WAT     H289067   0.301   2.435   3.806
29609WAT      O89068   3.976   9.358   1.216
29609WAT     H189069   4.005   9.451   1.190
29609WAT     H289070   3.986   9.297   1.138
29610WAT      O89071   8.721   8.343   6.698
29610WAT     H189072   8.693   8.296   6.782
29610WAT     H289073   8.821   8.339   6.688
29611WAT      O89074   2.252   2.593   1.578
29611WAT     H189075   2.205   2.595   1.666
29611WAT     H289076   2.190   2.556   1.509
29612WAT      O89077   5.623   8.642   7.108
29612WAT     H189078   5.714   8.684   7.103
29612WAT     H289079   5.630   8.545   7.085
29613WAT      O89080   3.010   9.258   6.583
29613WAT     H189081   2.963   9.170   6.598
29613WAT     H289082   3.070   9.251   6.504
29614WAT      O89083   4.406   2.619   6.828
29614WAT     H189084   4.402   2.551   6.755
29614WAT     H289085   4.373   2.707   6.794
29615WAT      O89086   3.458   2.636   4.726
29615WAT     H189087   3.464   2.595   4.635
29615WAT     H289088   3.544   2.683   4.747
29616WAT      O89089   5.750   2.411   9.147
29616WAT     H189090   5.729   2.502   9.110
29616WAT     H289091   5.849   2.396   9.145
29617WAT      O89092   7.548   4.374   0.127
29617WAT     H189093   7.557   4.326   0.039
29617WAT     H289094   7.634   4.418   0.150
29618WAT      O89095   4.301   7.462   5.770
29618WAT     H189096   4.339   7.549   5.803
29618WAT     H289097   4.224   7.436   5.827
29619WAT      O89098   7.554   9.381   2.676
29619WAT     H189099   7.581   9.396   2.772
29619WAT     H289100   7.516   9.290   2.666
29620WAT      O89101   1.447   6.237   5.106
29620WAT     H189102   1.537   6.219   5.065
29620WAT     H289103   1.423   6.333   5.091
29621WAT      O89104   8.922   0.661   4.331
29621WAT     H189105   8.841   0.700   4.375
29621WAT     H289106   8.919   0.679   4.233
29622WAT      O89107   3.365   4.618   0.775
29622WAT     H189108   3.306   4.572   0.709
29622WAT     H289109   3.343   4.586   0.868
29623WAT      O89110   2.907   9.738   9.178
29623WAT     H189111   2.966   9.811   9.146
29623WAT     H289112   2.941   9.702   9.265
29624WAT      O89113   2.604   5.253   7.714
29624WAT     H189114   2.506   5.231   7.706
29624WAT     H289115   2.641   5.210   7.796
29625WAT      O89116   0.394   7.280   1.482
29625WAT     H189117   0.310   7.254   1.529
29625WAT     H289118   0.433   7.362   1.524
29626WAT      O89119   0.405   2.912   7.695
29626WAT     H189120   0.427   2.994   7.642
29626WAT     H289121   0.490   2.866   7.721
29627WAT      O89122   3.042   5.983   4.983
29627WAT     H189123   3.060   6.069   5.031
29627WAT     H289124   3.093   5.982   4.897
29628WAT      O89125   4.549   1.775   3.408
29628WAT     H189126   4.589   1.762   3.317
29628WAT     H289127   4.618   1.814   3.469
29629WAT      O89128   2.848   8.146   1.436
29629WAT     H189129   2.846   8.106   1.528
29629WAT     H289130   2.871   8.243   1.443
29630WAT      O89131   4.635   0.834   9.436
29630WAT     H189132   4.727   0.807   9.466
29630WAT     H289133   4.585   0.870   9.515
29631WAT      O89134   1.678   9.149   2.415
29631WAT     H189135   1.643   9.184   2.501
29631WAT     H289136   1.775   9.126   2.425
29632WAT      O89137   1.774   3.554   1.282
29632WAT     H189138   1.826   3.513   1.207
29632WAT     H289139   1.728   3.636   1.249
29633WAT      O89140   7.735   2.355   6.590
29633WAT     H189141   7.826   2.337   6.551
29633WAT     H289142   7.745   2.412   6.672
29634WAT      O89143   9.263   1.722   4.105
29634WAT     H189144   9.329   1.693   4.174
29634WAT     H289145   9.246   1.646   4.041
29635WAT      O89146   2.934   8.984   6.948
29635WAT     H189147   2.992   9.043   7.005
29635WAT     H289148   2.859   9.037   6.911
29636WAT      O89149   7.276   7.132   0.699
29636WAT     H189150   7.184   7.114   0.665
29636WAT     H289151   7.288   7.230   0.712
29637WAT      O89152   0.891   8.713   3.555
29637WAT     H189153   0.865   8.707   3.651
29637WAT     H289154   0.812   8.694   3.497
29638WAT      O89155   2.792   2.284   6.530
29638WAT     H189156   2.819   2.188   6.536
29638WAT     H289157   2.700   2.290   6.492
29639WAT      O89158   4.679   8.317   8.118
29639WAT     H189159   4.591   8.307   8.071
29639WAT     H289160   4.742   8.368   8.060
29640WAT      O89161   8.537   1.913   2.886
29640WAT     H189162   8.522   1.922   2.788
29640WAT     H289163   8.520   1.818   2.914
29641WAT      O89164   4.185   0.278   6.075
29641WAT     H189165   4.200   0.363   6.025
29641WAT     H289166   4.232   0.203   6.029
29642WAT      O89167   7.300   9.038   8.732
29642WAT     H189168   7.292   9.098   8.812
29642WAT     H289169   7.208   9.017   8.697
29643WAT      O89170   3.004   6.471   1.900
29643WAT     H189171   3.073   6.398   1.897
29643WAT     H289172   2.994   6.502   1.995
29644WAT      O89173   0.089   3.225   6.746
29644WAT     H189174   0.162   3.275   6.792
29644WAT     H289175   0.120   3.132   6.726
29645WAT      O89176   1.024   0.468   7.787
29645WAT     H189177   0.991   0.538   7.850
29645WAT     H289178   1.090   0.509   7.724
29646WAT      O89179   4.732   5.161   6.052
29646WAT     H189180   4.711   5.231   6.120
29646WAT     H289181   4.709   5.195   5.960
29647WAT      O89182   0.722   7.513  -0.003
29647WAT     H189183   0.760   7.593   0.043
29647WAT     H289184   0.780   7.434   0.015
29648WAT      O89185   6.633   4.449   5.534
29648WAT     H189186   6.577   4.367   5.522
29648WAT     H289187   6.730   4.426   5.523
29649WAT      O89188   8.436   8.681   5.623
29649WAT     H189189   8.374   8.729   5.561
29649WAT     H289190   8.529   8.683   5.585
29650WAT      O89191   8.915   5.565   4.247
29650WAT     H189192   8.908   5.501   4.171
29650WAT     H289193   8.976   5.528   4.317
29651WAT      O89194   5.178   3.610   2.506
29651WAT     H189195   5.116   3.544   2.549
29651WAT     H289196   5.194   3.584   2.411
29652WAT      O89197   6.195   8.663   8.561
29652WAT     H189198   6.278   8.701   8.601
29652WAT     H289199   6.115   8.711   8.598
29653WAT      O89200   8.515   8.624   4.921
29653WAT     H189201   8.499   8.713   4.962
29653WAT     H289202   8.444   8.605   4.853
29654WAT      O89203   2.219   8.495   0.765
29654WAT     H189204   2.122   8.505   0.787
29654WAT     H289205   2.264   8.585   0.770
29655WAT      O89206   0.049   5.635   3.106
29655WAT     H189207   0.060   5.537   3.090
29655WAT     H289208   0.126   5.669   3.160
29656WAT      O89209   6.342   4.031   6.054
29656WAT     H189210   6.422   3.985   6.092
29656WAT     H289211   6.371   4.115   6.008
29657WAT      O89212   2.985   1.690   3.311
29657WAT     H189213   2.912   1.725   3.253
29657WAT     H289214   3.028   1.611   3.267
29658WAT      O89215   9.247   6.143   5.465
29658WAT     H189216   9.315   6.112   5.398
29658WAT     H289217   9.158   6.103   5.444
29659WAT      O89218   5.639   5.899   2.492
29659WAT     H189219   5.639   5.947   2.580
29659WAT     H289220   5.556   5.844   2.483
29660WAT      O89221   9.734   4.771   5.541
29660WAT     H189222   9.829   4.799   5.552
29660WAT     H289223   9.720   4.734   5.450
29661WAT      O89224   7.591   2.684   5.181
29661WAT     H189225   7.507   2.734   5.161
29661WAT     H289226   7.592   2.658   5.278
29662WAT      O89227   2.251   4.639   8.357
29662WAT     H189228   2.333   4.664   8.409
29662WAT     H289229   2.255   4.541   8.335
29663WAT      O89230   3.469   2.231   2.974
29663WAT     H189231   3.467   2.176   3.057
29663WAT     H289232   3.416   2.315   2.988
29664WAT      O89233   9.463   6.391   6.130
29664WAT     H189234   9.461   6.491   6.118
29664WAT     H289235   9.521   6.351   6.059
29665WAT      O89236   9.366   3.351   3.453
29665WAT     H189237   9.327   3.417   3.518
29665WAT     H289238   9.294   3.315   3.395
29666WAT      O89239   2.825   8.767   0.686
29666WAT     H189240   2.751   8.805   0.743
29666WAT     H289241   2.886   8.713   0.743
29667WAT      O89242   2.605   5.602   5.181
29667WAT     H189243   2.525   5.648   5.142
29667WAT     H289244   2.578   5.553   5.264
29668WAT      O89245   5.432   6.916   8.699
29668WAT     H189246   5.473   6.887   8.785
29668WAT     H289247   5.458   7.010   8.679
29669WAT      O89248   7.171   7.369   0.354
29669WAT     H189249   7.134   7.457   0.323
29669WAT     H289250   7.213   7.380   0.444
29670WAT      O89251   5.561   0.463   7.503
29670WAT     H189252   5.489   0.436   7.439
29670WAT     H289253   5.585   0.384   7.560
29671WAT      O89254   1.970   3.156   9.352
29671WAT     H189255   1.997   3.188   9.442
29671WAT     H289256   1.960   3.056   9.354
29672WAT      O89257   3.280   9.553   9.638
29672WAT     H189258   3.238   9.639   9.664
29672WAT     H289259   3.260   9.534   9.542
29673WAT      O89260   4.313   9.206   9.808
29673WAT     H189261   4.328   9.215   9.906
29673WAT     H289262   4.350   9.119   9.776
29674WAT      O89263   6.833   5.534   3.187
29674WAT     H189264   6.756   5.573   3.238
29674WAT     H289265   6.918   5.548   3.239
29675WAT      O89266   5.391   0.048   3.301
29675WAT     H189267   5.483   0.053   3.263
29675WAT     H289268   5.394   0.062   3.400
29676WAT      O89269   1.164   8.042   3.756
29676WAT     H189270   1.170   8.141   3.745
29676WAT     H289271   1.069   8.016   3.772
29677WAT      O89272   3.782   4.968   0.616
29677WAT     H189273   3.746   4.964   0.522
29677WAT     H289274   3.882   4.971   0.613
29678WAT      O89275   8.557   5.021   1.531
29678WAT     H189276   8.550   4.958   1.454
29678WAT     H289277   8.618   5.096   1.508
29679WAT      O89278   0.437   5.831   9.556
29679WAT     H189279   0.465   5.889   9.479
29679WAT     H289280   0.518   5.789   9.597
29680WAT      O89281   3.561   2.379   8.816
29680WAT     H189282   3.639   2.318   8.828
29680WAT     H289283   3.554   2.441   8.894
29681WAT      O89284   5.319   0.579   3.001
29681WAT     H189285   5.242   0.538   3.050
29681WAT     H289286   5.394   0.513   2.996
29682WAT      O89287   7.344   2.576   0.366
29682WAT     H189288   7.414   2.518   0.327
29682WAT     H289289   7.368   2.598   0.461
29683WAT      O89290   1.332   4.563   0.709
29683WAT     H189291   1.365   4.553   0.803
29683WAT     H289292   1.232   4.570   0.710
29684WAT      O89293   0.561   5.940   2.905
29684WAT     H189294   0.649   5.898   2.885
29684WAT     H289295   0.561   6.035   2.874
29685WAT      O89296   8.209   7.776   2.802
29685WAT     H189297   8.176   7.755   2.710
29685WAT     H289298   8.169   7.713   2.868
29686WAT      O89299   5.299   8.395   6.541
29686WAT     H189300   5.300   8.337   6.622
29686WAT     H289301   5.375   8.460   6.546
29687WAT      O89302   1.755   9.201   3.535
29687WAT     H189303   1.738   9.148   3.452
29687WAT     H289304   1.719   9.152   3.614
29688WAT      O89305   1.212   3.351   3.087
29688WAT     H189306   1.129   3.398   3.117
29688WAT     H289307   1.291   3.410   3.102
29689WAT      O89308   3.678   5.934   7.462
29689WAT     H189309   3.701   5.881   7.543
29689WAT     H289310   3.660   6.029   7.488
29690WAT      O89311   3.199   3.481   7.576
29690WAT     H189312   3.287   3.470   7.623
29690WAT     H289313   3.198   3.424   7.494
29691WAT      O89314   3.100   8.514   3.544
29691WAT     H189315   3.130   8.565   3.463
29691WAT     H289316   3.179   8.497   3.603
29692WAT      O89317   6.063   4.882   1.389
29692WAT     H189318   6.098   4.891   1.296
29692WAT     H289319   5.974   4.838   1.387
29693WAT      O89320   4.159   0.076   1.059
29693WAT     H189321   4.081   0.028   1.100
29693WAT     H289322   4.231   0.086   1.128
29694WAT      O89323   8.615   5.633   9.760
29694WAT     H189324   8.616   5.649   9.661
29694WAT     H289325   8.626   5.721   9.808
29695WAT      O89326   6.944   9.550   1.377
29695WAT     H189327   6.935   9.451   1.387
29695WAT     H289328   6.877   9.582   1.309
29696WAT      O89329   1.063   1.738   1.645
29696WAT     H189330   0.979   1.768   1.690
29696WAT     H289331   1.057   1.641   1.623
29697WAT      O89332   6.025   2.385   4.012
29697WAT     H189333   5.947   2.412   3.956
29697WAT     H289334   6.109   2.417   3.969
29698WAT      O89335   5.601   2.567   6.568
29698WAT     H189336   5.578   2.470   6.569
29698WAT     H289337   5.635   2.595   6.658
29699WAT      O89338   0.023   7.929   0.155
29699WAT     H189339  -0.034   7.923   0.073
29699WAT     H289340  -0.006   8.007   0.210
29700WAT      O89341   2.547   6.923   4.773
29700WAT     H189342   2.488   6.850   4.740
29700WAT     H289343   2.546   6.925   4.873
29701WAT      O89344   3.639   3.926   8.594
29701WAT     H189345   3.594   3.945   8.681
29701WAT     H289346   3.725   3.977   8.590
29702WAT      O89347   3.226   9.677   9.301
29702WAT     H189348   3.228   9.776   9.287
29702WAT     H289349   3.158   9.654   9.371
29703WAT      O89350   5.101   2.069   5.718
29703WAT     H189351   5.012   2.057   5.762
29703WAT     H289352   5.171   2.019   5.769
29704WAT      O89353   3.528   7.502   1.622
29704WAT     H189354   3.612   7.523   1.572
29704WAT     H289355   3.465   7.453   1.562
29705WAT      O89356   0.053   2.064   4.073
29705WAT     H189357  -0.046   2.062   4.074
29705WAT     H289358   0.089   1.997   4.139
29706WAT      O89359   0.249   9.631   8.431
29706WAT     H189360   0.235   9.721   8.390
29706WAT     H289361   0.251   9.562   8.359
29707WAT      O89362   7.007   6.323   7.558
29707WAT     H189363   6.985   6.268   7.638
29707WAT     H289364   6.981   6.418   7.573
29708WAT      O89365   5.039   2.798   0.980
29708WAT     H189366   5.113   2.841   1.030
29708WAT     H289367   5.069   2.777   0.887
29709WAT      O89368   1.116   6.405   6.671
29709WAT     H189369   1.170   6.332   6.713
29709WAT     H289370   1.114   6.393   6.572
29710WAT      O89371   9.591   4.432   3.381
29710WAT     H189372   9.604   4.460   3.286
29710WAT     H289373   9.660   4.477   3.438
29711WAT      O89374   0.532   1.696   0.672
29711WAT     H189375   0.630   1.708   0.688
29711WAT     H289376   0.509   1.728   0.580
29712WAT      O89377   1.212   9.048   1.738
29712WAT     H189378   1.212   9.147   1.755
29712WAT     H289379   1.276   9.003   1.801
29713WAT      O89380   4.444   1.840   2.197
29713WAT     H189381   4.424   1.899   2.119
29713WAT     H289382   4.362   1.789   2.223
29714WAT      O89383   2.727   5.012   4.370
29714WAT     H189384   2.764   4.970   4.452
29714WAT     H289385   2.765   5.104   4.359
29715WAT      O89386   8.924   2.750   4.418
29715WAT     H189387   8.996   2.685   4.392
29715WAT     H289388   8.952   2.799   4.501
29716WAT      O89389   2.409   8.697   7.822
29716WAT     H189390   2.470   8.718   7.898
29716WAT     H289391   2.457   8.712   7.735
29717WAT      O89392   1.200   6.164   9.822
29717WAT     H189393   1.130   6.205   9.763
29717WAT     H289394   1.156   6.118   9.899
29718WAT      O89395   9.610   9.510   4.115
29718WAT     H189396   9.700   9.532   4.077
29718WAT     H289397   9.540   9.525   4.045
29719WAT      O89398   2.727   3.541   7.278
29719WAT     H189399   2.639   3.495   7.290
29719WAT     H289400   2.757   3.531   7.183
29720WAT      O89401   2.306   3.680   8.906
29720WAT     H189402   2.252   3.671   8.822
29720WAT     H289403   2.387   3.736   8.888
29721WAT      O89404   4.191   3.454   5.511
29721WAT     H189405   4.152   3.404   5.434
29721WAT     H289406   4.196   3.395   5.591
29722WAT      O89407   6.569   1.739   8.760
29722WAT     H189408   6.584   1.836   8.743
29722WAT     H289409   6.644   1.686   8.720
29723WAT      O89410   5.794   1.828   2.326
29723WAT     H189411   5.866   1.891   2.298
29723WAT     H289412   5.764   1.850   2.418
29724WAT      O89413   7.228   9.733   7.073
29724WAT     H189414   7.299   9.664   7.057
29724WAT     H289415   7.254   9.791   7.150
29725WAT      O89416   2.798   1.363   0.567
29725WAT     H189417   2.768   1.303   0.493
29725WAT     H289418   2.737   1.352   0.645
29726WAT      O89419   5.258   3.129   7.964
29726WAT     H189420   5.350   3.090   7.977
29726WAT     H289421   5.255   3.176   7.876
29727WAT      O89422   0.007   5.979   0.936
29727WAT     H189423   0.102   5.996   0.909
29727WAT     H289424   0.002   5.896   0.990
29728WAT      O89425   1.135   5.621   6.607
29728WAT     H189426   1.071   5.633   6.531
29728WAT     H289427   1.097   5.555   6.672
29729WAT      O89428   0.294   7.111   3.189
29729WAT     H189429   0.390   7.136   3.182
29729WAT     H289430   0.281   7.050   3.267
29730WAT      O89431   1.184   1.559   4.417
29730WAT     H189432   1.202   1.461   4.417
29730WAT     H289433   1.222   1.601   4.499
29731WAT      O89434   4.764   3.480   0.149
29731WAT     H189435   4.795   3.520   0.063
29731WAT     H289436   4.762   3.380   0.140
29732WAT      O89437   0.014   4.863   6.726
29732WAT     H189438   0.108   4.837   6.745
29732WAT     H289439  -0.026   4.906   6.807
29733WAT      O89440   3.665   6.167   9.513
29733WAT     H189441   3.589   6.168   9.447
29733WAT     H289442   3.716   6.253   9.507
29734WAT      O89443   7.104   5.476   6.123
29734WAT     H189444   7.016   5.521   6.137
29734WAT     H289445   7.133   5.489   6.028
29735WAT      O89446   2.180   6.746   9.353
29735WAT     H189447   2.256   6.756   9.290
29735WAT     H289448   2.177   6.826   9.414
29736WAT      O89449   7.099   3.261   1.252
29736WAT     H189450   7.188   3.307   1.259
29736WAT     H289451   7.048   3.274   1.337
29737WAT      O89452   9.048   6.218   4.733
29737WAT     H189453   8.994   6.210   4.817
29737WAT     H289454   9.034   6.309   4.693
29738WAT      O89455   9.844   7.480   2.798
29738WAT     H189456   9.913   7.412   2.777
29738WAT     H289457   9.785   7.447   2.872
29739WAT      O89458   9.671   0.925   0.185
29739WAT     H189459   9.760   0.907   0.228
29739WAT     H289460   9.677   0.906   0.087
29740WAT      O89461   0.306   6.911   5.337
29740WAT     H189462   0.266   6.997   5.303
29740WAT     H289463   0.405   6.920   5.340
29741WAT      O89464   8.692   9.765   0.217
29741WAT     H189465   8.594   9.782   0.212
29741WAT     H289466   8.742   9.846   0.187
29742WAT      O89467   6.902   9.499   6.828
29742WAT     H189468   6.948   9.499   6.917
29742WAT     H289469   6.903   9.591   6.789
29743WAT      O89470   4.354   1.953   3.087
29743WAT     H189471   4.334   2.049   3.070
29743WAT     H289472   4.314   1.926   3.175
29744WAT      O89473   7.066   6.255   2.980
29744WAT     H189474   6.977   6.292   3.009
29744WAT     H289475   7.139   6.310   3.020
29745WAT      O89476   1.162   1.141   1.287
29745WAT     H189477   1.123   1.194   1.363
29745WAT     H289478   1.099   1.143   1.209
29746WAT      O89479   1.234   7.571   5.791
29746WAT     H189480   1.157   7.575   5.855
29746WAT     H289481   1.313   7.532   5.838
29747WAT      O89482   2.212   8.398   4.274
29747WAT     H189483   2.169   8.371   4.188
29747WAT     H289484   2.300   8.443   4.254
29748WAT      O89485  -0.002   1.225   7.579
29748WAT     H189486  -0.044   1.178   7.501
29748WAT     H289487   0.087   1.262   7.551
29749WAT      O89488   9.095   9.086   3.536
29749WAT     H189489   9.000   9.114   3.516
29749WAT     H289490   9.146   9.082   3.450
29750WAT      O89491   4.475   0.998   2.850
29750WAT     H189492   4.416   0.933   2.897
29750WAT     H289493   4.565   0.957   2.833
29751WAT      O89494   7.914   2.353   3.965
29751WAT     H189495   7.820   2.334   3.940
29751WAT     H289496   7.975   2.324   3.892
29752WAT      O89497   7.781   9.007   7.246
29752WAT     H189498   7.776   8.996   7.146
29752WAT     H289499   7.783   9.104   7.269
29753WAT      O89500   3.803   9.423   0.101
29753WAT     H189501   3.782   9.412   0.004
29753WAT     H289502   3.892   9.467   0.112
29754WAT      O89503   4.134   9.088   8.394
29754WAT     H189504   4.189   9.082   8.311
29754WAT     H289505   4.040   9.060   8.374
29755WAT      O89506   7.535   6.011   3.453
29755WAT     H189507   7.596   5.986   3.528
29755WAT     H289508   7.454   5.953   3.456
29756WAT      O89509   7.480   0.873   8.795
29756WAT     H189510   7.494   0.969   8.771
29756WAT     H289511   7.398   0.839   8.749
29757WAT      O89512   4.802   8.778   7.789
29757WAT     H189513   4.798   8.851   7.856
29757WAT     H289514   4.799   8.817   7.697
29758WAT      O89515   4.277   1.230   7.723
29758WAT     H189516   4.370   1.261   7.704
29758WAT     H289517   4.245   1.173   7.648
29759WAT      O89518   3.556   2.878   2.119
29759WAT     H189519   3.652   2.902   2.111
29759WAT     H289520   3.505   2.955   2.157
29760WAT      O89521   6.179   1.170   7.950
29760WAT     H189522   6.264   1.130   7.985
29760WAT     H289523   6.188   1.269   7.947
29761WAT      O89524   5.693   0.458   0.840
29761WAT     H189525   5.686   0.558   0.843
29761WAT     H289526   5.601   0.419   0.832
29762WAT      O89527   0.837   9.750   1.665
29762WAT     H189528   0.778   9.759   1.584
29762WAT     H289529   0.914   9.812   1.657
29763WAT      O89530   0.555   7.703   5.796
29763WAT     H189531   0.499   7.763   5.853
29763WAT     H289532   0.651   7.716   5.819
29764WAT      O89533   2.280   5.347   8.218
29764WAT     H189534   2.349   5.302   8.162
29764WAT     H289535   2.192   5.345   8.171
29765WAT      O89536   2.897   9.719   9.771
29765WAT     H189537   2.986   9.743   9.811
29765WAT     H289538   2.891   9.620   9.761
29766WAT      O89539   9.854   2.801   8.930
29766WAT     H189540   9.762   2.801   8.970
29766WAT     H289541   9.884   2.895   8.914
29767WAT      O89542   5.472   1.942   5.611
29767WAT     H189543   5.393   1.903   5.563
29767WAT     H289544   5.546   1.957   5.546
29768WAT      O89545   5.239   1.278   8.964
29768WAT     H189546   5.238   1.182   8.993
29768WAT     H289547   5.152   1.302   8.922
29769WAT      O89548   6.780   1.146   4.593
29769WAT     H189549   6.747   1.210   4.663
29769WAT     H289550   6.743   1.055   4.612
29770WAT      O89551   6.076   2.284   6.336
29770WAT     H189552   6.165   2.238   6.339
29770WAT     H289553   6.011   2.236   6.394
29771WAT      O89554   0.940   6.338   2.524
29771WAT     H189555   0.937   6.261   2.461
29771WAT     H289556   0.998   6.315   2.603
29772WAT      O89557   2.130   6.301   2.984
29772WAT     H189558   2.127   6.363   2.906
29772WAT     H289559   2.070   6.336   3.056
29773WAT      O89560   7.153   0.495   5.296
29773WAT     H189561   7.206   0.465   5.375
29773WAT     H289562   7.149   0.595   5.294
29774WAT      O89563   1.926   1.307   0.992
29774WAT     H189564   1.859   1.275   0.925
29774WAT     H289565   2.000   1.355   0.945
29775WAT      O89566   9.138   9.316   2.348
29775WAT     H189567   9.160   9.253   2.273
29775WAT     H289568   9.130   9.409   2.312
29776WAT      O89569   1.182   8.171   5.395
29776WAT     H189570   1.254   8.126   5.449
29776WAT     H289571   1.176   8.127   5.305
29777WAT      O89572   1.014   8.941   9.306
29777WAT     H189573   1.045   8.851   9.275
29777WAT     H289574   1.094   9.001   9.319
29778WAT      O89575   8.262   7.737   7.197
29778WAT     H189576   8.284   7.639   7.196
29778WAT     H289577   8.342   7.789   7.226
29779WAT      O89578   2.258   6.642   2.226
29779WAT     H189579   2.226   6.562   2.175
29779WAT     H289580   2.180   6.695   2.257
29780WAT      O89581   4.055   3.969   1.229
29780WAT     H189582   4.024   4.033   1.300
29780WAT     H289583   4.073   3.880   1.270
29781WAT      O89584   0.566   8.341   2.450
29781WAT     H189585   0.585   8.272   2.380
29781WAT     H289586   0.539   8.426   2.405
29782WAT      O89587   5.001   7.611   6.197
29782WAT     H189588   5.011   7.651   6.288
29782WAT     H289589   5.003   7.512   6.203
29783WAT      O89590   7.947   9.120   8.176
29783WAT     H189591   7.998   9.176   8.111
29783WAT     H289592   7.996   9.119   8.264
29784WAT      O89593   8.334   8.943   9.660
29784WAT     H189594   8.316   8.966   9.755
29784WAT     H289595   8.366   8.849   9.653
29785WAT      O89596   0.395   8.285   3.563
29785WAT     H189597   0.341   8.207   3.532
29785WAT     H289598   0.360   8.317   3.651
29786WAT      O89599   6.738   9.519   4.303
29786WAT     H189600   6.788   9.494   4.386
29786WAT     H289601   6.706   9.436   4.257
29787WAT      O89602   5.390   8.358   6.979
29787WAT     H189603   5.358   8.329   7.069
29787WAT     H289604   5.487   8.383   6.984
29788WAT      O89605   9.028   0.984   3.740
29788WAT     H189606   9.017   1.082   3.725
29788WAT     H289607   9.066   0.969   3.832
29789WAT      O89608   4.341   6.073   9.537
29789WAT     H189609   4.322   5.975   9.549
29789WAT     H289610   4.257   6.120   9.509
29790WAT      O89611   6.380   4.215   2.730
29790WAT     H189612   6.472   4.254   2.742
29790WAT     H289613   6.312   4.287   2.742
29791WAT      O89614   9.697   0.735   6.678
29791WAT     H189615   9.754   0.654   6.663
29791WAT     H289616   9.649   0.726   6.765
29792WAT      O89617   0.614   3.687   8.935
29792WAT     H189618   0.543   3.664   9.001
29792WAT     H289619   0.590   3.649   8.845
29793WAT      O89620   3.946   0.947   8.515
29793WAT     H189621   3.871   0.967   8.578
29793WAT     H289622   4.007   0.879   8.555
29794WAT      O89623   3.682   4.384   6.814
29794WAT     H189624   3.669   4.483   6.806
29794WAT     H289625   3.756   4.365   6.879
29795WAT      O89626   3.614   6.361   1.522
29795WAT     H189627   3.627   6.267   1.491
29795WAT     H289628   3.548   6.363   1.597
29796WAT      O89629   6.235   9.053   9.038
29796WAT     H189630   6.219   8.965   8.993
29796WAT     H289631   6.205   9.127   8.977
29797WAT      O89632   2.152   6.512   1.820
29797WAT     H189633   2.055   6.527   1.801
29797WAT     H289634   2.164   6.421   1.860
29798WAT      O89635   5.244   6.431   5.883
29798WAT     H189636   5.288   6.373   5.953
29798WAT     H289637   5.176   6.490   5.927
29799WAT      O89638   1.014   3.195   9.114
29799WAT     H189639   1.063   3.208   9.201
29799WAT     H289640   1.078   3.162   9.045
29800WAT      O89641   0.010   7.411   4.056
29800WAT     H189642  -0.030   7.444   4.141
29800WAT     H289643   0.052   7.321   4.072
29801WAT      O89644   7.117   8.680   9.307
29801WAT     H189645   7.124   8.716   9.214
29801WAT     H289646   7.180   8.604   9.318
29802WAT      O89647   2.612   4.108   2.580
29802WAT     H189648   2.615   4.127   2.482
29802WAT     H289649   2.520   4.125   2.615
29803WAT      O89650   8.612   3.128   3.000
29803WAT     H189651   8.526   3.173   2.978
29803WAT     H289652   8.607   3.091   3.093
29804WAT      O89653   0.966   6.946   3.114
29804WAT     H189654   0.878   6.927   3.159
29804WAT     H289655   0.950   6.996   3.029
29805WAT      O89656   6.668   0.362   3.195
29805WAT     H189657   6.758   0.390   3.161
29805WAT     H289658   6.644   0.416   3.275
29806WAT      O89659   2.772   0.775   8.549
29806WAT     H189660   2.815   0.832   8.620
29806WAT     H289661   2.673   0.774   8.563
29807WAT      O89662   6.300   7.327   8.256
29807WAT     H189663   6.240   7.335   8.177
29807WAT     H289664   6.284   7.240   8.302
29808WAT      O89665   0.782   1.114   5.149
29808WAT     H189666   0.728   1.165   5.082
29808WAT     H289667   0.869   1.160   5.164
29809WAT      O89668   0.848   6.356   3.253
29809WAT     H189669   0.861   6.455   3.256
29809WAT     H289670   0.756   6.334   3.287
29810WAT      O89671   4.325   8.240   8.948
29810WAT     H189672   4.381   8.187   8.884
29810WAT     H289673   4.263   8.178   8.996
29811WAT      O89674   2.346   4.863   9.592
29811WAT     H189675   2.260   4.827   9.557
29811WAT     H289676   2.334   4.958   9.622
29812WAT      O89677   3.848   4.339   0.835
29812WAT     H189678   3.891   4.426   0.857
29812WAT     H289679   3.751   4.343   0.859
29813WAT      O89680   3.140   8.672   9.211
29813WAT     H189681   3.098   8.704   9.127
29813WAT     H289682   3.233   8.640   9.193
29814WAT      O89683   8.023   3.548   1.681
29814WAT     H189684   7.951   3.578   1.744
29814WAT     H289685   8.109   3.595   1.704
29815WAT      O89686   1.104   1.948   0.744
29815WAT     H189687   1.031   1.906   0.798
29815WAT     H289688   1.099   2.047   0.752
29816WAT      O89689   0.806   6.633   6.143
29816WAT     H189690   0.788   6.663   6.049
29816WAT     H289691   0.902   6.650   6.166
29817WAT      O89692   2.441   3.420   2.644
29817WAT     H189693   2.366   3.477   2.609
29817WAT     H289694   2.527   3.448   2.603
29818WAT      O89695   0.485   9.476   1.023
29818WAT     H189696   0.579   9.508   1.012
29818WAT     H289697   0.469   9.455   1.119
29819WAT      O89698   5.156   3.979   2.105
29819WAT     H189699   5.081   3.920   2.134
29819WAT     H289700   5.234   3.966   2.167
29820WAT      O89701   0.243   2.005   1.375
29820WAT     H189702   0.182   1.946   1.428
29820WAT     H289703   0.265   1.960   1.289
29821WAT      O89704   2.054   2.384   3.248
29821WAT     H189705   2.094   2.324   3.178
29821WAT     H289706   2.024   2.469   3.205
29822WAT      O89707   3.542   8.053   1.619
29822WAT     H189708   3.505   7.982   1.679
29822WAT     H289709   3.631   8.024   1.583
29823WAT      O89710   8.915   0.908   2.294
29823WAT     H189711   8.824   0.874   2.318
29823WAT     H289712   8.964   0.839   2.241
29824WAT      O89713   9.628   0.230   6.002
29824WAT     H189714   9.670   0.313   6.039
29824WAT     H289715   9.592   0.175   6.077
29825WAT      O89716   4.454   5.445   8.701
29825WAT     H189717   4.436   5.350   8.726
29825WAT     H289718   4.383   5.504   8.739
29826WAT      O89719   2.023   7.551   4.560
29826WAT     H189720   2.045   7.527   4.465
29826WAT     H289721   2.049   7.475   4.620
29827WAT      O89722   4.631   3.766   2.394
29827WAT     H189723   4.621   3.825   2.313
29827WAT     H289724   4.719   3.783   2.437
29828WAT      O89725   9.160   3.050   1.842
29828WAT     H189726   9.101   3.032   1.921
29828WAT     H289727   9.130   3.134   1.797
29829WAT      O89728   9.855   3.486   2.718
29829WAT     H189729   9.892   3.395   2.738
29829WAT     H289730   9.901   3.554   2.775
29830WAT      O89731   6.993   5.091   0.184
29830WAT     H189732   6.894   5.080   0.173
29830WAT     H289733   7.030   5.015   0.238
29831WAT      O89734   7.176   7.496   3.290
29831WAT     H189735   7.166   7.435   3.368
29831WAT     H289736   7.162   7.444   3.205
29832WAT      O89737   1.931   6.787   0.477
29832WAT     H189738   1.983   6.786   0.562
29832WAT     H289739   1.949   6.872   0.428
29833WAT      O89740   8.965   1.238   3.653
29833WAT     H189741   9.019   1.239   3.568
29833WAT     H289742   8.885   1.180   3.640
29834WAT      O89743   8.048   2.230   1.533
29834WAT     H189744   8.125   2.176   1.567
29834WAT     H289745   8.016   2.292   1.605
29835WAT      O89746   9.701   3.760   8.398
29835WAT     H189747   9.701   3.719   8.490
29835WAT     H289748   9.623   3.726   8.346
29836WAT      O89749   8.866   1.421   4.818
29836WAT     H189750   8.828   1.444   4.907
29836WAT     H289751   8.955   1.377   4.830
29837WAT      O89752   7.891   1.606   8.487
29837WAT     H189753   7.801   1.634   8.454
29837WAT     H289754   7.959   1.674   8.460
29838WAT      O89755   2.006   6.761   0.075
29838WAT     H189756   1.929   6.817   0.105
29838WAT     H289757   2.088   6.818   0.068
29839WAT      O89758   7.176   9.154   2.213
29839WAT     H189759   7.203   9.230   2.271
29839WAT     H289760   7.219   9.070   2.245
29840WAT      O89761   6.595   0.088   3.119
29840WAT     H189762   6.637   0.049   3.201
29840WAT     H289763   6.601   0.187   3.123
29841WAT      O89764   2.021   6.292   6.430
29841WAT     H189765   2.019   6.219   6.498
29841WAT     H289766   1.985   6.376   6.471
29842WAT      O89767   1.723   4.542   9.699
29842WAT     H189768   1.675   4.468   9.746
29842WAT     H289769   1.747   4.513   9.606
29843WAT      O89770   4.044   4.548   2.260
29843WAT     H189771   3.959   4.599   2.253
29843WAT     H289772   4.093   4.576   2.342
29844WAT      O89773   0.131   5.426   0.493
29844WAT     H189774   0.181   5.445   0.408
29844WAT     H289775   0.135   5.506   0.553
29845WAT      O89776   3.034   9.608   7.056
29845WAT     H189777   3.122   9.599   7.010
29845WAT     H289778   3.049   9.622   7.154
29846WAT      O89779   5.947   4.750   8.799
29846WAT     H189780   5.852   4.742   8.770
29846WAT     H289781   5.953   4.735   8.898
29847WAT      O89782   6.367   7.090   2.820
29847WAT     H189783   6.324   7.180   2.811
29847WAT     H289784   6.460   7.101   2.852
29848WAT      O89785   0.955   0.286   2.286
29848WAT     H189786   0.961   0.190   2.261
29848WAT     H289787   1.046   0.320   2.309
29849WAT      O89788   5.547   5.634   8.077
29849WAT     H189789   5.592   5.673   8.157
29849WAT     H289790   5.551   5.699   8.002
29850WAT      O89791   7.993   0.088   3.636
29850WAT     H189792   7.970   0.000   3.593
29850WAT     H289793   8.034   0.071   3.726
29851WAT      O89794   9.400   1.773   6.286
29851WAT     H189795   9.495   1.757   6.258
29851WAT     H289796   9.346   1.801   6.207
29852WAT      O89797   5.813   6.630   1.210
29852WAT     H189798   5.763   6.543   1.214
29852WAT     H289799   5.846   6.646   1.117
29853WAT      O89800   8.498   3.839   1.842
29853WAT     H189801   8.504   3.803   1.935
29853WAT     H289802   8.582   3.817   1.793
29854WAT      O89803   4.086   1.061   1.394
29854WAT     H189804   4.115   1.157   1.385
29854WAT     H289805   4.028   1.052   1.475
29855WAT      O89806   2.760   6.360   0.504
29855WAT     H189807   2.667   6.325   0.504
29855WAT     H289808   2.796   6.363   0.411
29856WAT      O89809   7.290   6.749   3.464
29856WAT     H189810   7.385   6.764   3.435
29856WAT     H289811   7.254   6.833   3.504
29857WAT      O89812   3.187   4.027   4.432
29857WAT     H189813   3.195   4.055   4.337
29857WAT     H289814   3.239   3.943   4.447
29858WAT      O89815   0.560   3.674   5.648
29858WAT     H189816   0.567   3.608   5.572
29858WAT     H289817   0.482   3.649   5.706
29859WAT      O89818   3.335   0.098   2.829
29859WAT     H189819   3.280   0.182   2.828
29859WAT     H289820   3.292   0.030   2.888
29860WAT      O89821   8.666   5.936   9.459
29860WAT     H189822   8.608   5.963   9.536
29860WAT     H289823   8.703   5.844   9.475
29861WAT      O89824   9.061   7.542   3.107
29861WAT     H189825   9.096   7.484   3.033
29861WAT     H289826   8.969   7.574   3.083
29862WAT      O89827   2.127   6.479   1.060
29862WAT     H189828   2.158   6.394   1.103
29862WAT     H289829   2.059   6.457   0.989
29863WAT      O89830   2.702   6.507   0.740
29863WAT     H189831   2.761   6.512   0.821
29863WAT     H289832   2.730   6.430   0.683
29864WAT      O89833   7.128   4.902   0.353
29864WAT     H189834   7.146   4.810   0.388
29864WAT     H289835   7.208   4.935   0.303
29865WAT      O89836   5.079   4.958   6.334
29865WAT     H189837   5.157   4.980   6.276
29865WAT     H289838   5.034   4.876   6.298
29866WAT      O89839   5.235   0.933   2.071
29866WAT     H189840   5.218   1.012   2.131
29866WAT     H289841   5.298   0.870   2.117
29867WAT      O89842   6.645   8.797   8.934
29867WAT     H189843   6.625   8.863   9.007
29867WAT     H289844   6.722   8.739   8.962
29868WAT      O89845   1.251   6.009   6.547
29868WAT     H189846   1.254   5.992   6.448
29868WAT     H289847   1.170   5.963   6.586
29869WAT      O89848   6.559   5.834   6.975
29869WAT     H189849   6.542   5.736   6.983
29869WAT     H289850   6.653   5.850   6.943
29870WAT      O89851   3.145   0.188   7.153
29870WAT     H189852   3.070   0.234   7.200
29870WAT     H289853   3.207   0.149   7.222
29871WAT      O89854   0.344   7.174   8.289
29871WAT     H189855   0.257   7.178   8.339
29871WAT     H289856   0.342   7.097   8.226
29872WAT      O89857   9.744   9.676   5.449
29872WAT     H189858   9.663   9.630   5.412
29872WAT     H289859   9.733   9.775   5.443
29873WAT      O89860   5.059   9.757   0.005
29873WAT     H189861   5.100   9.809   0.080
29873WAT     H289862   5.077   9.659   0.020
29874WAT      O89863   8.360   4.850   8.570
29874WAT     H189864   8.414   4.812   8.645
29874WAT     H289865   8.388   4.808   8.484
29875WAT      O89866   6.519   8.547   8.436
29875WAT     H189867   6.525   8.567   8.533
29875WAT     H289868   6.432   8.582   8.400
29876WAT      O89869   0.926   5.958   4.751
29876WAT     H189870   0.859   5.976   4.679
29876WAT     H289871   0.912   6.023   4.826
29877WAT      O89872   9.785   4.077   9.596
29877WAT     H189873   9.736   4.149   9.646
29877WAT     H289874   9.762   3.988   9.633
29878WAT      O89875   3.264   6.333   0.909
29878WAT     H189876   3.234   6.255   0.963
29878WAT     H289877   3.330   6.386   0.962
29879WAT      O89878   7.138   9.619   8.233
29879WAT     H189879   7.099   9.557   8.301
29879WAT     H289880   7.217   9.667   8.273
29880WAT      O89881   7.710   9.232   0.927
29880WAT     H189882   7.728   9.150   0.981
29880WAT     H289883   7.679   9.205   0.835
29881WAT      O89884   5.658   0.137   3.289
29881WAT     H189885   5.608   0.134   3.375
29881WAT     H289886   5.666   0.232   3.257
29882WAT      O89887   5.214   5.651   8.563
29882WAT     H189888   5.122   5.690   8.552
29882WAT     H289889   5.207   5.561   8.607
29883WAT      O89890   2.422   4.632   4.830
29883WAT     H189891   2.380   4.711   4.785
29883WAT     H289892   2.513   4.615   4.791
29884WAT      O89893   3.970   5.737   2.099
29884WAT     H189894   4.008   5.825   2.069
29884WAT     H289895   3.928   5.748   2.189
29885WAT      O89896   1.041   2.079   6.327
29885WAT     H189897   1.088   2.143   6.266
29885WAT     H289898   1.018   1.996   6.275
29886WAT      O89899   1.943   8.499   0.845
29886WAT     H189900   1.968   8.516   0.940
29886WAT     H289901   1.847   8.525   0.831
29887WAT      O89902   8.928   8.125   6.878
29887WAT     H189903   8.834   8.141   6.908
29887WAT     H289904   8.982   8.090   6.954
29888WAT      O89905   3.553   6.880   5.633
29888WAT     H189906   3.475   6.942   5.645
29888WAT     H289907   3.521   6.795   5.592
29889WAT      O89908   5.108   6.085   6.099
29889WAT     H189909   5.094   6.043   6.189
29889WAT     H289910   5.043   6.159   6.087
29890WAT      O89911   5.482   2.848   1.384
29890WAT     H189912   5.431   2.790   1.448
29890WAT     H289913   5.552   2.793   1.339
29891WAT      O89914   3.042   8.051   8.864
29891WAT     H189915   2.964   8.034   8.804
29891WAT     H289916   3.091   7.966   8.881
29892WAT      O89917   3.834   4.144   4.277
29892WAT     H189918   3.739   4.128   4.306
29892WAT     H289919   3.857   4.240   4.290
29893WAT      O89920   1.523   8.156   2.862
29893WAT     H189921   1.469   8.232   2.898
29893WAT     H289922   1.587   8.125   2.932
29894WAT      O89923   6.318   5.741   1.752
29894WAT     H189924   6.400   5.683   1.750
29894WAT     H289925   6.237   5.683   1.767
29895WAT      O89926   6.110   7.121   0.559
29895WAT     H189927   6.051   7.201   0.572
29895WAT     H289928   6.056   7.046   0.520
29896WAT      O89929   3.260   7.397   7.383
29896WAT     H189930   3.187   7.461   7.408
29896WAT     H289931   3.319   7.439   7.314
29897WAT      O89932   0.560   8.074   7.822
29897WAT     H189933   0.609   7.988   7.808
29897WAT     H289934   0.513   8.100   7.738
29898WAT      O89935   1.265   7.832   2.087
29898WAT     H189936   1.306   7.744   2.065
29898WAT     H289937   1.167   7.831   2.065
29899WAT      O89938   2.317   3.449   1.408
29899WAT     H189939   2.313   3.475   1.505
29899WAT     H289940   2.226   3.421   1.378
29900WAT      O89941   7.908   7.392   9.053
29900WAT     H189942   7.885   7.354   8.964
29900WAT     H289943   7.865   7.483   9.062
29901WAT      O89944   3.935   6.574   6.087
29901WAT     H189945   3.934   6.527   5.999
29901WAT     H289946   3.844   6.612   6.105
29902WAT      O89947   0.371   7.845   1.516
29902WAT     H189948   0.464   7.833   1.481
29902WAT     H289949   0.326   7.756   1.524
29903WAT      O89950   7.627   8.048   0.596
29903WAT     H189951   7.540   8.069   0.640
29903WAT     H289952   7.626   7.953   0.565
29904WAT      O89953   0.479   8.102   1.593
29904WAT     H189954   0.466   8.134   1.687
29904WAT     H289955   0.437   8.012   1.582
29905WAT      O89956   3.753   8.565   4.313
29905WAT     H189957   3.772   8.515   4.397
29905WAT     H289958   3.802   8.653   4.315
29906WAT      O89959   3.560   1.434   1.075
29906WAT     H189960   3.513   1.346   1.072
29906WAT     H289961   3.542   1.485   0.991
29907WAT      O89962   4.982   3.606   8.519
29907WAT     H189963   4.908   3.673   8.519
29907WAT     H289964   5.070   3.653   8.508
29908WAT      O89965   1.687   2.850   1.484
29908WAT     H189966   1.588   2.846   1.493
29908WAT     H289967   1.725   2.912   1.552
29909WAT      O89968   0.672   6.874   8.549
29909WAT     H189969   0.743   6.817   8.506
29909WAT     H289970   0.629   6.822   8.623
29910WAT      O89971   5.403   2.230   3.809
29910WAT     H189972   5.409   2.324   3.842
29910WAT     H289973   5.414   2.167   3.887
29911WAT      O89974   1.010   0.825   7.707
29911WAT     H189975   0.940   0.791   7.769
29911WAT     H289976   1.003   0.925   7.701
29912WAT      O89977   5.079   8.776   8.707
29912WAT     H189978   5.060   8.686   8.669
29912WAT     H289979   4.993   8.827   8.717
29913WAT      O89980   7.799   9.224   8.831
29913WAT     H189981   7.873   9.279   8.869
29913WAT     H289982   7.774   9.260   8.741
29914WAT      O89983   2.450   3.377   6.436
29914WAT     H189984   2.368   3.376   6.379
29914WAT     H289985   2.511   3.451   6.407
29915WAT      O89986   6.170   7.212   2.179
29915WAT     H189987   6.102   7.274   2.220
29915WAT     H289988   6.133   7.119   2.180
29916WAT      O89989   0.495   7.493   1.655
29916WAT     H189990   0.493   7.453   1.747
29916WAT     H289991   0.539   7.583   1.659
29917WAT      O89992   7.636   5.776   2.548
29917WAT     H189993   7.640   5.750   2.645
29917WAT     H289994   7.711   5.731   2.499
29918WAT      O89995   3.290   2.399   6.319
29918WAT     H189996   3.204   2.401   6.268
29918WAT     H289997   3.354   2.336   6.275
29919WAT      O89998   0.322   5.139   8.797
29919WAT     H189999   0.340   5.077   8.720
29919WAT     H290000   0.322   5.086   8.882
29920WAT      O90001   8.852   5.788   2.900
29920WAT     H190002   8.869   5.789   2.802
29920WAT     H290003   8.841   5.882   2.934
29921WAT      O90004   3.192   8.569   6.133
29921WAT     H190005   3.127   8.536   6.065
29921WAT     H290006   3.198   8.669   6.127
29922WAT      O90007   3.885   1.105   9.684
29922WAT     H190008   3.898   1.063   9.774
29922WAT     H290009   3.802   1.069   9.642
29923WAT      O90010   6.570   8.769   2.618
29923WAT     H190011   6.584   8.781   2.717
29923WAT     H290012   6.482   8.723   2.602
29924WAT      O90013   6.605   5.989   2.425
29924WAT     H190014   6.514   5.949   2.439
29924WAT     H290015   6.671   5.943   2.483
29925WAT      O90016   7.651   1.275   2.371
29925WAT     H190017   7.743   1.301   2.398
29925WAT     H290018   7.589   1.285   2.449
29926WAT      O90019   3.398   2.107   9.436
29926WAT     H190020   3.324   2.093   9.502
29926WAT     H290021   3.478   2.053   9.464
29927WAT      O90022   7.358   1.221   4.969
29927WAT     H190023   7.352   1.132   4.925
29927WAT     H290024   7.391   1.210   5.063
29928WAT      O90025   3.927   3.019   8.323
29928WAT     H190026   3.937   3.029   8.422
29928WAT     H290027   3.901   2.925   8.301
29929WAT      O90028   9.186   6.912   5.836
29929WAT     H190029   9.171   7.007   5.809
29929WAT     H290030   9.107   6.879   5.888
29930WAT      O90031   1.308   5.721   8.687
29930WAT     H190032   1.362   5.780   8.747
29930WAT     H290033   1.370   5.670   8.627
29931WAT      O90034   6.196   8.298   0.383
29931WAT     H190035   6.176   8.370   0.449
29931WAT     H290036   6.293   8.275   0.387
29932WAT      O90037   6.830   9.394   4.860
29932WAT     H190038   6.902   9.449   4.903
29932WAT     H290039   6.815   9.312   4.913
29933WAT      O90040   2.141   2.229   4.231
29933WAT     H190041   2.202   2.220   4.153
29933WAT     H290042   2.052   2.264   4.200
29934WAT      O90043   0.246   5.661   4.082
29934WAT     H190044   0.183   5.713   4.141
29934WAT     H290045   0.332   5.711   4.073
29935WAT      O90046   8.469   4.513   5.227
29935WAT     H190047   8.486   4.564   5.312
29935WAT     H290048   8.390   4.453   5.240
29936WAT      O90049   6.202   3.198   6.803
29936WAT     H190050   6.202   3.282   6.857
29936WAT     H290051   6.202   3.119   6.865
29937WAT      O90052   7.233   2.168   1.827
29937WAT     H190053   7.158   2.102   1.832
29937WAT     H290054   7.209   2.250   1.877
29938WAT      O90055   1.593   8.840   5.588
29938WAT     H190056   1.514   8.896   5.614
29938WAT     H290057   1.568   8.743   5.595
29939WAT      O90058   3.470   3.486   9.192
29939WAT     H190059   3.539   3.436   9.139
29939WAT     H290060   3.386   3.494   9.138
29940WAT      O90061   3.953   6.038   2.293
29940WAT     H190062   3.931   6.077   2.204
29940WAT     H290063   4.052   6.034   2.305
29941WAT      O90064   0.692   2.674   4.270
29941WAT     H190065   0.616   2.614   4.247
29941WAT     H290066   0.775   2.642   4.225
29942WAT      O90067   9.735   7.506   9.568
29942WAT     H190068   9.793   7.587   9.574
29942WAT     H290069   9.658   7.515   9.632
29943WAT      O90070   5.613   8.032   0.689
29943WAT     H190071   5.683   8.044   0.619
29943WAT     H290072   5.618   8.108   0.754
29944WAT      O90073   4.572   0.500   4.600
29944WAT     H190074   4.489   0.553   4.583
29944WAT     H290075   4.649   0.563   4.613
29945WAT      O90076   7.546   1.838   6.154
29945WAT     H190077   7.493   1.807   6.075
29945WAT     H290078   7.593   1.761   6.195
29946WAT      O90079   1.782   2.969   6.870
29946WAT     H190080   1.753   3.051   6.920
29946WAT     H290081   1.835   2.997   6.789
29947WAT      O90082   9.473   9.201   2.453
29947WAT     H190083   9.484   9.267   2.380
29947WAT     H290084   9.564   9.175   2.488
29948WAT      O90085   8.171   8.446   1.787
29948WAT     H190086   8.143   8.478   1.697
29948WAT     H290087   8.193   8.525   1.845
29949WAT      O90088   4.849   0.101   2.388
29949WAT     H190089   4.947   0.096   2.408
29949WAT     H290090   4.820   0.197   2.392
29950WAT      O90091   6.719   1.877   7.786
29950WAT     H190092   6.701   1.857   7.882
29950WAT     H290093   6.719   1.792   7.733
29951WAT      O90094   7.477   8.020   7.228
29951WAT     H190095   7.421   7.938   7.234
29951WAT     H290096   7.439   8.090   7.288
29952WAT      O90097   6.756   3.125   4.159
29952WAT     H190098   6.772   3.043   4.213
29952WAT     H290099   6.806   3.202   4.198
29953WAT      O90100   4.425   6.596   3.590
29953WAT     H190101   4.344   6.646   3.562
29953WAT     H290102   4.504   6.657   3.588
29954WAT      O90103   9.095   6.427   8.963
29954WAT     H190104   9.077   6.512   8.913
29954WAT     H290105   9.010   6.392   9.001
29955WAT      O90106   6.799   0.453   9.879
29955WAT     H190107   6.779   0.508   9.960
29955WAT     H290108   6.748   0.489   9.801
29956WAT      O90109   1.640   7.345   9.889
29956WAT     H190110   1.620   7.401   9.970
29956WAT     H290111   1.572   7.364   9.818
29957WAT      O90112   6.393   8.484   7.905
29957WAT     H190113   6.373   8.535   7.821
29957WAT     H290114   6.486   8.504   7.934
29958WAT      O90115   6.286   8.878   8.228
29958WAT     H190116   6.279   8.781   8.252
29958WAT     H290117   6.205   8.926   8.261
29959WAT      O90118   5.297   0.073   3.883
29959WAT     H190119   5.378   0.015   3.891
29959WAT     H290120   5.284   0.123   3.969
29960WAT      O90121   4.774   1.704   6.106
29960WAT     H190122   4.856   1.734   6.058
29960WAT     H290123   4.699   1.768   6.086
29961WAT      O90124   0.905   3.483   9.864
29961WAT     H190125   0.870   3.537   9.787
29961WAT     H290126   0.861   3.393   9.863
29962WAT      O90127   5.393   7.130   1.605
29962WAT     H190128   5.302   7.147   1.645
29962WAT     H290129   5.462   7.130   1.677
29963WAT      O90130   5.206   2.321   5.709
29963WAT     H190131   5.174   2.227   5.723
29963WAT     H290132   5.293   2.334   5.756
29964WAT      O90133   9.820   5.037   6.269
29964WAT     H190134   9.890   5.025   6.199
29964WAT     H290135   9.752   5.104   6.238
29965WAT      O90136   5.356   3.945   0.693
29965WAT     H190137   5.282   3.886   0.662
29965WAT     H290138   5.427   3.950   0.622
29966WAT      O90139   2.026   7.762   1.377
29966WAT     H190140   2.032   7.751   1.278
29966WAT     H290141   2.116   7.788   1.413
29967WAT      O90142   4.910   9.422   5.368
29967WAT     H190143   4.992   9.415   5.311
29967WAT     H290144   4.832   9.447   5.312
29968WAT      O90145   5.024   5.733   2.503
29968WAT     H190146   4.935   5.730   2.549
29968WAT     H290147   5.054   5.828   2.494
29969WAT      O90148   2.053   0.864   9.197
29969WAT     H190149   2.000   0.782   9.175
29969WAT     H290150   2.142   0.838   9.232
29970WAT      O90151   1.112   9.216   2.296
29970WAT     H190152   1.172   9.138   2.278
29970WAT     H290153   1.069   9.205   2.385
29971WAT      O90154   8.373   1.680   5.207
29971WAT     H190155   8.280   1.654   5.180
29971WAT     H290156   8.370   1.765   5.259
29972WAT      O90157   9.277   7.955   4.514
29972WAT     H190158   9.233   7.985   4.599
29972WAT     H290159   9.376   7.948   4.529
29973WAT      O90160   8.239   0.118   0.571
29973WAT     H190161   8.143   0.123   0.544
29973WAT     H290162   8.284   0.047   0.517
29974WAT      O90163   3.026   6.608   2.614
29974WAT     H190164   3.100   6.541   2.603
29974WAT     H290165   2.945   6.575   2.564
29975WAT      O90166   7.815   7.779   9.411
29975WAT     H190167   7.797   7.755   9.316
29975WAT     H290168   7.910   7.760   9.433
29976WAT      O90169   0.480   8.619   7.727
29976WAT     H190170   0.558   8.674   7.755
29976WAT     H290171   0.395   8.665   7.752
29977WAT      O90172   7.652   7.071   8.991
29977WAT     H190173   7.631   7.098   8.897
29977WAT     H290174   7.571   7.085   9.048
29978WAT      O90175   6.313   0.258   0.264
29978WAT     H190176   6.311   0.303   0.174
29978WAT     H290177   6.229   0.206   0.277
29979WAT      O90178   7.850   9.169   2.099
29979WAT     H190179   7.849   9.249   2.158
29979WAT     H290180   7.827   9.088   2.153
29980WAT      O90181   0.774   6.798   4.430
29980WAT     H190182   0.687   6.821   4.386
29980WAT     H290183   0.844   6.864   4.402
29981WAT      O90184   1.417   5.791   6.952
29981WAT     H190185   1.475   5.860   6.995
29981WAT     H290186   1.321   5.817   6.962
29982WAT      O90187   0.079   1.202   4.400
29982WAT     H190188   0.099   1.123   4.457
29982WAT     H290189  -0.005   1.184   4.347
29983WAT      O90190   6.863   9.755   0.702
29983WAT     H190191   6.905   9.733   0.790
29983WAT     H290192   6.877   9.679   0.639
29984WAT      O90193   4.629   6.100   4.478
29984WAT     H190194   4.541   6.061   4.504
29984WAT     H290195   4.614   6.181   4.420
29985WAT      O90196   4.526   8.051   6.752
29985WAT     H190197   4.529   8.012   6.844
29985WAT     H290198   4.613   8.034   6.705
29986WAT      O90199   8.152   3.735   0.391
29986WAT     H190200   8.245   3.706   0.415
29986WAT     H290201   8.087   3.665   0.420
29987WAT      O90202   4.436   7.376   1.363
29987WAT     H190203   4.386   7.341   1.442
29987WAT     H290204   4.375   7.380   1.283
29988WAT      O90205   9.719   6.470   2.458
29988WAT     H190206   9.658   6.486   2.536
29988WAT     H290207   9.813   6.459   2.491
29989WAT      O90208   0.873   0.235   5.688
29989WAT     H190209   0.911   0.200   5.774
29989WAT     H290210   0.895   0.332   5.678
29990WAT      O90211   1.974   5.847   9.458
29990WAT     H190212   1.974   5.748   9.440
29990WAT     H290213   1.959   5.863   9.555
29991WAT      O90214   0.347   1.275   4.232
29991WAT     H190215   0.258   1.282   4.279
29991WAT     H290216   0.368   1.179   4.215
29992WAT      O90217   9.245   1.657   7.583
29992WAT     H190218   9.238   1.571   7.532
29992WAT     H290219   9.154   1.684   7.615
29993WAT      O90220   8.770   4.410   5.171
29993WAT     H190221   8.672   4.428   5.179
29993WAT     H290222   8.785   4.336   5.107
29994WAT      O90223   9.822   5.950   3.172
29994WAT     H190224   9.832   6.004   3.255
29994WAT     H290225   9.885   5.872   3.175
29995WAT      O90226   6.341   9.674   4.558
29995WAT     H190227   6.404   9.675   4.635
29995WAT     H290228   6.248   9.695   4.591
29996WAT      O90229   1.153   3.495   0.089
29996WAT     H190230   1.218   3.558   0.044
29996WAT     H290231   1.062   3.508   0.050
29997WAT      O90232   4.740   6.610   8.167
29997WAT     H190233   4.838   6.605   8.149
29997WAT     H290234   4.709   6.524   8.208
29998WAT      O90235   7.824   8.599   1.477
29998WAT     H190236   7.809   8.694   1.448
29998WAT     H290237   7.796   8.537   1.403
29999WAT      O90238   6.692   5.406   5.575
29999WAT     H190239   6.717   5.353   5.494
29999WAT     H290240   6.592   5.411   5.581
30000WAT      O90241   6.129   1.018   9.515
30000WAT     H190242   6.212   0.962   9.513
30000WAT     H290243   6.049   0.960   9.503
30001WAT      O90244   5.183   1.005   3.646
30001WAT     H190245   5.268   0.963   3.614
30001WAT     H290246   5.141   0.947   3.716
30002WAT      O90247   4.454   0.855   3.250
30002WAT     H190248   4.480   0.947   3.279
30002WAT     H290249   4.456   0.793   3.328
30003WAT      O90250   2.323   0.731   7.949
30003WAT     H190251   2.360   0.767   8.034
30003WAT     H290252   2.319   0.631   7.953
30004WAT      O90253   3.238   4.662   8.461
30004WAT     H190254   3.218   4.578   8.410
30004WAT     H290255   3.231   4.643   8.559
30005WAT      O90256   3.931   6.755   1.856
30005WAT     H190257   3.940   6.666   1.811
30005WAT     H290258   4.012   6.811   1.837
30006WAT      O90259   7.800   2.572   3.057
30006WAT     H190260   7.705   2.598   3.038
30006WAT     H290261   7.844   2.543   2.972
30007WAT      O90262   5.291   2.694   1.526
30007WAT     H190263   5.283   2.599   1.496
30007WAT     H290264   5.283   2.698   1.626
30008WAT      O90265   4.038   2.247   1.305
30008WAT     H190266   4.070   2.242   1.211
30008WAT     H290267   3.956   2.191   1.316
30009WAT      O90268   3.118   2.068   2.347
30009WAT     H190269   3.183   2.033   2.414
30009WAT     H290270   3.118   2.009   2.266
30010WAT      O90271   0.375   4.277   5.004
30010WAT     H190272   0.419   4.346   5.062
30010WAT     H290273   0.431   4.194   5.002
30011WAT      O90274   0.791   9.499   0.545
30011WAT     H190275   0.828   9.585   0.579
30011WAT     H290276   0.799   9.496   0.445
30012WAT      O90277   4.130   7.965   7.905
30012WAT     H190278   4.149   8.045   7.961
30012WAT     H290279   4.143   7.882   7.960
30013WAT      O90280   6.946   0.164   4.936
30013WAT     H190281   6.870   0.111   4.974
30013WAT     H290282   6.961   0.246   4.991
30014WAT      O90283   2.827   8.390   4.066
30014WAT     H190284   2.775   8.304   4.073
30014WAT     H290285   2.855   8.419   4.158
30015WAT      O90286   7.461   1.804   0.291
30015WAT     H190287   7.553   1.820   0.325
30015WAT     H290288   7.453   1.710   0.257
30016WAT      O90289   6.208   1.303   4.500
30016WAT     H190290   6.244   1.394   4.479
30016WAT     H290291   6.112   1.299   4.472
30017WAT      O90292   4.575   8.324   6.203
30017WAT     H190293   4.632   8.331   6.121
30017WAT     H290294   4.524   8.409   6.216
30018WAT      O90295   9.431   8.599   7.487
30018WAT     H190296   9.492   8.531   7.529
30018WAT     H290297   9.474   8.689   7.491
30019WAT      O90298   2.952   4.379   8.110
30019WAT     H190299   3.004   4.331   8.181
30019WAT     H290300   3.015   4.415   8.042
30020WAT      O90301   4.072   4.390   5.621
30020WAT     H190302   3.981   4.405   5.659
30020WAT     H290303   4.095   4.293   5.628
30021WAT      O90304   1.166   6.739   8.817
30021WAT     H190305   1.234   6.689   8.762
30021WAT     H290306   1.079   6.740   8.768
30022WAT      O90307   3.639   6.471   7.465
30022WAT     H190308   3.573   6.436   7.398
30022WAT     H290309   3.619   6.568   7.484
30023WAT      O90310   3.353   2.894   8.609
30023WAT     H190311   3.377   2.955   8.533
30023WAT     H290312   3.423   2.899   8.680
30024WAT      O90313   6.278   5.015   7.774
30024WAT     H190314   6.319   5.002   7.683
30024WAT     H290315   6.211   4.942   7.790
30025WAT      O90316   2.732   9.781   2.234
30025WAT     H190317   2.786   9.697   2.235
30025WAT     H290318   2.761   9.838   2.156
30026WAT      O90319   0.026   5.118   2.362
30026WAT     H190320   0.089   5.043   2.341
30026WAT     H290321   0.019   5.129   2.461
30027WAT      O90322   6.334   7.179   9.009
30027WAT     H190323   6.381   7.149   8.926
30027WAT     H290324   6.238   7.196   8.988
30028WAT      O90325   9.475   6.160   1.046
30028WAT     H190326   9.486   6.255   1.074
30028WAT     H290327   9.383   6.147   1.007
30029WAT      O90328   8.985   2.345   6.223
30029WAT     H190329   8.896   2.391   6.224
30029WAT     H290330   9.002   2.304   6.313
30030WAT      O90331   6.468   5.634   6.695
30030WAT     H190332   6.555   5.676   6.671
30030WAT     H290333   6.482   5.538   6.719
30031WAT      O90334   9.245   3.954   9.127
30031WAT     H190335   9.293   3.875   9.088
30031WAT     H290336   9.252   4.032   9.064
30032WAT      O90337   1.332   4.401   6.232
30032WAT     H190338   1.258   4.461   6.263
30032WAT     H290339   1.397   4.454   6.178
30033WAT      O90340   4.333   1.485   5.559
30033WAT     H190341   4.257   1.544   5.586
30033WAT     H290342   4.394   1.473   5.637
30034WAT      O90343   0.489   0.053   9.399
30034WAT     H190344   0.447   0.015   9.482
30034WAT     H290345   0.455   0.004   9.319
30035WAT      O90346   3.333   3.591   1.668
30035WAT     H190347   3.313   3.554   1.578
30035WAT     H290348   3.288   3.535   1.738
30036WAT      O90349   4.482   3.132   8.905
30036WAT     H190350   4.460   3.097   8.996
30036WAT     H290351   4.401   3.124   8.846
30037WAT      O90352   0.720   6.700   4.994
30037WAT     H190353   0.777   6.710   5.076
30037WAT     H290354   0.623   6.708   5.019
30038WAT      O90355   9.301   8.783   4.421
30038WAT     H190356   9.301   8.858   4.487
30038WAT     H290357   9.235   8.714   4.450
30039WAT      O90358   6.654   6.530   0.554
30039WAT     H190359   6.709   6.543   0.471
30039WAT     H290360   6.684   6.596   0.624
30040WAT      O90361   3.830   8.348   9.475
30040WAT     H190362   3.790   8.439   9.465
30040WAT     H290363   3.885   8.344   9.558
30041WAT      O90364   2.144   0.929   8.519
30041WAT     H190365   2.167   0.982   8.437
30041WAT     H290366   2.178   0.836   8.509
30042WAT      O90367   5.994   6.715   6.507
30042WAT     H190368   6.049   6.693   6.426
30042WAT     H290369   5.978   6.814   6.510
30043WAT      O90370   4.926   5.826   8.677
30043WAT     H190371   5.002   5.819   8.741
30043WAT     H290372   4.851   5.767   8.707
30044WAT      O90373   7.476   2.940   8.269
30044WAT     H190374   7.506   2.987   8.186
30044WAT     H290375   7.393   2.888   8.250
30045WAT      O90376   9.798   8.441   1.073
30045WAT     H190377   9.805   8.344   1.050
30045WAT     H290378   9.772   8.450   1.169
30046WAT      O90379   1.186   2.076   2.563
30046WAT     H190380   1.236   2.129   2.494
30046WAT     H290381   1.147   1.995   2.521
30047WAT      O90382   7.885   4.549   2.220
30047WAT     H190383   7.873   4.542   2.121
30047WAT     H290384   7.841   4.633   2.253
30048WAT      O90385   0.966   0.497   5.657
30048WAT     H190386   0.975   0.555   5.737
30048WAT     H290387   1.046   0.510   5.598
30049WAT      O90388   3.840   8.454   2.035
30049WAT     H190389   3.892   8.436   2.117
30049WAT     H290390   3.743   8.436   2.052
30050WAT      O90391   6.022   1.669   1.237
30050WAT     H190392   5.924   1.673   1.254
30050WAT     H290393   6.061   1.592   1.287
30051WAT      O90394   4.945   5.669   7.550
30051WAT     H190395   5.022   5.611   7.524
30051WAT     H290396   4.978   5.748   7.601
30052WAT      O90397   8.883   3.176   2.639
30052WAT     H190398   8.870   3.097   2.699
30052WAT     H290399   8.980   3.198   2.633
30053WAT      O90400   3.755   1.883   4.856
30053WAT     H190401   3.782   1.858   4.949
30053WAT     H290402   3.827   1.937   4.813
30054WAT      O90403   6.192   8.657   1.075
30054WAT     H190404   6.245   8.575   1.097
30054WAT     H290405   6.226   8.697   0.990
30055WAT      O90406   0.955   0.418   9.848
30055WAT     H190407   0.881   0.458   9.793
30055WAT     H290408   1.004   0.350   9.794
30056WAT      O90409   9.302   2.513   3.538
30056WAT     H190410   9.209   2.477   3.533
30056WAT     H290411   9.343   2.487   3.625
30057WAT      O90412   0.555   7.124   5.067
30057WAT     H190413   0.580   7.081   5.154
30057WAT     H290414   0.638   7.143   5.015
30058WAT      O90415   9.455   7.343   9.587
30058WAT     H190416   9.452   7.246   9.561
30058WAT     H290417   9.417   7.354   9.678
30059WAT      O90418   6.465   9.459   1.128
30059WAT     H190419   6.461   9.468   1.029
30059WAT     H290420   6.373   9.445   1.165
30060WAT      O90421   8.322   3.359   0.811
30060WAT     H190422   8.421   3.365   0.818
30060WAT     H290423   8.296   3.336   0.717
30061WAT      O90424   5.388   3.192   2.926
30061WAT     H190425   5.396   3.290   2.942
30061WAT     H290426   5.476   3.148   2.943
30062WAT      O90427   0.235   4.702   2.617
30062WAT     H190428   0.235   4.613   2.663
30062WAT     H290429   0.319   4.752   2.641
30063WAT      O90430   6.205   6.658   8.235
30063WAT     H190431   6.154   6.572   8.239
30063WAT     H290432   6.199   6.696   8.143
30064WAT      O90433   0.475   4.307   7.938
30064WAT     H190434   0.404   4.345   7.998
30064WAT     H290435   0.503   4.217   7.971
30065WAT      O90436   5.397   7.859   2.543
30065WAT     H190437   5.325   7.899   2.600
30065WAT     H290438   5.372   7.765   2.520
30066WAT      O90439   7.191   0.440   7.313
30066WAT     H190440   7.209   0.378   7.389
30066WAT     H290441   7.271   0.442   7.253
30067WAT      O90442   1.317   9.547   2.792
30067WAT     H190443   1.327   9.481   2.867
30067WAT     H290444   1.259   9.508   2.721
30068WAT      O90445   1.682   0.476   8.875
30068WAT     H190446   1.674   0.388   8.827
30068WAT     H290447   1.596   0.526   8.866
30069WAT      O90448   9.170   1.363   7.808
30069WAT     H190449   9.191   1.365   7.710
30069WAT     H290450   9.237   1.306   7.855
30070WAT      O90451   4.299   9.055   8.153
30070WAT     H190452   4.277   9.141   8.107
30070WAT     H290453   4.388   9.022   8.121
30071WAT      O90454   6.111   0.136   8.469
30071WAT     H190455   6.203   0.108   8.444
30071WAT     H290456   6.056   0.149   8.386
30072WAT      O90457   1.847   9.538   9.884
30072WAT     H190458   1.874   9.459   9.939
30072WAT     H290459   1.800   9.506   9.802
30073WAT      O90460   3.319   4.386   3.806
30073WAT     H190461   3.237   4.342   3.771
30073WAT     H290462   3.398   4.360   3.750
30074WAT      O90463   4.948   2.251   6.534
30074WAT     H190464   4.883   2.313   6.491
30074WAT     H290465   5.033   2.250   6.480
30075WAT      O90466   0.735   1.844   4.112
30075WAT     H190467   0.702   1.805   4.198
30075WAT     H290468   0.667   1.830   4.040
30076WAT      O90469   3.819   9.468   7.159
30076WAT     H190470   3.903   9.501   7.203
30076WAT     H290471   3.843   9.425   7.072
30077WAT      O90472   5.273   6.798   6.831
30077WAT     H190473   5.288   6.751   6.919
30077WAT     H290474   5.176   6.819   6.821
30078WAT      O90475   0.528   0.110   3.951
30078WAT     H190476   0.498   0.144   4.040
30078WAT     H290477   0.496   0.017   3.938
30079WAT      O90478   2.218   5.252   4.173
30079WAT     H190479   2.182   5.230   4.083
30079WAT     H290480   2.167   5.202   4.243
30080WAT      O90481   5.684   6.963   1.068
30080WAT     H190482   5.744   6.989   0.992
30080WAT     H290483   5.739   6.919   1.140
30081WAT      O90484   5.994   4.582   3.379
30081WAT     H190485   6.068   4.538   3.328
30081WAT     H290486   6.017   4.585   3.476
30082WAT      O90487   4.753   3.942   0.009
30082WAT     H190488   4.660   3.945  -0.026
30082WAT     H290489   4.817   3.953  -0.067
30083WAT      O90490   8.334   2.353   8.896
30083WAT     H190491   8.412   2.416   8.898
30083WAT     H290492   8.360   2.269   8.849
30084WAT      O90493   5.259   2.149   9.007
30084WAT     H190494   5.328   2.120   9.073
30084WAT     H290495   5.301   2.165   8.918
30085WAT      O90496   2.490   8.889   8.299
30085WAT     H190497   2.473   8.800   8.257
30085WAT     H290498   2.403   8.931   8.326
30086WAT      O90499   1.138   8.630   3.879
30086WAT     H190500   1.105   8.707   3.824
30086WAT     H290501   1.073   8.611   3.952
30087WAT      O90502   0.057   2.908   2.272
30087WAT     H190503   0.061   2.869   2.364
30087WAT     H290504   0.064   2.835   2.204
30088WAT      O90505   7.856   2.746   3.758
30088WAT     H190506   7.850   2.660   3.707
30088WAT     H290507   7.809   2.736   3.846
30089WAT      O90508   2.931   6.499   0.913
30089WAT     H190509   2.940   6.567   0.987
30089WAT     H290510   2.916   6.409   0.952
30090WAT      O90511   4.669   2.350   0.154
30090WAT     H190512   4.698   2.415   0.225
30090WAT     H290513   4.633   2.400   0.076
30091WAT      O90514   8.428   1.742   6.426
30091WAT     H190515   8.377   1.812   6.477
30091WAT     H290516   8.424   1.762   6.328
30092WAT      O90517   0.879   2.132   0.691
30092WAT     H190518   0.956   2.173   0.642
30092WAT     H290519   0.850   2.049   0.643
30093WAT      O90520   5.628   9.819   6.368
30093WAT     H190521   5.683   9.891   6.411
30093WAT     H290522   5.630   9.737   6.426
30094WAT      O90523   3.682   1.331   6.413
30094WAT     H190524   3.715   1.237   6.423
30094WAT     H290525   3.691   1.379   6.500
30095WAT      O90526   6.231   4.708   1.772
30095WAT     H190527   6.276   4.674   1.854
30095WAT     H290528   6.176   4.635   1.731
30096WAT      O90529   5.262   6.594   8.074
30096WAT     H190530   5.271   6.693   8.062
30096WAT     H290531   5.299   6.568   8.163
30097WAT      O90532   6.487   7.731   4.048
30097WAT     H190533   6.391   7.704   4.057
30097WAT     H290534   6.506   7.755   3.953
30098WAT      O90535   5.030   5.290   2.561
30098WAT     H190536   5.071   5.254   2.645
30098WAT     H290537   4.961   5.358   2.584
30099WAT      O90538   8.838   0.377   1.521
30099WAT     H190539   8.805   0.411   1.609
30099WAT     H290540   8.837   0.277   1.522
30100WAT      O90541   6.000   6.148   0.117
30100WAT     H190542   5.980   6.109   0.027
30100WAT     H290543   6.091   6.188   0.117
30101WAT      O90544   0.747   9.482   4.979
30101WAT     H190545   0.781   9.389   4.993
30101WAT     H290546   0.819   9.537   4.937
30102WAT      O90547   8.220   1.989   1.082
30102WAT     H190548   8.151   2.061   1.090
30102WAT     H290549   8.293   2.019   1.021
30103WAT      O90550   4.485   6.950   7.320
30103WAT     H190551   4.508   7.044   7.295
30103WAT     H290552   4.458   6.947   7.416
30104WAT      O90553   8.091   3.850   5.487
30104WAT     H190554   8.000   3.814   5.506
30104WAT     H290555   8.098   3.874   5.390
30105WAT      O90556   3.760   0.786   9.614
30105WAT     H190557   3.665   0.806   9.637
30105WAT     H290558   3.795   0.714   9.674
30106WAT      O90559   9.706   2.976   5.405
30106WAT     H190560   9.611   2.947   5.413
30106WAT     H290561   9.764   2.914   5.456
30107WAT      O90562   3.031   4.041   2.075
30107WAT     H190563   2.996   4.017   2.166
30107WAT     H290564   2.998   3.974   2.009
30108WAT      O90565   2.213   5.815   6.782
30108WAT     H190566   2.241   5.733   6.831
30108WAT     H290567   2.132   5.854   6.825
30109WAT      O90568   3.026   4.434   5.403
30109WAT     H190569   3.093   4.438   5.328
30109WAT     H290570   2.949   4.494   5.381
30110WAT      O90571   5.260   0.873   1.812
30110WAT     H190572   5.242   0.912   1.902
30110WAT     H290573   5.349   0.904   1.779
30111WAT      O90574   5.998   3.011   8.922
30111WAT     H190575   5.900   3.015   8.907
30111WAT     H290576   6.024   2.919   8.952
30112WAT      O90577   7.638   6.087   0.841
30112WAT     H190578   7.617   6.006   0.786
30112WAT     H290579   7.738   6.100   0.843
30113WAT      O90580   7.873   9.307   4.905
30113WAT     H190581   7.873   9.215   4.942
30113WAT     H290582   7.883   9.373   4.979
30114WAT      O90583   7.759   7.711   4.482
30114WAT     H190584   7.829   7.652   4.442
30114WAT     H290585   7.703   7.659   4.546
30115WAT      O90586   9.354   1.036   4.690
30115WAT     H190587   9.369   1.028   4.789
30115WAT     H290588   9.350   1.133   4.665
30116WAT      O90589   8.516   4.999   6.257
30116WAT     H190590   8.463   4.914   6.256
30116WAT     H290591   8.611   4.978   6.279
30117WAT      O90592   9.300   4.207   2.690
30117WAT     H190593   9.203   4.224   2.678
30117WAT     H290594   9.314   4.139   2.763
30118WAT      O90595   7.240   1.073   2.170
30118WAT     H190596   7.236   1.046   2.266
30118WAT     H290597   7.296   1.009   2.119
30119WAT      O90598   6.195   8.333   3.016
30119WAT     H190599   6.192   8.342   2.916
30119WAT     H290600   6.227   8.419   3.056
30120WAT      O90601   4.403   7.369   4.188
30120WAT     H190602   4.326   7.347   4.129
30120WAT     H290603   4.475   7.412   4.134
30121WAT      O90604   6.757   9.664   6.196
30121WAT     H190605   6.836   9.649   6.257
30121WAT     H290606   6.676   9.620   6.235
30122WAT      O90607   0.042   8.333   0.164
30122WAT     H190608   0.110   8.279   0.115
30122WAT     H290609   0.025   8.418   0.115
30123WAT      O90610   2.604   9.675   8.963
30123WAT     H190611   2.695   9.695   9.001
30123WAT     H290612   2.568   9.592   9.006
30124WAT      O90613   3.244   9.644   1.386
30124WAT     H190614   3.263   9.737   1.417
30124WAT     H290615   3.196   9.646   1.299
30125WAT      O90616   2.348   9.658   6.547
30125WAT     H190617   2.265   9.692   6.591
30125WAT     H290618   2.330   9.567   6.508
30126WAT      O90619   4.990   8.699   8.364
30126WAT     H190620   4.907   8.741   8.329
30126WAT     H290621   4.966   8.632   8.434
30127WAT      O90622   5.468   5.704   8.716
30127WAT     H190623   5.516   5.663   8.639
30127WAT     H290624   5.369   5.699   8.701
30128WAT      O90625   4.969   9.746   6.930
30128WAT     H190626   5.044   9.745   6.995
30128WAT     H290627   4.910   9.825   6.949
30129WAT      O90628   4.647   5.027   3.340
30129WAT     H190629   4.695   4.948   3.301
30129WAT     H290630   4.669   5.035   3.438
30130WAT      O90631   1.552   3.887   2.779
30130WAT     H190632   1.492   3.811   2.753
30130WAT     H290633   1.569   3.884   2.877
30131WAT      O90634   1.214   8.771   6.675
30131WAT     H190635   1.312   8.759   6.663
30131WAT     H290636   1.176   8.694   6.726
30132WAT      O90637   9.444   1.994   9.033
30132WAT     H190638   9.537   2.027   9.050
30132WAT     H290639   9.424   1.999   8.935
30133WAT      O90640   8.763   9.064   4.451
30133WAT     H190641   8.824   9.143   4.448
30133WAT     H290642   8.737   9.038   4.358
30134WAT      O90643   0.159   7.443   9.658
30134WAT     H190644   0.186   7.375   9.590
30134WAT     H290645   0.065   7.425   9.688
30135WAT      O90646   2.270   2.282   1.763
30135WAT     H190647   2.200   2.289   1.691
30135WAT     H290648   2.353   2.241   1.725
30136WAT      O90649   1.056   9.786   8.186
30136WAT     H190650   1.030   9.784   8.090
30136WAT     H290651   0.987   9.835   8.239
30137WAT      O90652   0.069   4.018   8.342
30137WAT     H190653   0.011   4.083   8.391
30137WAT     H290654   0.109   3.953   8.407
30138WAT      O90655   9.113   4.042   0.058
30138WAT     H190656   9.201   4.056   0.103
30138WAT     H290657   9.078   3.952   0.082
30139WAT      O90658   8.378   8.000   1.771
30139WAT     H190659   8.308   8.071   1.777
30139WAT     H290660   8.380   7.962   1.678
30140WAT      O90661   0.222   6.722   3.192
30140WAT     H190662   0.204   6.798   3.254
30140WAT     H290663   0.271   6.650   3.241
30141WAT      O90664   2.753   4.445   8.755
30141WAT     H190665   2.847   4.426   8.782
30141WAT     H290666   2.690   4.396   8.816
30142WAT      O90667   6.190   1.048   1.413
30142WAT     H190668   6.137   1.099   1.345
30142WAT     H290669   6.236   1.112   1.474
30143WAT      O90670   2.776   6.733   6.712
30143WAT     H190671   2.792   6.740   6.613
30143WAT     H290672   2.815   6.647   6.745
30144WAT      O90673   2.235   8.366   8.505
30144WAT     H190674   2.177   8.288   8.526
30144WAT     H290675   2.319   8.362   8.560
30145WAT      O90676   2.454   6.140   8.414
30145WAT     H190677   2.426   6.047   8.436
30145WAT     H290678   2.507   6.140   8.329
30146WAT      O90679   5.063   7.710   5.424
30146WAT     H190680   5.009   7.729   5.342
30146WAT     H290681   5.113   7.793   5.450
30147WAT      O90682   6.257   8.781   5.316
30147WAT     H190683   6.252   8.818   5.409
30147WAT     H290684   6.346   8.737   5.303
30148WAT      O90685   3.901   7.581   8.057
30148WAT     H190686   3.831   7.645   8.023
30148WAT     H290687   3.857   7.510   8.112
30149WAT      O90688   2.731   2.295   2.112
30149WAT     H190689   2.794   2.341   2.174
30149WAT     H290690   2.781   2.262   2.032
30150WAT      O90691   5.986   6.099   5.755
30150WAT     H190692   5.904   6.137   5.797
30150WAT     H290693   6.020   6.161   5.685
30151WAT      O90694   0.555   2.424   6.365
30151WAT     H190695   0.624   2.372   6.314
30151WAT     H290696   0.504   2.362   6.424
30152WAT      O90697   2.869   1.402   8.968
30152WAT     H190698   2.847   1.336   8.896
30152WAT     H290699   2.801   1.476   8.967
30153WAT      O90700   4.316   8.082   0.030
30153WAT     H190701   4.229   8.051   0.067
30153WAT     H290702   4.375   8.113   0.106
30154WAT      O90703   0.793   4.040   2.676
30154WAT     H190704   0.766   4.049   2.581
30154WAT     H290705   0.888   4.068   2.687
30155WAT      O90706   5.231   9.184   4.402
30155WAT     H190707   5.230   9.263   4.340
30155WAT     H290708   5.291   9.205   4.480
30156WAT      O90709   2.355   1.511   7.119
30156WAT     H190710   2.335   1.489   7.214
30156WAT     H290711   2.408   1.597   7.115
30157WAT      O90712   2.677   2.046   7.363
30157WAT     H190713   2.600   2.040   7.426
30157WAT     H290714   2.717   2.138   7.367
30158WAT      O90715   8.247   5.240   5.712
30158WAT     H190716   8.321   5.302   5.688
30158WAT     H290717   8.161   5.273   5.673
30159WAT      O90718   0.829   3.334   0.397
30159WAT     H190719   0.756   3.268   0.414
30159WAT     H290720   0.912   3.306   0.446
30160WAT      O90721   6.636   0.385   7.433
30160WAT     H190722   6.638   0.445   7.353
30160WAT     H290723   6.642   0.290   7.403
30161WAT      O90724   2.641   0.992   0.509
30161WAT     H190725   2.569   1.026   0.570
30161WAT     H290726   2.652   0.894   0.523
30162WAT      O90727   5.281   1.291   0.363
30162WAT     H190728   5.258   1.387   0.379
30162WAT     H290729   5.244   1.235   0.436
30163WAT      O90730   7.376   3.718   1.070
30163WAT     H190731   7.324   3.718   0.985
30163WAT     H290732   7.388   3.813   1.102
30164WAT      O90733   8.202   1.826   5.675
30164WAT     H190734   8.155   1.793   5.757
30164WAT     H290735   8.142   1.815   5.595
30165WAT      O90736   3.832   2.209   0.024
30165WAT     H190737   3.922   2.236  -0.011
30165WAT     H290738   3.783   2.157  -0.046
30166WAT      O90739   6.692   4.825   2.504
30166WAT     H190740   6.730   4.871   2.424
30166WAT     H290741   6.686   4.890   2.580
30167WAT      O90742   0.237   5.741   4.430
30167WAT     H190743   0.241   5.835   4.463
30167WAT     H290744   0.192   5.739   4.340
30168WAT      O90745   1.647   9.013   3.695
30168WAT     H190746   1.656   9.044   3.789
30168WAT     H290747   1.553   9.027   3.664
30169WAT      O90748   4.317   6.977   0.260
30169WAT     H190749   4.385   6.919   0.304
30169WAT     H290750   4.333   7.072   0.284
30170WAT      O90751   0.342   5.842   9.169
30170WAT     H190752   0.273   5.910   9.190
30170WAT     H290753   0.327   5.806   9.077
30171WAT      O90754   1.965   8.283   4.774
30171WAT     H190755   2.007   8.262   4.862
30171WAT     H290756   1.872   8.246   4.772
30172WAT      O90757   7.979   2.816   5.016
30172WAT     H190758   8.039   2.874   4.960
30172WAT     H290759   8.031   2.739   5.051
30173WAT      O90760   8.610   0.974   8.035
30173WAT     H190761   8.534   0.978   7.971
30173WAT     H290762   8.598   1.045   8.105
30174WAT      O90763   7.495   7.203   7.527
30174WAT     H190764   7.484   7.290   7.479
30174WAT     H290765   7.590   7.190   7.554
30175WAT      O90766   5.633   4.196   0.906
30175WAT     H190767   5.645   4.238   0.996
30175WAT     H290768   5.536   4.183   0.888
30176WAT      O90769   6.058   8.768   0.676
30176WAT     H190770   6.046   8.862   0.644
30176WAT     H290771   6.076   8.708   0.598
30177WAT      O90772   9.173   0.596   0.146
30177WAT     H190773   9.271   0.614   0.154
30177WAT     H290774   9.135   0.578   0.237
30178WAT      O90775   2.312   3.108   0.831
30178WAT     H190776   2.294   3.202   0.802
30178WAT     H290777   2.304   3.102   0.930
30179WAT      O90778   2.821   4.241   9.732
30179WAT     H190779   2.770   4.301   9.670
30179WAT     H290780   2.813   4.147   9.701
30180WAT      O90781   3.361   8.575   1.486
30180WAT     H190782   3.312   8.517   1.421
30180WAT     H290783   3.459   8.552   1.486
30181WAT      O90784   3.147   7.961   1.619
30181WAT     H190785   3.124   7.899   1.544
30181WAT     H290786   3.062   7.991   1.664
30182WAT      O90787   2.977   0.143   4.148
30182WAT     H190788   2.987   0.222   4.208
30182WAT     H290789   2.911   0.079   4.187
30183WAT      O90790   5.443   7.685   8.705
30183WAT     H190791   5.359   7.713   8.752
30183WAT     H290792   5.452   7.585   8.709
30184WAT      O90793   6.564   0.898   1.967
30184WAT     H190794   6.531   0.857   1.882
30184WAT     H290795   6.502   0.971   1.996
30185WAT      O90796   4.862   6.951   3.726
30185WAT     H190797   4.774   6.988   3.694
30185WAT     H290798   4.936   7.013   3.698
30186WAT      O90799   6.231   7.650   4.125
30186WAT     H190800   6.136   7.679   4.129
30186WAT     H290801   6.242   7.580   4.055
30187WAT      O90802   2.800   6.938   3.170
30187WAT     H190803   2.798   6.839   3.186
30187WAT     H290804   2.785   6.986   3.257
30188WAT      O90805   5.965   6.740   4.287
30188WAT     H190806   6.025   6.681   4.233
30188WAT     H290807   5.980   6.835   4.262
30189WAT      O90808   8.697   5.697   6.166
30189WAT     H190809   8.715   5.785   6.209
30189WAT     H290810   8.725   5.623   6.227
30190WAT      O90811   0.624   5.655   5.961
30190WAT     H190812   0.651   5.668   6.057
30190WAT     H290813   0.591   5.742   5.924
30191WAT      O90814   6.405   7.200   1.808
30191WAT     H190815   6.364   7.272   1.864
30191WAT     H290816   6.396   7.224   1.711
30192WAT      O90817   1.776   5.476   4.367
30192WAT     H190818   1.850   5.418   4.401
30192WAT     H290819   1.728   5.516   4.445
30193WAT      O90820   0.706   3.174   7.988
30193WAT     H190821   0.672   3.175   8.082
30193WAT     H290822   0.798   3.214   7.985
30194WAT      O90823   3.621   8.632   3.972
30194WAT     H190824   3.713   8.654   4.003
30194WAT     H290825   3.562   8.615   4.050
30195WAT      O90826   7.158   7.579   5.623
30195WAT     H190827   7.088   7.591   5.693
30195WAT     H290828   7.125   7.516   5.553
30196WAT      O90829   1.684   0.200   7.154
30196WAT     H190830   1.699   0.146   7.236
30196WAT     H290831   1.756   0.270   7.146
30197WAT      O90832   0.806   5.703   7.903
30197WAT     H190833   0.750   5.734   7.980
30197WAT     H290834   0.835   5.783   7.850
30198WAT      O90835   4.449   4.141   1.582
30198WAT     H190836   4.443   4.191   1.668
30198WAT     H290837   4.540   4.103   1.572
30199WAT      O90838   5.480   9.006   3.476
30199WAT     H190839   5.541   8.986   3.553
30199WAT     H290840   5.532   9.051   3.403
30200WAT      O90841   4.110   5.296   9.330
30200WAT     H190842   4.127   5.254   9.241
30200WAT     H290843   4.016   5.329   9.335
30201WAT      O90844   5.296   4.129   9.378
30201WAT     H190845   5.278   4.066   9.303
30201WAT     H290846   5.323   4.218   9.341
30202WAT      O90847   2.500   1.874   1.215
30202WAT     H190848   2.454   1.787   1.230
30202WAT     H290849   2.597   1.865   1.236
30203WAT      O90850   1.136   1.761   0.547
30203WAT     H190851   1.227   1.771   0.507
30203WAT     H290852   1.127   1.822   0.625
30204WAT      O90853   2.182   2.689   7.443
30204WAT     H190854   2.170   2.724   7.350
30204WAT     H290855   2.184   2.589   7.440
30205WAT      O90856   6.241   0.116   4.631
30205WAT     H190857   6.198   0.204   4.651
30205WAT     H290858   6.171   0.049   4.609
30206WAT      O90859   7.232   0.927   6.529
30206WAT     H190860   7.219   0.923   6.430
30206WAT     H290861   7.154   0.974   6.571
30207WAT      O90862   1.256   5.904   2.905
30207WAT     H190863   1.313   5.982   2.932
30207WAT     H290864   1.164   5.916   2.942
30208WAT      O90865   5.973   3.489   5.459
30208WAT     H190866   5.957   3.511   5.556
30208WAT     H290867   6.047   3.422   5.453
30209WAT      O90868   8.954   9.567   5.728
30209WAT     H190869   9.028   9.586   5.791
30209WAT     H290870   8.962   9.473   5.693
30210WAT      O90871   1.045   2.553   3.658
30210WAT     H190872   1.115   2.611   3.616
30210WAT     H290873   1.078   2.519   3.746
30211WAT      O90874   8.384   6.300   1.360
30211WAT     H190875   8.361   6.214   1.315
30211WAT     H290876   8.304   6.360   1.360
30212WAT      O90877   8.933   8.869   0.629
30212WAT     H190878   8.939   8.811   0.710
30212WAT     H290879   8.855   8.932   0.638
30213WAT      O90880   1.058   1.416   0.458
30213WAT     H190881   1.008   1.333   0.434
30213WAT     H290882   0.995   1.484   0.493
30214WAT      O90883   3.960   8.593   3.687
30214WAT     H190884   4.056   8.609   3.663
30214WAT     H290885   3.942   8.495   3.689
30215WAT      O90886   3.614   3.249   7.589
30215WAT     H190887   3.601   3.151   7.578
30215WAT     H290888   3.690   3.266   7.651
30216WAT      O90889   4.337   9.533   3.332
30216WAT     H190890   4.257   9.476   3.309
30216WAT     H290891   4.407   9.475   3.372
30217WAT      O90892   4.666   6.920   2.155
30217WAT     H190893   4.726   6.999   2.166
30217WAT     H290894   4.686   6.851   2.225
30218WAT      O90895   5.359   6.371   9.665
30218WAT     H190896   5.394   6.436   9.732
30218WAT     H290897   5.434   6.312   9.633
30219WAT      O90898   6.710   6.980   4.807
30219WAT     H190899   6.661   6.893   4.813
30219WAT     H290900   6.752   6.989   4.717
30220WAT      O90901   3.809   8.780   7.750
30220WAT     H190902   3.744   8.784   7.825
30220WAT     H290903   3.795   8.858   7.689
30221WAT      O90904   9.794   8.431   5.018
30221WAT     H190905   9.765   8.337   5.033
30221WAT     H290906   9.834   8.439   4.926
30222WAT      O90907   3.415   8.856   6.340
30222WAT     H190908   3.453   8.872   6.249
30222WAT     H290909   3.391   8.760   6.350
30223WAT      O90910   3.892   2.269   8.078
30223WAT     H190911   3.858   2.192   8.024
30223WAT     H290912   3.904   2.348   8.018
30224WAT      O90913   1.862   6.427   5.839
30224WAT     H190914   1.943   6.384   5.799
30224WAT     H290915   1.809   6.359   5.889
30225WAT      O90916   8.028   0.739   7.968
30225WAT     H190917   7.954   0.764   8.029
30225WAT     H290918   8.024   0.794   7.885
30226WAT      O90919   6.035   7.599   3.468
30226WAT     H190920   6.059   7.559   3.380
30226WAT     H290921   5.993   7.529   3.526
30227WAT      O90922   2.465   7.062   7.204
30227WAT     H190923   2.399   7.080   7.277
30227WAT     H290924   2.530   7.138   7.198
30228WAT      O90925   6.805   3.305   3.193
30228WAT     H190926   6.713   3.345   3.190
30228WAT     H290927   6.873   3.378   3.181
30229WAT      O90928   9.440   2.975   9.123
30229WAT     H190929   9.427   3.026   9.038
30229WAT     H290930   9.351   2.951   9.162
30230WAT      O90931   0.834   2.039   2.384
30230WAT     H190932   0.753   2.084   2.421
30230WAT     H290933   0.869   1.974   2.451
30231WAT      O90934   3.254   7.615   0.261
30231WAT     H190935   3.275   7.648   0.353
30231WAT     H290936   3.330   7.634   0.200
30232WAT      O90937   5.097   5.608   3.147
30232WAT     H190938   5.196   5.594   3.149
30232WAT     H290939   5.059   5.587   3.237
30233WAT      O90940   2.171   9.360   4.976
30233WAT     H190941   2.073   9.377   4.983
30233WAT     H290942   2.196   9.351   4.879
30234WAT      O90943   7.805   0.150   2.816
30234WAT     H190944   7.861   0.231   2.799
30234WAT     H290945   7.770   0.153   2.909
30235WAT      O90946   5.338   4.586   2.940
30235WAT     H190947   5.309   4.641   2.862
30235WAT     H290948   5.438   4.577   2.938
30236WAT      O90949   1.743   9.838   5.670
30236WAT     H190950   1.753   9.758   5.610
30236WAT     H290951   1.825   9.848   5.726
30237WAT      O90952   0.177   6.276   7.587
30237WAT     H190953   0.222   6.358   7.623
30237WAT     H290954   0.246   6.214   7.549
30238WAT      O90955   8.000   4.183   0.534
30238WAT     H190956   7.954   4.105   0.577
30238WAT     H290957   8.073   4.149   0.474
30239WAT      O90958   4.958   1.609   4.010
30239WAT     H190959   4.958   1.660   3.923
30239WAT     H290960   4.890   1.537   4.006
30240WAT      O90961   0.523   8.529   0.324
30240WAT     H190962   0.431   8.565   0.342
30240WAT     H290963   0.563   8.497   0.410
30241WAT      O90964   7.597   7.192   3.606
30241WAT     H190965   7.529   7.130   3.645
30241WAT     H290966   7.551   7.276   3.575
30242WAT      O90967   9.671   6.948   7.748
30242WAT     H190968   9.626   6.883   7.809
30242WAT     H290969   9.766   6.960   7.777
30243WAT      O90970   5.878   6.747   5.597
30243WAT     H190971   5.963   6.791   5.623
30243WAT     H290972   5.864   6.756   5.498
30244WAT      O90973   8.400   4.065   1.251
30244WAT     H190974   8.414   3.969   1.276
30244WAT     H290975   8.308   4.093   1.279
30245WAT      O90976   3.497   3.712   7.595
30245WAT     H190977   3.474   3.804   7.561
30245WAT     H290978   3.522   3.718   7.692
30246WAT      O90979   4.827   0.100   6.252
30246WAT     H190980   4.756   0.129   6.317
30246WAT     H290981   4.912   0.083   6.302
30247WAT      O90982   0.613   1.007   9.403
30247WAT     H190983   0.634   1.060   9.485
30247WAT     H290984   0.515   0.988   9.399
30248WAT      O90985   4.308   1.060   9.868
30248WAT     H190986   4.227   1.050   9.925
30248WAT     H290987   4.384   1.093   9.924
30249WAT      O90988   2.003   6.174   3.489
30249WAT     H190989   1.917   6.126   3.504
30249WAT     H290990   2.054   6.128   3.416
30250WAT      O90991   3.562   4.157   4.284
30250WAT     H190992   3.549   4.061   4.308
30250WAT     H290993   3.537   4.171   4.188
30251WAT      O90994   4.505   5.756   5.706
30251WAT     H190995   4.554   5.739   5.792
30251WAT     H290996   4.570   5.781   5.635
30252WAT      O90997   3.920   7.305   0.812
30252WAT     H190998   3.965   7.255   0.737
30252WAT     H290999   3.966   7.284   0.898
30253WAT      O91000   6.729   1.563   1.055
30253WAT     H191001   6.679   1.550   1.140
30253WAT     H291002   6.700   1.649   1.012
30254WAT      O91003   7.475   6.480   1.777
30254WAT     H191004   7.439   6.533   1.854
30254WAT     H291005   7.472   6.535   1.694
30255WAT      O91006   0.250   0.520   8.892
30255WAT     H191007   0.219   0.432   8.928
30255WAT     H291008   0.338   0.508   8.846
30256WAT      O91009   6.088   0.101   2.284
30256WAT     H191010   6.115   0.188   2.325
30256WAT     H291011   6.170   0.053   2.252
30257WAT      O91012   1.539   7.704   0.151
30257WAT     H191013   1.502   7.729   0.241
30257WAT     H291014   1.482   7.634   0.109
30258WAT      O91015   6.754   7.936   0.293
30258WAT     H191016   6.654   7.939   0.297
30258WAT     H291017   6.783   7.874   0.220
30259WAT      O91018   3.956   6.833   2.119
30259WAT     H191019   3.872   6.813   2.169
30259WAT     H291020   3.940   6.823   2.021
30260WAT      O91021   5.184   5.418   8.047
30260WAT     H191022   5.183   5.417   7.947
30260WAT     H291023   5.278   5.425   8.079
30261WAT      O91024   0.232   6.411   3.714
30261WAT     H191025   0.331   6.406   3.696
30261WAT     H291026   0.183   6.411   3.627
30262WAT      O91027   2.783   3.550   1.563
30262WAT     H191028   2.828   3.467   1.594
30262WAT     H291029   2.706   3.571   1.623
30263WAT      O91030   1.868   9.833   3.228
30263WAT     H191031   1.964   9.826   3.202
30263WAT     H291032   1.833   9.924   3.204
30264WAT      O91033   9.870   8.840   4.618
30264WAT     H191034   9.786   8.851   4.672
30264WAT     H291035   9.878   8.916   4.553
30265WAT      O91036   7.725   4.848   1.394
30265WAT     H191037   7.664   4.924   1.417
30265WAT     H291038   7.820   4.877   1.404
30266WAT      O91039   3.511   9.356   6.976
30266WAT     H191040   3.551   9.415   6.906
30266WAT     H291041   3.561   9.270   6.981
30267WAT      O91042   3.718   8.118   9.578
30267WAT     H191043   3.638   8.145   9.633
30267WAT     H291044   3.762   8.200   9.542
30268WAT      O91045   7.810   3.839   0.148
30268WAT     H191046   7.874   3.890   0.206
30268WAT     H291047   7.720   3.836   0.191
30269WAT      O91048   2.482   0.696   1.633
30269WAT     H191049   2.418   0.767   1.664
30269WAT     H291050   2.535   0.663   1.711
30270WAT      O91051   7.647   8.533   4.168
30270WAT     H191052   7.688   8.470   4.234
30270WAT     H291053   7.649   8.491   4.077
30271WAT      O91054   7.279   5.677   9.168
30271WAT     H191055   7.348   5.744   9.195
30271WAT     H291056   7.213   5.665   9.242
30272WAT      O91057   1.541   7.762   5.796
30272WAT     H191058   1.478   7.821   5.845
30272WAT     H291059   1.526   7.667   5.822
30273WAT      O91060   5.050   7.279   2.195
30273WAT     H191061   5.113   7.209   2.230
30273WAT     H291062   5.089   7.320   2.113
30274WAT      O91063   3.477   1.390   0.483
30274WAT     H191064   3.545   1.334   0.436
30274WAT     H291065   3.453   1.468   0.426
30275WAT      O91066   5.023   8.495   6.738
30275WAT     H191067   5.105   8.528   6.691
30275WAT     H291068   5.050   8.432   6.811
30276WAT      O91069   3.810   0.398   0.256
30276WAT     H191070   3.763   0.420   0.341
30276WAT     H291071   3.873   0.321   0.271
30277WAT      O91072   2.287   7.202   0.207
30277WAT     H191073   2.325   7.120   0.164
30277WAT     H291074   2.204   7.178   0.257
30278WAT      O91075   2.502   9.127   2.139
30278WAT     H191076   2.466   9.074   2.062
30278WAT     H291077   2.477   9.082   2.225
30279WAT      O91078   9.066   5.381   6.870
30279WAT     H191079   9.117   5.435   6.803
30279WAT     H291080   9.068   5.426   6.959
30280WAT      O91081   2.907   7.277   8.460
30280WAT     H191082   2.899   7.281   8.560
30280WAT     H291083   2.882   7.366   8.421
30281WAT      O91084   8.512   2.043   1.541
30281WAT     H191085   8.609   2.064   1.552
30281WAT     H291086   8.475   2.093   1.462
30282WAT      O91087   3.595   3.993   1.739
30282WAT     H191088   3.565   3.905   1.775
30282WAT     H291089   3.598   4.060   1.812
30283WAT      O91090   8.223   7.656   3.464
30283WAT     H191091   8.281   7.691   3.538
30283WAT     H291092   8.208   7.728   3.397
30284WAT      O91093   5.543   4.502   2.155
30284WAT     H191094   5.500   4.515   2.245
30284WAT     H291095   5.483   4.538   2.084
30285WAT      O91096   4.388   0.127   7.999
30285WAT     H191097   4.457   0.177   7.947
30285WAT     H291098   4.323   0.084   7.937
30286WAT      O91099   0.759   5.515   6.632
30286WAT     H191100   0.660   5.514   6.650
30286WAT     H291101   0.789   5.424   6.604
30287WAT      O91102   5.029   6.845   1.841
30287WAT     H191103   4.940   6.840   1.795
30287WAT     H291104   5.054   6.941   1.854
30288WAT      O91105   2.900   3.824   5.787
30288WAT     H191106   2.858   3.849   5.700
30288WAT     H291107   2.828   3.810   5.855
30289WAT      O91108   6.650   1.001   7.452
30289WAT     H191109   6.558   1.028   7.478
30289WAT     H291110   6.708   1.083   7.443
30290WAT      O91111   2.437   9.718   7.234
30290WAT     H191112   2.400   9.627   7.214
30290WAT     H291113   2.521   9.709   7.288
30291WAT      O91114   7.710   0.299   5.557
30291WAT     H191115   7.698   0.200   5.559
30291WAT     H291116   7.807   0.321   5.568
30292WAT      O91117   5.761   1.842   7.123
30292WAT     H191118   5.753   1.746   7.097
30292WAT     H291119   5.765   1.849   7.223
30293WAT      O91120   1.196   1.086   6.039
30293WAT     H191121   1.222   1.021   5.968
30293WAT     H291122   1.112   1.133   6.013
30294WAT      O91123   3.198   6.922   8.532
30294WAT     H191124   3.149   6.835   8.531
30294WAT     H291125   3.234   6.938   8.624
30295WAT      O91126   7.108   4.421   6.914
30295WAT     H191127   7.015   4.457   6.911
30295WAT     H291128   7.136   4.410   7.009
30296WAT      O91129   6.077   9.633   1.084
30296WAT     H191130   6.132   9.550   1.089
30296WAT     H291131   6.005   9.621   1.015
30297WAT      O91132   5.994   0.119   8.725
30297WAT     H191133   6.029   0.115   8.632
30297WAT     H291134   5.899   0.087   8.727
30298WAT      O91135   4.802   1.573   7.136
30298WAT     H191136   4.761   1.639   7.198
30298WAT     H291137   4.902   1.579   7.141
30299WAT      O91138   1.309   5.748   4.658
30299WAT     H191139   1.360   5.770   4.742
30299WAT     H291140   1.364   5.687   4.602
30300WAT      O91141   8.642   0.735   6.485
30300WAT     H191142   8.673   0.830   6.489
30300WAT     H291143   8.623   0.703   6.578
30301WAT      O91144   4.179   9.545   1.134
30301WAT     H191145   4.247   9.482   1.095
30301WAT     H291146   4.162   9.620   1.070
30302WAT      O91147   6.128   1.759   8.741
30302WAT     H191148   6.063   1.724   8.674
30302WAT     H291149   6.096   1.737   8.833
30303WAT      O91150   0.701   2.778   2.739
30303WAT     H191151   0.688   2.871   2.772
30303WAT     H291152   0.741   2.722   2.812
30304WAT      O91153   4.992   8.643   0.292
30304WAT     H191154   4.983   8.544   0.304
30304WAT     H291155   4.946   8.690   0.368
30305WAT      O91156   4.614   5.033   9.543
30305WAT     H191157   4.524   5.008   9.509
30305WAT     H291158   4.615   5.129   9.569
30306WAT      O91159   8.061   3.306   6.552
30306WAT     H191160   8.151   3.335   6.522
30306WAT     H291161   8.066   3.214   6.591
30307WAT      O91162   1.448   6.508   2.416
30307WAT     H191163   1.447   6.476   2.510
30307WAT     H291164   1.425   6.605   2.413
30308WAT      O91165   4.007   5.667   8.571
30308WAT     H191166   4.073   5.608   8.524
30308WAT     H291167   4.019   5.761   8.539
30309WAT      O91168   1.036   0.310   5.275
30309WAT     H191169   0.960   0.372   5.291
30309WAT     H291170   1.037   0.239   5.346
30310WAT      O91171   7.817   4.669   0.786
30310WAT     H191172   7.848   4.580   0.820
30310WAT     H291173   7.742   4.702   0.843
30311WAT      O91174   9.609   2.356   2.277
30311WAT     H191175   9.666   2.435   2.298
30311WAT     H291176   9.584   2.309   2.362
30312WAT      O91177   5.283   1.631   4.167
30312WAT     H191178   5.248   1.580   4.088
30312WAT     H291179   5.304   1.567   4.241
30313WAT      O91180   9.737   1.846   9.111
30313WAT     H191181   9.650   1.834   9.159
30313WAT     H291182   9.794   1.910   9.161
30314WAT      O91183   4.185   3.444   8.686
30314WAT     H191184   4.195   3.537   8.650
30314WAT     H291185   4.243   3.434   8.767
30315WAT      O91186   0.159   9.821   3.252
30315WAT     H191187   0.080   9.846   3.307
30315WAT     H291188   0.208   9.904   3.224
30316WAT      O91189   4.773   9.001   4.482
30316WAT     H191190   4.728   9.036   4.564
30316WAT     H291191   4.850   9.060   4.459
30317WAT      O91192   7.124   8.413   8.930
30317WAT     H191193   7.081   8.347   8.869
30317WAT     H291194   7.124   8.504   8.887
30318WAT      O91195   8.477   6.135   2.985
30318WAT     H191196   8.511   6.202   3.052
30318WAT     H291197   8.485   6.043   3.024
30319WAT      O91198   4.655   6.280   9.245
30319WAT     H191199   4.605   6.365   9.266
30319WAT     H291200   4.597   6.202   9.269
30320WAT      O91201   1.743   3.254   8.617
30320WAT     H191202   1.836   3.289   8.633
30320WAT     H291203   1.737   3.218   8.524
30321WAT      O91204   2.160   1.468   0.926
30321WAT     H191205   2.151   1.456   0.827
30321WAT     H291206   2.254   1.491   0.948
30322WAT      O91207   5.924   6.920   9.805
30322WAT     H191208   5.840   6.966   9.775
30322WAT     H291209   5.990   6.918   9.730
30323WAT      O91210   8.006   4.469   5.811
30323WAT     H191211   8.083   4.420   5.853
30323WAT     H291212   7.983   4.548   5.869
30324WAT      O91213   5.821   7.365   7.624
30324WAT     H191214   5.852   7.384   7.717
30324WAT     H291215   5.785   7.272   7.619
30325WAT      O91216   7.211   5.136   8.651
30325WAT     H191217   7.201   5.145   8.552
30325WAT     H291218   7.250   5.046   8.672
30326WAT      O91219   9.136   9.142   5.689
30326WAT     H191220   9.155   9.074   5.760
30326WAT     H291221   9.199   9.219   5.699
30327WAT      O91222   0.910   7.443   3.748
30327WAT     H191223   1.003   7.408   3.735
30327WAT     H291224   0.868   7.462   3.659
30328WAT      O91225   4.072   5.795   3.691
30328WAT     H191226   4.015   5.864   3.649
30328WAT     H291227   4.169   5.818   3.678
30329WAT      O91228   4.268   6.628   8.782
30329WAT     H191229   4.183   6.645   8.832
30329WAT     H291230   4.249   6.625   8.684
30330WAT      O91231   9.679   4.464   9.568
30330WAT     H191232   9.699   4.406   9.647
30330WAT     H291233   9.587   4.502   9.577
30331WAT      O91234   8.105   8.889   8.052
30331WAT     H191235   8.154   8.811   8.092
30331WAT     H291236   8.126   8.972   8.104
30332WAT      O91237   4.059   0.368   9.248
30332WAT     H191238   4.025   0.404   9.161
30332WAT     H291239   4.140   0.419   9.276
30333WAT      O91240   6.675   8.135   7.742
30333WAT     H191241   6.620   8.055   7.766
30333WAT     H291242   6.723   8.169   7.823
30334WAT      O91243   2.017   2.985   8.370
30334WAT     H191244   2.042   3.082   8.373
30334WAT     H291245   2.101   2.930   8.369
30335WAT      O91246   0.008   6.952   8.211
30335WAT     H191247   0.053   6.867   8.184
30335WAT     H291248   0.042   7.027   8.155
30336WAT      O91249   0.964   5.423   8.942
30336WAT     H191250   1.029   5.470   8.883
30336WAT     H291251   0.967   5.325   8.923
30337WAT      O91252   8.184   2.262   3.061
30337WAT     H191253   8.274   2.219   3.050
30337WAT     H291254   8.116   2.192   3.081
30338WAT      O91255   3.349   0.333   3.237
30338WAT     H191256   3.280   0.383   3.184
30338WAT     H291257   3.329   0.236   3.234
30339WAT      O91258   3.811   0.651   2.801
30339WAT     H191259   3.741   0.582   2.822
30339WAT     H291260   3.814   0.718   2.875
30340WAT      O91261   1.808   3.773   0.598
30340WAT     H191262   1.753   3.799   0.678
30340WAT     H291263   1.877   3.843   0.581
30341WAT      O91264   1.811   0.470   1.887
30341WAT     H191265   1.894   0.523   1.907
30341WAT     H291266   1.762   0.512   1.811
30342WAT      O91267   6.087   7.222   8.917
30342WAT     H191268   6.083   7.167   8.833
30342WAT     H291269   5.995   7.232   8.955
30343WAT      O91270   3.442   1.445   4.528
30343WAT     H191271   3.377   1.506   4.573
30343WAT     H291272   3.397   1.360   4.504
30344WAT      O91273   2.884   0.587   4.231
30344WAT     H191274   2.967   0.640   4.247
30344WAT     H291275   2.831   0.628   4.157
30345WAT      O91276   7.449   6.933   6.584
30345WAT     H191277   7.444   6.984   6.498
30345WAT     H291278   7.530   6.874   6.583
30346WAT      O91279   2.038   1.418   7.874
30346WAT     H191280   1.997   1.404   7.784
30346WAT     H291281   2.105   1.492   7.869
30347WAT      O91282   8.415   5.225   4.641
30347WAT     H191283   8.323   5.256   4.616
30347WAT     H291284   8.460   5.295   4.696
30348WAT      O91285   8.578   8.566   1.217
30348WAT     H191286   8.557   8.551   1.313
30348WAT     H291287   8.665   8.614   1.208
30349WAT      O91288   8.172   9.309   9.366
30349WAT     H191289   8.249   9.373   9.369
30349WAT     H291290   8.107   9.331   9.439
30350WAT      O91291   1.955   4.931   7.900
30350WAT     H191292   1.880   4.928   7.834
30350WAT     H291293   1.919   4.929   7.993
30351WAT      O91294   8.201   6.195   7.268
30351WAT     H191295   8.119   6.252   7.268
30351WAT     H291296   8.175   6.099   7.272
30352WAT      O91297   6.559   2.432   6.757
30352WAT     H191298   6.498   2.488   6.813
30352WAT     H291299   6.650   2.473   6.755
30353WAT      O91300   4.142   5.295   0.102
30353WAT     H191301   4.098   5.221   0.153
30353WAT     H291302   4.214   5.336   0.158
30354WAT      O91303   6.181   6.423   7.804
30354WAT     H191304   6.155   6.403   7.899
30354WAT     H291305   6.098   6.437   7.750
30355WAT      O91306   3.632   6.451   7.769
30355WAT     H191307   3.545   6.488   7.801
30355WAT     H291308   3.624   6.424   7.673
30356WAT      O91309   9.266   5.991   2.492
30356WAT     H191310   9.339   5.994   2.424
30356WAT     H291311   9.178   5.983   2.445
30357WAT      O91312   3.016   8.065   9.761
30357WAT     H191313   2.970   7.976   9.756
30357WAT     H291314   3.094   8.059   9.823
30358WAT      O91315   1.533   3.836   9.430
30358WAT     H191316   1.453   3.807   9.379
30358WAT     H291317   1.537   3.786   9.517
30359WAT      O91318   7.245   4.500   0.945
30359WAT     H191319   7.280   4.416   0.985
30359WAT     H291320   7.259   4.576   1.009
30360WAT      O91321   9.304   7.273   6.378
30360WAT     H191322   9.248   7.354   6.396
30360WAT     H291323   9.366   7.291   6.303
30361WAT      O91324   7.835   9.126   0.656
30361WAT     H191325   7.851   9.028   0.668
30361WAT     H291326   7.737   9.145   0.669
30362WAT      O91327   7.749   9.071   7.545
30362WAT     H191328   7.673   9.006   7.557
30362WAT     H291329   7.797   9.050   7.460
30363WAT      O91330   5.982   1.999   9.203
30363WAT     H191331   5.973   1.899   9.209
30363WAT     H291332   5.982   2.038   9.295
30364WAT      O91333   6.359   0.504   5.853
30364WAT     H191334   6.456   0.489   5.869
30364WAT     H291335   6.332   0.592   5.892
30365WAT      O91336   2.307   5.614   1.024
30365WAT     H191337   2.376   5.620   0.952
30365WAT     H291338   2.290   5.705   1.061
30366WAT      O91339   8.184   4.546   0.112
30366WAT     H191340   8.218   4.616   0.049
30366WAT     H291341   8.231   4.555   0.200
30367WAT      O91342   2.898   7.510   3.609
30367WAT     H191343   2.943   7.518   3.698
30367WAT     H291344   2.872   7.415   3.593
30368WAT      O91345   4.218   0.236   2.166
30368WAT     H191346   4.281   0.220   2.242
30368WAT     H291347   4.206   0.335   2.154
30369WAT      O91348   7.507   0.762   9.589
30369WAT     H191349   7.488   0.728   9.497
30369WAT     H291350   7.539   0.687   9.646
30370WAT      O91351   8.469   2.450   7.621
30370WAT     H191352   8.374   2.478   7.632
30370WAT     H291353   8.521   2.524   7.578
30371WAT      O91354   0.768   4.808   4.697
30371WAT     H191355   0.832   4.875   4.734
30371WAT     H291356   0.799   4.778   4.607
30372WAT      O91357   7.472   4.625   8.386
30372WAT     H191358   7.553   4.566   8.381
30372WAT     H291359   7.484   4.691   8.460
30373WAT      O91360   4.218   6.645   9.705
30373WAT     H191361   4.237   6.601   9.794
30373WAT     H291362   4.169   6.730   9.720
30374WAT      O91363   1.414   3.551   3.130
30374WAT     H191364   1.385   3.617   3.060
30374WAT     H291365   1.373   3.576   3.218
30375WAT      O91366   1.895   0.589   5.691
30375WAT     H191367   1.850   0.676   5.674
30375WAT     H291368   1.993   0.605   5.708
30376WAT      O91369   2.981   9.491   4.625
30376WAT     H191370   3.032   9.576   4.613
30376WAT     H291371   3.031   9.431   4.688
30377WAT      O91372   6.509   3.550   4.399
30377WAT     H191373   6.554   3.559   4.488
30377WAT     H291374   6.427   3.494   4.409
30378WAT      O91375   7.876   8.777   5.137
30378WAT     H191376   7.968   8.810   5.158
30378WAT     H291377   7.855   8.796   5.041
30379WAT      O91378   9.877   5.347   4.711
30379WAT     H191379   9.919   5.267   4.668
30379WAT     H291380   9.788   5.322   4.748
30380WAT      O91381   4.936   1.892   7.400
30380WAT     H191382   4.892   1.967   7.449
30380WAT     H291383   4.869   1.845   7.344
30381WAT      O91384   9.538   3.783   5.413
30381WAT     H191385   9.633   3.793   5.441
30381WAT     H291386   9.492   3.872   5.417
30382WAT      O91387   2.659   6.754   9.433
30382WAT     H191388   2.563   6.724   9.439
30382WAT     H291389   2.664   6.853   9.450
30383WAT      O91390   3.143   2.821   6.852
30383WAT     H191391   3.152   2.770   6.938
30383WAT     H291392   3.188   2.910   6.860
30384WAT      O91393   4.877   2.118   4.490
30384WAT     H191394   4.820   2.088   4.414
30384WAT     H291395   4.968   2.140   4.457
30385WAT      O91396   5.397   9.658   8.534
30385WAT     H191397   5.459   9.604   8.592
30385WAT     H291398   5.398   9.622   8.441
30386WAT      O91399   0.496   9.047   1.375
30386WAT     H191400   0.484   9.146   1.362
30386WAT     H291401   0.590   9.021   1.352
30387WAT      O91402   2.072   3.984   5.229
30387WAT     H191403   2.095   4.050   5.301
30387WAT     H291404   1.973   3.983   5.215
30388WAT      O91405   3.164   4.046   0.253
30388WAT     H191406   3.185   4.036   0.156
30388WAT     H291407   3.067   4.064   0.265
30389WAT      O91408   5.467   7.427   3.657
30389WAT     H191409   5.512   7.394   3.573
30389WAT     H291410   5.502   7.376   3.735
30390WAT      O91411   6.457   7.565   2.258
30390WAT     H191412   6.373   7.527   2.297
30390WAT     H291413   6.529   7.566   2.327
30391WAT      O91414   2.546   4.412   1.455
30391WAT     H191415   2.494   4.335   1.493
30391WAT     H291416   2.518   4.427   1.360
30392WAT      O91417   2.779   7.435   4.796
30392WAT     H191418   2.721   7.381   4.735
30392WAT     H291419   2.729   7.516   4.827
30393WAT      O91420   7.457   3.162   1.559
30393WAT     H191421   7.415   3.191   1.473
30393WAT     H291422   7.544   3.210   1.571
30394WAT      O91423   5.649   6.302   1.788
30394WAT     H191424   5.722   6.341   1.731
30394WAT     H291425   5.656   6.202   1.788
30395WAT      O91426   5.677   5.009   2.053
30395WAT     H191427   5.595   5.048   2.096
30395WAT     H291428   5.758   5.054   2.091
30396WAT      O91429   3.032   8.359   9.651
30396WAT     H191430   3.009   8.264   9.671
30396WAT     H291431   2.999   8.382   9.559
30397WAT      O91432   8.679   1.763   2.220
30397WAT     H191433   8.669   1.863   2.212
30397WAT     H291434   8.774   1.738   2.205
30398WAT      O91435   8.243   2.396   1.804
30398WAT     H191436   8.175   2.416   1.733
30398WAT     H291437   8.197   2.357   1.884
30399WAT      O91438   5.957   8.369   1.983
30399WAT     H191439   5.952   8.445   1.918
30399WAT     H291440   5.867   8.354   2.024
30400WAT      O91441   3.706   6.125   0.248
30400WAT     H191442   3.613   6.092   0.263
30400WAT     H291443   3.706   6.196   0.178
30401WAT      O91444   7.969   0.091   0.510
30401WAT     H191445   7.981   0.012   0.450
30401WAT     H291446   7.875   0.092   0.546
30402WAT      O91447   6.750   9.778   5.943
30402WAT     H191448   6.665   9.830   5.940
30402WAT     H291449   6.772   9.755   6.038
30403WAT      O91450   7.249   8.159   0.092
30403WAT     H191451   7.276   8.255   0.086
30403WAT     H291452   7.228   8.124   0.001
30404WAT      O91453   9.535   5.750   9.225
30404WAT     H191454   9.468   5.696   9.275
30404WAT     H291455   9.592   5.801   9.289
30405WAT      O91456   7.565   5.234   4.556
30405WAT     H191457   7.484   5.181   4.531
30405WAT     H291458   7.541   5.300   4.627
30406WAT      O91459   5.952   1.514   4.580
30406WAT     H191460   5.930   1.448   4.509
30406WAT     H291461   5.964   1.467   4.667
30407WAT      O91462   4.475   9.068   8.597
30407WAT     H191463   4.455   8.988   8.540
30407WAT     H291464   4.558   9.113   8.565
30408WAT      O91465   4.954   9.730   5.759
30408WAT     H191466   4.969   9.680   5.844
30408WAT     H291467   4.989   9.823   5.768
30409WAT      O91468   0.781   7.633   6.636
30409WAT     H191469   0.742   7.542   6.622
30409WAT     H291470   0.847   7.653   6.563
30410WAT      O91471   5.943   9.664   7.521
30410WAT     H191472   6.025   9.719   7.505
30410WAT     H291473   5.890   9.658   7.436
30411WAT      O91474   1.615   1.923   0.156
30411WAT     H191475   1.546   1.981   0.113
30411WAT     H291476   1.656   1.972   0.233
30412WAT      O91477   2.606   8.126   3.990
30412WAT     H191478   2.516   8.090   4.015
30412WAT     H291479   2.594   8.212   3.941
30413WAT      O91480   7.516   4.941   5.202
30413WAT     H191481   7.499   5.012   5.271
30413WAT     H291482   7.606   4.957   5.161
30414WAT      O91483   7.493   3.922   2.903
30414WAT     H191484   7.400   3.900   2.933
30414WAT     H291485   7.554   3.846   2.925
30415WAT      O91486   2.444   6.583   9.478
30415WAT     H191487   2.453   6.518   9.402
30415WAT     H291488   2.367   6.556   9.535
30416WAT      O91489   9.479   8.310   2.013
30416WAT     H191490   9.414   8.244   1.975
30416WAT     H291491   9.571   8.291   1.979
30417WAT      O91492   2.080   3.839   2.481
30417WAT     H191493   2.138   3.903   2.430
30417WAT     H291494   2.057   3.762   2.423
30418WAT      O91495   3.023   5.744   8.733
30418WAT     H191496   2.960   5.671   8.760
30418WAT     H291497   3.082   5.710   8.659
30419WAT      O91498   8.294   9.110   8.934
30419WAT     H191499   8.216   9.131   8.992
30419WAT     H291500   8.361   9.057   8.986
30420WAT      O91501   1.184   8.478   1.331
30420WAT     H191502   1.183   8.567   1.376
30420WAT     H291503   1.102   8.426   1.356
30421WAT      O91504   6.328   1.616   3.429
30421WAT     H191505   6.281   1.531   3.452
30421WAT     H291506   6.376   1.649   3.510
30422WAT      O91507   7.317   7.584   9.694
30422WAT     H191508   7.393   7.565   9.632
30422WAT     H291509   7.340   7.551   9.786
30423WAT      O91510   4.219   4.865   7.741
30423WAT     H191511   4.293   4.814   7.784
30423WAT     H291512   4.256   4.924   7.669
30424WAT      O91513   1.395   8.948   1.933
30424WAT     H191514   1.408   8.916   2.026
30424WAT     H291515   1.441   9.036   1.922
30425WAT      O91516   5.446   4.850   4.858
30425WAT     H191517   5.457   4.868   4.955
30425WAT     H291518   5.380   4.776   4.845
30426WAT      O91519   7.469   5.068   4.877
30426WAT     H191520   7.430   5.087   4.966
30426WAT     H291521   7.417   4.994   4.833
30427WAT      O91522   7.414   0.625   1.049
30427WAT     H191523   7.382   0.547   0.994
30427WAT     H291524   7.436   0.702   0.989
30428WAT      O91525   1.865   1.101   6.847
30428WAT     H191526   1.786   1.040   6.835
30428WAT     H291527   1.918   1.104   6.762
30429WAT      O91528   6.082   5.282   7.094
30429WAT     H191529   6.150   5.216   7.126
30429WAT     H291530   6.128   5.351   7.038
30430WAT      O91531   0.703   2.608   7.260
30430WAT     H191532   0.613   2.650   7.272
30430WAT     H291533   0.767   2.644   7.328
30431WAT      O91534   3.176   4.177   0.532
30431WAT     H191535   3.115   4.098   0.541
30431WAT     H291536   3.213   4.180   0.439
30432WAT      O91537   6.202   2.670   3.880
30432WAT     H191538   6.273   2.665   3.809
30432WAT     H291539   6.233   2.620   3.961
30433WAT      O91540   5.197   1.648   7.413
30433WAT     H191541   5.237   1.587   7.481
30433WAT     H291542   5.119   1.696   7.453
30434WAT      O91543   2.666   7.296   1.847
30434WAT     H191544   2.753   7.283   1.800
30434WAT     H291545   2.682   7.308   1.945
30435WAT      O91546   1.036   1.406   2.684
30435WAT     H191547   0.988   1.318   2.675
30435WAT     H291548   1.064   1.419   2.779
30436WAT      O91549   2.319   6.485   0.287
30436WAT     H191550   2.367   6.563   0.329
30436WAT     H291551   2.251   6.450   0.351
30437WAT      O91552   9.356   5.951   4.402
30437WAT     H191553   9.358   5.863   4.449
30437WAT     H291554   9.388   5.939   4.308
30438WAT      O91555   6.613   7.103   7.533
30438WAT     H191556   6.647   7.126   7.441
30438WAT     H291557   6.586   7.186   7.580
30439WAT      O91558   3.415   3.600   2.512
30439WAT     H191559   3.329   3.612   2.463
30439WAT     H291560   3.443   3.504   2.507
30440WAT      O91561   3.294   4.687   3.807
30440WAT     H191562   3.247   4.754   3.749
30440WAT     H291563   3.301   4.600   3.758
30441WAT      O91564   3.799   0.380   3.296
30441WAT     H191565   3.714   0.360   3.345
30441WAT     H291566   3.778   0.400   3.201
30442WAT      O91567   1.608   3.700   3.691
30442WAT     H191568   1.650   3.612   3.711
30442WAT     H291569   1.532   3.687   3.628
30443WAT      O91570   5.407   7.691   5.972
30443WAT     H191571   5.388   7.744   5.890
30443WAT     H291572   5.431   7.752   6.047
30444WAT      O91573   1.813   2.742   2.874
30444WAT     H191574   1.899   2.782   2.843
30444WAT     H291575   1.736   2.791   2.833
30445WAT      O91576   0.418   6.149   7.512
30445WAT     H191577   0.430   6.185   7.605
30445WAT     H291578   0.504   6.109   7.481
30446WAT      O91579   8.743   1.698   6.832
30446WAT     H191580   8.721   1.685   6.735
30446WAT     H291581   8.832   1.657   6.852
30447WAT      O91582   1.789   4.510   9.445
30447WAT     H191583   1.808   4.571   9.368
30447WAT     H291584   1.744   4.427   9.412
30448WAT      O91585   5.202   6.320   0.683
30448WAT     H191586   5.251   6.338   0.597
30448WAT     H291587   5.106   6.343   0.671
30449WAT      O91588   9.031   7.064   4.130
30449WAT     H191589   9.072   7.153   4.149
30449WAT     H291590   9.075   6.994   4.186
30450WAT      O91591   3.041   3.978   8.743
30450WAT     H191592   3.079   4.027   8.822
30450WAT     H291593   3.114   3.964   8.676
30451WAT      O91594   7.797   3.742   5.530
30451WAT     H191595   7.824   3.714   5.622
30451WAT     H291596   7.733   3.819   5.537
30452WAT      O91597   2.974   7.544   3.348
30452WAT     H191598   2.960   7.525   3.445
30452WAT     H291599   3.017   7.635   3.338
30453WAT      O91600   7.339   4.850   2.062
30453WAT     H191601   7.293   4.803   1.986
30453WAT     H291602   7.305   4.814   2.149
30454WAT      O91603   8.249   4.896   8.934
30454WAT     H191604   8.334   4.945   8.954
30454WAT     H291605   8.208   4.933   8.851
30455WAT      O91606   1.006   9.070   0.817
30455WAT     H191607   0.960   9.137   0.760
30455WAT     H291608   1.079   9.114   0.869
30456WAT      O91609   4.826   2.406   6.085
30456WAT     H191610   4.777   2.469   6.025
30456WAT     H291611   4.924   2.416   6.071
30457WAT      O91612   6.671   1.442   9.540
30457WAT     H191613   6.719   1.530   9.541
30457WAT     H291614   6.731   1.371   9.576
30458WAT      O91615   6.332   7.784   2.096
30458WAT     H191616   6.387   7.752   2.173
30458WAT     H291617   6.273   7.860   2.127
30459WAT      O91618   3.262   7.058   5.660
30459WAT     H191619   3.195   7.043   5.586
30459WAT     H291620   3.329   7.126   5.630
30460WAT      O91621   8.452   3.098   0.427
30460WAT     H191622   8.449   3.166   0.354
30460WAT     H291623   8.507   3.020   0.396
30461WAT      O91624   7.873   2.046   1.403
30461WAT     H191625   7.925   2.111   1.459
30461WAT     H291626   7.818   2.096   1.337
30462WAT      O91627   5.597   6.356   2.040
30462WAT     H191628   5.516   6.299   2.055
30462WAT     H291629   5.623   6.353   1.944
30463WAT      O91630   6.708   6.321   1.600
30463WAT     H191631   6.766   6.249   1.562
30463WAT     H291632   6.612   6.298   1.583
30464WAT      O91633   2.343   6.547   5.483
30464WAT     H191634   2.356   6.526   5.580
30464WAT     H291635   2.396   6.482   5.428
30465WAT      O91636   9.113   4.202   4.674
30465WAT     H191637   9.156   4.281   4.719
30465WAT     H291638   9.014   4.208   4.684
30466WAT      O91639   7.308   1.615   8.592
30466WAT     H191640   7.339   1.675   8.665
30466WAT     H291641   7.242   1.662   8.534
30467WAT      O91642   3.300   6.840   0.442
30467WAT     H191643   3.364   6.900   0.489
30467WAT     H291644   3.232   6.806   0.508
30468WAT      O91645   5.973   5.923   6.406
30468WAT     H191646   5.920   5.967   6.478
30468WAT     H291647   6.018   5.841   6.442
30469WAT      O91648   5.188   7.388   9.676
30469WAT     H191649   5.159   7.293   9.685
30469WAT     H291650   5.288   7.392   9.678
30470WAT      O91651   7.831   6.164   0.221
30470WAT     H191652   7.805   6.250   0.177
30470WAT     H291653   7.784   6.156   0.309
30471WAT      O91654   1.908   0.915   4.716
30471WAT     H191655   1.898   0.990   4.781
30471WAT     H291656   1.835   0.919   4.649
30472WAT      O91657   8.686   2.370   4.685
30472WAT     H191658   8.694   2.270   4.686
30472WAT     H291659   8.639   2.399   4.601
30473WAT      O91660   0.678   7.097   0.310
30473WAT     H191661   0.636   7.177   0.266
30473WAT     H291662   0.630   7.077   0.395
30474WAT      O91663   4.296   9.246   6.678
30474WAT     H191664   4.234   9.170   6.660
30474WAT     H291665   4.335   9.279   6.592
30475WAT      O91666   5.573   0.461   5.092
30475WAT     H191667   5.668   0.437   5.112
30475WAT     H291668   5.521   0.377   5.076
30476WAT      O91669   8.107   8.929   4.027
30476WAT     H191670   8.139   9.011   4.075
30476WAT     H291671   8.089   8.856   4.093
30477WAT      O91672   0.479   7.127   9.094
30477WAT     H191673   0.416   7.054   9.119
30477WAT     H291674   0.508   7.115   8.999
30478WAT      O91675   5.046   3.794   9.786
30478WAT     H191676   5.127   3.787   9.726
30478WAT     H291677   4.990   3.871   9.757
30479WAT      O91678   2.583   5.862   7.678
30479WAT     H191679   2.519   5.931   7.711
30479WAT     H291680   2.592   5.790   7.746
30480WAT      O91681   2.668   7.287   8.347
30480WAT     H191682   2.760   7.261   8.375
30480WAT     H291683   2.673   7.358   8.277
30481WAT      O91684   4.597   9.373   3.787
30481WAT     H191685   4.693   9.371   3.756
30481WAT     H291686   4.552   9.453   3.747
30482WAT      O91687   4.626   9.114   9.296
30482WAT     H191688   4.702   9.078   9.242
30482WAT     H291689   4.597   9.046   9.363
30483WAT      O91690   9.809   6.777   2.894
30483WAT     H191691   9.897   6.797   2.935
30483WAT     H291692   9.738   6.832   2.938
30484WAT      O91693   3.629   0.514   4.001
30484WAT     H191694   3.690   0.592   4.017
30484WAT     H291695   3.574   0.498   4.083
30485WAT      O91696   6.875   0.618   4.717
30485WAT     H191697   6.835   0.633   4.626
30485WAT     H291698   6.974   0.636   4.713
30486WAT      O91699   4.939   6.682   8.476
30486WAT     H191700   4.959   6.685   8.574
30486WAT     H291701   4.973   6.596   8.438
30487WAT      O91702   1.546   1.310   1.428
30487WAT     H191703   1.485   1.389   1.440
30487WAT     H291704   1.494   1.226   1.441
30488WAT      O91705   2.317   7.597   5.995
30488WAT     H191706   2.300   7.695   5.995
30488WAT     H291707   2.264   7.554   6.068
30489WAT      O91708   7.457   2.481   1.036
30489WAT     H191709   7.472   2.545   1.111
30489WAT     H291710   7.542   2.470   0.984
30490WAT      O91711   1.414   0.086   1.184
30490WAT     H191712   1.318   0.060   1.184
30490WAT     H291713   1.463   0.033   1.115
30491WAT      O91714   0.528   2.926   4.706
30491WAT     H191715   0.569   2.843   4.668
30491WAT     H291716   0.444   2.903   4.754
30492WAT      O91717   7.966   7.823   2.993
30492WAT     H191718   7.980   7.871   3.079
30492WAT     H291719   8.015   7.870   2.920
30493WAT      O91720   1.279   9.164   0.963
30493WAT     H191721   1.291   9.248   0.911
30493WAT     H291722   1.216   9.181   1.040
30494WAT      O91723   7.368   5.715   4.795
30494WAT     H191724   7.361   5.809   4.762
30494WAT     H291725   7.456   5.702   4.842
30495WAT      O91726   6.521   0.819   6.066
30495WAT     H191727   6.469   0.756   6.125
30495WAT     H291728   6.462   0.896   6.041
30496WAT      O91729   7.687   7.272   4.668
30496WAT     H191730   7.649   7.245   4.579
30496WAT     H291731   7.726   7.192   4.713
30497WAT      O91732   4.921   7.192   3.121
30497WAT     H191733   4.972   7.133   3.060
30497WAT     H291734   4.955   7.286   3.114
30498WAT      O91735   0.496   2.433   9.377
30498WAT     H191736   0.470   2.451   9.472
30498WAT     H291737   0.436   2.363   9.338
30499WAT      O91738   4.804   9.675   3.483
30499WAT     H191739   4.837   9.666   3.577
30499WAT     H291740   4.773   9.769   3.468
30500WAT      O91741   1.397   1.996   4.822
30500WAT     H191742   1.340   2.079   4.824
30500WAT     H291743   1.352   1.924   4.874
30501WAT      O91744   4.221   4.016   7.323
30501WAT     H191745   4.150   3.949   7.348
30501WAT     H291746   4.180   4.088   7.266
30502WAT      O91747   4.783   6.697   1.291
30502WAT     H191748   4.734   6.744   1.218
30502WAT     H291749   4.845   6.630   1.252
30503WAT      O91750   1.812   3.840   1.604
30503WAT     H191751   1.817   3.939   1.590
30503WAT     H291752   1.883   3.795   1.550
30504WAT      O91753   2.678   8.893   8.850
30504WAT     H191754   2.649   8.798   8.843
30504WAT     H291755   2.718   8.923   8.763
30505WAT      O91756   0.590   4.856   5.498
30505WAT     H191757   0.589   4.949   5.534
30505WAT     H291758   0.581   4.859   5.398
30506WAT      O91759   3.236   1.357   2.848
30506WAT     H191760   3.179   1.277   2.868
30506WAT     H291761   3.296   1.376   2.926
30507WAT      O91762   4.066   5.470   3.617
30507WAT     H191763   4.150   5.423   3.590
30507WAT     H291764   4.008   5.482   3.537
30508WAT      O91765   4.742   1.293   1.568
30508WAT     H191766   4.702   1.201   1.564
30508WAT     H291767   4.718   1.336   1.655
30509WAT      O91768   6.703   6.101   9.106
30509WAT     H191769   6.686   6.142   9.196
30509WAT     H291770   6.701   6.172   9.036
30510WAT      O91771   0.064   7.355   6.763
30510WAT     H191772   0.128   7.339   6.839
30510WAT     H291773   0.082   7.289   6.690
30511WAT      O91774   8.890   5.802   5.307
30511WAT     H191775   8.901   5.884   5.252
30511WAT     H291776   8.976   5.780   5.352
30512WAT      O91777   8.656   4.574   7.019
30512WAT     H191778   8.704   4.488   7.034
30512WAT     H291779   8.701   4.625   6.945
30513WAT      O91780   2.806   4.277   5.919
30513WAT     H191781   2.763   4.366   5.908
30513WAT     H291782   2.881   4.284   5.984
30514WAT      O91783   9.586   8.437   6.869
30514WAT     H191784   9.554   8.450   6.775
30514WAT     H291785   9.515   8.391   6.922
30515WAT      O91786   0.090   3.149   6.426
30515WAT     H191787   0.128   3.106   6.507
30515WAT     H291788  -0.001   3.111   6.407
30516WAT      O91789   4.108   7.563   2.633
30516WAT     H191790   4.025   7.557   2.689
30516WAT     H291791   4.083   7.572   2.537
30517WAT      O91792   9.807   6.936   8.458
30517WAT     H191793   9.710   6.954   8.478
30517WAT     H291794   9.825   6.953   8.362
30518WAT      O91795   3.920   3.149   9.391
30518WAT     H191796   3.917   3.126   9.489
30518WAT     H291797   3.835   3.119   9.348
30519WAT      O91798   5.710   5.095   4.244
30519WAT     H191799   5.805   5.109   4.218
30519WAT     H291800   5.683   5.163   4.312
30520WAT      O91801   5.852   2.448   3.627
30520WAT     H191802   5.916   2.371   3.617
30520WAT     H291803   5.903   2.529   3.655
30521WAT      O91804   6.618   6.076   3.378
30521WAT     H191805   6.619   6.162   3.326
30521WAT     H291806   6.566   6.007   3.327
30522WAT      O91807   8.113   1.659   2.692
30522WAT     H191808   8.169   1.593   2.642
30522WAT     H291809   8.101   1.627   2.786
30523WAT      O91810   1.762   2.360   1.378
30523WAT     H191811   1.773   2.453   1.411
30523WAT     H291812   1.832   2.340   1.310
30524WAT      O91813   5.984   4.776   5.253
30524WAT     H191814   5.940   4.804   5.338
30524WAT     H291815   6.076   4.742   5.273
30525WAT      O91816   9.413   6.464   2.408
30525WAT     H191817   9.327   6.448   2.457
30525WAT     H291818   9.418   6.560   2.380
30526WAT      O91819   5.388   6.569   8.317
30526WAT     H191820   5.480   6.530   8.310
30526WAT     H291821   5.387   6.640   8.387
30527WAT      O91822   7.015   0.362   1.993
30527WAT     H191823   7.042   0.448   1.949
30527WAT     H291824   7.095   0.319   2.034
30528WAT      O91825   9.578   4.845   4.046
30528WAT     H191826   9.609   4.767   4.101
30528WAT     H291827   9.479   4.841   4.036
30529WAT      O91828   9.220   1.897   1.438
30529WAT     H191829   9.216   1.988   1.398
30529WAT     H291830   9.213   1.903   1.538
30530WAT      O91831   1.572   3.120   6.185
30530WAT     H191832   1.510   3.191   6.218
30530WAT     H291833   1.667   3.152   6.191
30531WAT      O91834   4.405   2.419   3.389
30531WAT     H191835   4.479   2.432   3.454
30531WAT     H291836   4.350   2.340   3.415
30532WAT      O91837   2.846   6.369   9.345
30532WAT     H191838   2.929   6.316   9.367
30532WAT     H291839   2.766   6.310   9.353
30533WAT      O91840   7.518   1.681   2.966
30533WAT     H191841   7.546   1.601   3.018
30533WAT     H291842   7.463   1.651   2.888
30534WAT      O91843   9.812   2.297   9.452
30534WAT     H191844   9.883   2.366   9.466
30534WAT     H291845   9.723   2.333   9.479
30535WAT      O91846   1.613   3.691   5.495
30535WAT     H191847   1.566   3.613   5.453
30535WAT     H291848   1.601   3.688   5.594
30536WAT      O91849   9.767   5.547   4.082
30536WAT     H191850   9.672   5.528   4.107
30536WAT     H291851   9.815   5.461   4.069
30537WAT      O91852   3.847   7.651   1.029
30537WAT     H191853   3.874   7.732   1.081
30537WAT     H291854   3.789   7.593   1.086
30538WAT      O91855   4.268   0.369   8.575
30538WAT     H191856   4.305   0.454   8.613
30538WAT     H291857   4.184   0.344   8.623
30539WAT      O91858   2.792   5.917   4.373
30539WAT     H191859   2.882   5.888   4.406
30539WAT     H291860   2.778   6.013   4.398
30540WAT      O91861   7.155   7.812   7.001
30540WAT     H191862   7.245   7.815   7.045
30540WAT     H291863   7.104   7.734   7.037
30541WAT      O91864   3.079   2.269   0.500
30541WAT     H191865   3.177   2.280   0.482
30541WAT     H291866   3.054   2.173   0.493
30542WAT      O91867   0.106   6.979   9.694
30542WAT     H191868   0.165   7.020   9.763
30542WAT     H291869   0.024   7.035   9.683
30543WAT      O91870   2.449   7.188   5.378
30543WAT     H191871   2.379   7.231   5.436
30543WAT     H291872   2.414   7.101   5.342
30544WAT      O91873   5.084   8.573   5.141
30544WAT     H191874   5.079   8.551   5.238
30544WAT     H291875   5.011   8.638   5.118
30545WAT      O91876   5.478   8.415   7.644
30545WAT     H191877   5.391   8.393   7.688
30545WAT     H291878   5.470   8.501   7.594
30546WAT      O91879   0.421   1.030   4.152
30546WAT     H191880   0.490   1.086   4.107
30546WAT     H291881   0.461   0.940   4.174
30547WAT      O91882   2.403   0.657   2.288
30547WAT     H191883   2.341   0.655   2.367
30547WAT     H291884   2.483   0.601   2.308
30548WAT      O91885   5.892   4.562   6.258
30548WAT     H191886   5.842   4.610   6.186
30548WAT     H291887   5.990   4.566   6.239
30549WAT      O91888   2.630   7.769   8.463
30549WAT     H191889   2.659   7.717   8.543
30549WAT     H291890   2.705   7.826   8.430
30550WAT      O91891   9.234   8.767   6.307
30550WAT     H191892   9.214   8.670   6.297
30550WAT     H291893   9.150   8.821   6.299
30551WAT      O91894   2.737   8.585   3.170
30551WAT     H191895   2.834   8.575   3.148
30551WAT     H291896   2.684   8.519   3.117
30552WAT      O91897   4.014   5.083   1.809
30552WAT     H191898   3.993   5.146   1.883
30552WAT     H291899   4.107   5.047   1.821
30553WAT      O91900   6.151   9.322   1.696
30553WAT     H191901   6.076   9.257   1.691
30553WAT     H291902   6.155   9.376   1.612
30554WAT      O91903   2.415   4.095   4.887
30554WAT     H191904   2.372   4.185   4.889
30554WAT     H291905   2.465   4.084   4.802
30555WAT      O91906   8.656   7.301   4.326
30555WAT     H191907   8.618   7.211   4.346
30555WAT     H291908   8.584   7.361   4.292
30556WAT      O91909   9.475   7.487   3.879
30556WAT     H191910   9.489   7.416   3.949
30556WAT     H291911   9.380   7.518   3.882
30557WAT      O91912   8.420   9.565   8.609
30557WAT     H191913   8.401   9.506   8.688
30557WAT     H291914   8.516   9.591   8.609
30558WAT      O91915   2.819   4.478   6.400
30558WAT     H191916   2.736   4.422   6.401
30558WAT     H291917   2.798   4.569   6.435
30559WAT      O91918   9.514   7.352   4.774
30559WAT     H191919   9.535   7.273   4.716
30559WAT     H291920   9.596   7.407   4.786
30560WAT      O91921   3.958   6.956   7.012
30560WAT     H191922   4.044   6.995   7.044
30560WAT     H291923   3.970   6.858   6.995
30561WAT      O91924   6.565   6.451   1.044
30561WAT     H191925   6.565   6.496   1.134
30561WAT     H291926   6.614   6.364   1.051
30562WAT      O91927   2.699   4.671   6.568
30562WAT     H191928   2.742   4.652   6.656
30562WAT     H291929   2.600   4.669   6.578
30563WAT      O91930   4.793   7.118   4.381
30563WAT     H191931   4.812   7.155   4.472
30563WAT     H291932   4.703   7.149   4.350
30564WAT      O91933   4.888   3.385   2.994
30564WAT     H191934   4.789   3.382   3.001
30564WAT     H291935   4.914   3.431   2.909
30565WAT      O91936   2.485   1.139   8.636
30565WAT     H191937   2.480   1.239   8.635
30565WAT     H291938   2.512   1.105   8.546
30566WAT      O91939   7.440   1.959   3.642
30566WAT     H191940   7.340   1.952   3.646
30566WAT     H291941   7.481   1.884   3.693
30567WAT      O91942   4.341   6.964   8.122
30567WAT     H191943   4.273   6.900   8.158
30567WAT     H291944   4.430   6.917   8.114
30568WAT      O91945   1.884   4.914   1.988
30568WAT     H191946   1.857   4.825   1.952
30568WAT     H291947   1.818   4.944   2.057
30569WAT      O91948   8.203   0.169   2.088
30569WAT     H191949   8.172   0.245   2.145
30569WAT     H291950   8.141   0.159   2.010
30570WAT      O91951   0.926   2.805   5.749
30570WAT     H191952   0.979   2.866   5.808
30570WAT     H291953   0.983   2.775   5.673
30571WAT      O91954   4.667   9.335   9.647
30571WAT     H191955   4.705   9.243   9.655
30571WAT     H291956   4.727   9.400   9.693
30572WAT      O91957   9.041   3.828   9.558
30572WAT     H191958   9.038   3.728   9.563
30572WAT     H291959   9.134   3.858   9.539
30573WAT      O91960   3.788   7.504   1.511
30573WAT     H191961   3.851   7.519   1.435
30573WAT     H291962   3.825   7.433   1.571
30574WAT      O91963   5.225   7.388   6.938
30574WAT     H191964   5.173   7.404   6.854
30574WAT     H291965   5.218   7.469   6.997
30575WAT      O91966   3.113   4.381   6.429
30575WAT     H191967   3.062   4.418   6.351
30575WAT     H291968   3.152   4.293   6.404
30576WAT      O91969   0.704   4.399   2.515
30576WAT     H191970   0.787   4.454   2.522
30576WAT     H291971   0.697   4.359   2.424
30577WAT      O91972   2.584   4.529   0.929
30577WAT     H191973   2.674   4.486   0.918
30577WAT     H291974   2.513   4.465   0.898
30578WAT      O91975   6.438   5.890   4.495
30578WAT     H191976   6.380   5.928   4.422
30578WAT     H291977   6.431   5.948   4.576
30579WAT      O91978   1.000   5.175   8.810
30579WAT     H191979   0.973   5.200   8.717
30579WAT     H291980   0.988   5.077   8.823
30580WAT      O91981   8.217   2.689   1.443
30580WAT     H191982   8.292   2.725   1.388
30580WAT     H291983   8.189   2.600   1.407
30581WAT      O91984   7.330   8.772   8.784
30581WAT     H191985   7.311   8.870   8.775
30581WAT     H291986   7.253   8.720   8.749
30582WAT      O91987   3.771   2.392   6.445
30582WAT     H191988   3.790   2.484   6.480
30582WAT     H291989   3.849   2.333   6.462
30583WAT      O91990   3.851   6.084   4.287
30583WAT     H191991   3.884   6.026   4.361
30583WAT     H291992   3.783   6.148   4.322
30584WAT      O91993   5.418   2.186   6.236
30584WAT     H191994   5.449   2.164   6.328
30584WAT     H291995   5.424   2.285   6.221
30585WAT      O91996   6.575   7.634   0.901
30585WAT     H191997   6.664   7.630   0.857
30585WAT     H291998   6.533   7.543   0.900
30586WAT      O91999   0.081   4.158   3.881
30586WAT     H192000   0.141   4.085   3.915
30586WAT     H292001   0.136   4.230   3.839
30587WAT      O92002   2.229   7.722   3.795
30587WAT     H192003   2.194   7.762   3.711
30587WAT     H292004   2.189   7.631   3.808
30588WAT      O92005   2.772   4.582   3.378
30588WAT     H192006   2.825   4.532   3.447
30588WAT     H292007   2.694   4.527   3.350
30589WAT      O92008   3.229   7.997   7.348
30589WAT     H192009   3.320   8.018   7.385
30589WAT     H292010   3.229   7.904   7.312
30590WAT      O92011   9.863   9.518   2.277
30590WAT     H192012   9.816   9.599   2.242
30590WAT     H292013   9.958   9.519   2.248
30591WAT      O92014   3.285   5.982   2.755
30591WAT     H192015   3.232   6.021   2.679
30591WAT     H292016   3.278   5.882   2.753
30592WAT      O92017   7.848   6.505   9.067
30592WAT     H192018   7.760   6.461   9.088
30592WAT     H292019   7.832   6.584   9.007
30593WAT      O92020   4.704   9.693   0.738
30593WAT     H192021   4.668   9.646   0.657
30593WAT     H292022   4.643   9.678   0.815
30594WAT      O92023   6.116   1.678   3.256
30594WAT     H192024   6.172   1.668   3.339
30594WAT     H292025   6.133   1.600   3.196
30595WAT      O92026   5.831   6.981   8.708
30595WAT     H192027   5.930   6.987   8.699
30595WAT     H292028   5.806   6.896   8.753
30596WAT      O92029   8.272   8.991   6.962
30596WAT     H192030   8.181   9.017   6.928
30596WAT     H292031   8.296   9.049   7.040
30597WAT      O92032   7.779   0.870   8.042
30597WAT     H192033   7.820   0.957   8.014
30597WAT     H292034   7.723   0.834   7.968
30598WAT      O92035   8.201   0.928   2.752
30598WAT     H192036   8.139   0.852   2.728
30598WAT     H292037   8.150   1.014   2.750
30599WAT      O92038   9.031   3.838   8.619
30599WAT     H192039   9.073   3.772   8.681
30599WAT     H292040   8.973   3.901   8.671
30600WAT      O92041   8.060   6.755   7.433
30600WAT     H192042   8.018   6.767   7.523
30600WAT     H292043   8.159   6.750   7.442
30601WAT      O92044   6.297   2.580   5.150
30601WAT     H192045   6.205   2.542   5.160
30601WAT     H292046   6.350   2.525   5.085
30602WAT      O92047   7.748   7.347   2.859
30602WAT     H192048   7.769   7.435   2.814
30602WAT     H292049   7.825   7.321   2.918
30603WAT      O92050   1.026   9.436   6.565
30603WAT     H192051   1.099   9.480   6.512
30603WAT     H292052   1.031   9.465   6.660
30604WAT      O92053   1.143   4.765   6.098
30604WAT     H192054   1.103   4.832   6.160
30604WAT     H292055   1.137   4.674   6.139
30605WAT      O92056   1.042   5.494   7.401
30605WAT     H192057   0.970   5.426   7.390
30605WAT     H292058   1.074   5.524   7.312
30606WAT      O92059   1.187   9.129   5.895
30606WAT     H192060   1.225   9.216   5.863
30606WAT     H292061   1.088   9.139   5.910
30607WAT      O92062   4.705   5.802   6.401
30607WAT     H192063   4.772   5.849   6.459
30607WAT     H292064   4.705   5.705   6.425
30608WAT      O92065   5.248   9.616   6.976
30608WAT     H192066   5.298   9.680   6.918
30608WAT     H292067   5.200   9.549   6.919
30609WAT      O92068   2.627   4.324   8.982
30609WAT     H192069   2.683   4.278   9.051
30609WAT     H292070   2.537   4.345   9.020
30610WAT      O92071   8.534   9.106   3.503
30610WAT     H192072   8.490   9.040   3.442
30610WAT     H292073   8.582   9.058   3.576
30611WAT      O92074   6.081   8.295   1.218
30611WAT     H192075   6.084   8.390   1.250
30611WAT     H292076   6.174   8.258   1.216
30612WAT      O92077   9.187   2.307   1.914
30612WAT     H192078   9.221   2.218   1.943
30612WAT     H292079   9.262   2.361   1.877
30613WAT      O92080   9.704   9.305   6.025
30613WAT     H192081   9.634   9.367   5.987
30613WAT     H292082   9.779   9.359   6.062
30614WAT      O92083   6.121   8.123   6.873
30614WAT     H192084   6.089   8.029   6.885
30614WAT     H292085   6.044   8.183   6.852
30615WAT      O92086   4.586   3.853   3.665
30615WAT     H192087   4.615   3.816   3.577
30615WAT     H292088   4.492   3.825   3.685
30616WAT      O92089   0.212   5.327   6.777
30616WAT     H192090   0.220   5.305   6.679
30616WAT     H292091   0.200   5.242   6.829
30617WAT      O92092   5.548   6.828   1.577
30617WAT     H192093   5.462   6.810   1.624
30617WAT     H292094   5.541   6.796   1.482
30618WAT      O92095   4.285   8.296   8.300
30618WAT     H192096   4.343   8.359   8.353
30618WAT     H292097   4.238   8.234   8.363
30619WAT      O92098   8.480   1.806   1.685
30619WAT     H192099   8.382   1.790   1.672
30619WAT     H292100   8.508   1.885   1.630
30620WAT      O92101   5.878   8.924   1.694
30620WAT     H192102   5.925   8.932   1.782
30620WAT     H292103   5.836   9.012   1.671
30621WAT      O92104   8.837   0.825   7.593
30621WAT     H192105   8.760   0.763   7.605
30621WAT     H292106   8.807   0.919   7.606
30622WAT      O92107   6.304   5.857   7.458
30622WAT     H192108   6.208   5.830   7.462
30622WAT     H292109   6.322   5.927   7.527
30623WAT      O92110   5.548   1.395   0.911
30623WAT     H192111   5.597   1.312   0.884
30623WAT     H292112   5.604   1.475   0.891
30624WAT      O92113   7.275   4.400   6.106
30624WAT     H192114   7.281   4.360   6.197
30624WAT     H292115   7.361   4.446   6.084
30625WAT      O92116   8.106   3.543   8.915
30625WAT     H192117   8.010   3.566   8.899
30625WAT     H292118   8.138   3.588   8.998
30626WAT      O92119   6.686   5.012   3.536
30626WAT     H192120   6.649   4.921   3.559
30626WAT     H292121   6.751   5.004   3.461
30627WAT      O92122   9.459   3.622   8.330
30627WAT     H192123   9.368   3.662   8.338
30627WAT     H292124   9.452   3.522   8.336
30628WAT      O92125   2.249   1.978   6.705
30628WAT     H192126   2.174   1.916   6.730
30628WAT     H292127   2.227   2.024   6.620
30629WAT      O92128   9.040   6.749   2.831
30629WAT     H192129   8.958   6.767   2.885
30629WAT     H292130   9.017   6.744   2.734
30630WAT      O92131   5.391   4.517   2.376
30630WAT     H192132   5.292   4.506   2.384
30630WAT     H292133   5.427   4.557   2.460
30631WAT      O92134   4.681   8.760   2.421
30631WAT     H192135   4.618   8.684   2.439
30631WAT     H292136   4.692   8.772   2.322
30632WAT      O92137   2.229   0.243   5.667
30632WAT     H192138   2.201   0.161   5.618
30632WAT     H292139   2.310   0.222   5.723
30633WAT      O92140   2.746   5.835   5.175
30633WAT     H192141   2.807   5.839   5.254
30633WAT     H292142   2.708   5.742   5.167
30634WAT      O92143   1.246   0.824   5.446
30634WAT     H192144   1.172   0.890   5.456
30634WAT     H292145   1.219   0.737   5.487
30635WAT      O92146   7.098   9.662   5.652
30635WAT     H192147   7.018   9.721   5.638
30635WAT     H292148   7.181   9.713   5.633
30636WAT      O92149   9.122   7.733   2.114
30636WAT     H192150   9.200   7.713   2.172
30636WAT     H292151   9.051   7.779   2.168
30637WAT      O92152   1.245   4.533   1.629
30637WAT     H192153   1.252   4.631   1.647
30637WAT     H292154   1.149   4.507   1.624
30638WAT      O92155   7.207   0.058   5.556
30638WAT     H192156   7.288   0.053   5.497
30638WAT     H292157   7.145   0.128   5.523
30639WAT      O92158   2.018   6.738   2.642
30639WAT     H192159   2.108   6.694   2.637
30639WAT     H292160   1.998   6.763   2.737
30640WAT      O92161   3.414   0.158   9.008
30640WAT     H192162   3.405   0.084   8.940
30640WAT     H292163   3.375   0.128   9.095
30641WAT      O92164   3.557   7.748   9.752
30641WAT     H192165   3.587   7.829   9.803
30641WAT     H292166   3.461   7.760   9.725
30642WAT      O92167   5.346   2.646   4.931
30642WAT     H192168   5.346   2.551   4.961
30642WAT     H292169   5.321   2.650   4.834
30643WAT      O92170   9.814   4.406   8.642
30643WAT     H192171   9.869   4.375   8.719
30643WAT     H292172   9.782   4.499   8.660
30644WAT      O92173   3.439   9.140   5.330
30644WAT     H192174   3.533   9.115   5.353
30644WAT     H292175   3.439   9.195   5.246
30645WAT      O92176   9.184   1.529   3.927
30645WAT     H192177   9.092   1.492   3.942
30645WAT     H292178   9.242   1.458   3.888
30646WAT      O92179   9.232   7.439   7.078
30646WAT     H192180   9.283   7.484   7.004
30646WAT     H292181   9.232   7.340   7.063
30647WAT      O92182   4.312   6.422   3.153
30647WAT     H192183   4.264   6.496   3.200
30647WAT     H292184   4.337   6.451   3.061
30648WAT      O92185   1.302   3.357   0.506
30648WAT     H192186   1.316   3.456   0.502
30648WAT     H292187   1.380   3.314   0.552
30649WAT      O92188   5.465   1.852   1.739
30649WAT     H192189   5.424   1.910   1.810
30649WAT     H292190   5.392   1.815   1.681
30650WAT      O92191   4.425   1.983   7.614
30650WAT     H192192   4.524   1.973   7.628
30650WAT     H292193   4.402   2.081   7.608
30651WAT      O92194   0.664   8.458   4.616
30651WAT     H192195   0.690   8.514   4.537
30651WAT     H292196   0.710   8.370   4.611
30652WAT      O92197   4.286   3.462   9.787
30652WAT     H192198   4.253   3.410   9.865
30652WAT     H292199   4.386   3.460   9.785
30653WAT      O92200   5.949   8.288   0.008
30653WAT     H192201   5.990   8.352   0.072
30653WAT     H292202   5.850   8.295   0.012
30654WAT      O92203   5.105   2.483   4.102
30654WAT     H192204   5.075   2.389   4.085
30654WAT     H292205   5.048   2.546   4.049
30655WAT      O92206   8.270   8.706   0.269
30655WAT     H192207   8.183   8.674   0.234
30655WAT     H292208   8.340   8.700   0.198
30656WAT      O92209   8.934   1.015   6.421
30656WAT     H192210   8.839   1.045   6.435
30656WAT     H292211   8.963   1.039   6.328
30657WAT      O92212   2.390   1.709   6.714
30657WAT     H192213   2.403   1.728   6.616
30657WAT     H292214   2.400   1.793   6.766
30658WAT      O92215   4.556   7.330   7.419
30658WAT     H192216   4.469   7.372   7.445
30658WAT     H292217   4.578   7.354   7.325
30659WAT      O92218   1.678   2.108   4.878
30659WAT     H192219   1.703   2.204   4.880
30659WAT     H292220   1.579   2.098   4.879
30660WAT      O92221   1.758   1.333   4.615
30660WAT     H192222   1.699   1.414   4.607
30660WAT     H292223   1.751   1.279   4.532
30661WAT      O92224   2.623   0.915   7.098
30661WAT     H192225   2.681   0.995   7.112
30661WAT     H292226   2.671   0.850   7.038
30662WAT      O92227   4.026   4.627   3.453
30662WAT     H192228   4.126   4.622   3.460
30662WAT     H292229   4.002   4.679   3.370
30663WAT      O92230   5.097   1.718   6.934
30663WAT     H192231   5.082   1.643   6.870
30663WAT     H292232   5.041   1.797   6.907
30664WAT      O92233   0.124   9.786   6.924
30664WAT     H192234   0.043   9.778   6.981
30664WAT     H292235   0.205   9.759   6.976
30665WAT      O92236   0.051   0.268   0.064
30665WAT     H192237  -0.038   0.313   0.061
30665WAT     H292238   0.084   0.264   0.158
30666WAT      O92239   5.791   6.988   7.838
30666WAT     H192240   5.842   6.983   7.752
30666WAT     H292241   5.854   7.006   7.913
30667WAT      O92242   0.942   0.289   9.172
30667WAT     H192243   0.893   0.366   9.131
30667WAT     H292244   0.902   0.203   9.141
30668WAT      O92245   9.726   2.422   4.842
30668WAT     H192246   9.822   2.425   4.817
30668WAT     H292247   9.687   2.333   4.818
30669WAT      O92248   1.337   2.882   8.273
30669WAT     H192249   1.348   2.869   8.175
30669WAT     H292250   1.241   2.874   8.298
30670WAT      O92251   9.816   5.990   2.554
30670WAT     H192252   9.812   5.921   2.626
30670WAT     H292253   9.772   6.074   2.585
30671WAT      O92254   2.497   7.455   9.759
30671WAT     H192255   2.589   7.467   9.795
30671WAT     H292256   2.433   7.515   9.807
30672WAT      O92257   9.694   9.147   7.303
30672WAT     H192258   9.709   9.086   7.381
30672WAT     H292259   9.610   9.120   7.256
30673WAT      O92260   5.241   8.221   5.447
30673WAT     H192261   5.211   8.314   5.428
30673WAT     H292262   5.164   8.158   5.436
30674WAT      O92263   5.019   2.682   1.832
30674WAT     H192264   5.106   2.654   1.871
30674WAT     H292265   5.032   2.760   1.772
30675WAT      O92266   8.744   1.122   5.881
30675WAT     H192267   8.790   1.154   5.798
30675WAT     H292268   8.715   1.027   5.868
30676WAT      O92269   1.939   4.231   5.814
30676WAT     H192270   1.854   4.220   5.866
30676WAT     H292271   1.957   4.328   5.799
30677WAT      O92272   3.501   4.049   3.564
30677WAT     H192273   3.601   4.057   3.563
30677WAT     H292274   3.470   4.006   3.479
30678WAT      O92275   0.960   7.415   7.152
30678WAT     H192276   1.058   7.399   7.145
30678WAT     H292277   0.942   7.482   7.224
30679WAT      O92278   4.258   3.170   2.103
30679WAT     H192279   4.199   3.100   2.062
30679WAT     H292280   4.235   3.259   2.065
30680WAT      O92281   5.928   2.196   2.902
30680WAT     H192282   5.983   2.267   2.857
30680WAT     H292283   5.857   2.239   2.958
30681WAT      O92284   2.527   1.479   8.020
30681WAT     H192285   2.558   1.439   8.107
30681WAT     H292286   2.462   1.553   8.038
30682WAT      O92287   9.300   7.648   6.837
30682WAT     H192288   9.361   7.680   6.909
30682WAT     H292289   9.354   7.599   6.768
30683WAT      O92290   5.129   3.543   7.486
30683WAT     H192291   5.205   3.590   7.440
30683WAT     H292292   5.125   3.572   7.582
30684WAT      O92293   2.907   5.336   4.969
30684WAT     H192294   3.006   5.346   4.969
30684WAT     H292295   2.864   5.425   4.953
30685WAT      O92296   7.440   9.411   8.734
30685WAT     H192297   7.341   9.410   8.745
30685WAT     H292298   7.463   9.384   8.641
30686WAT      O92299   6.342   3.609   8.067
30686WAT     H192300   6.339   3.662   7.983
30686WAT     H292301   6.420   3.546   8.064
30687WAT      O92302   8.179   2.707   9.469
30687WAT     H192303   8.115   2.667   9.534
30687WAT     H292304   8.157   2.804   9.455
30688WAT      O92305   5.321   8.824   6.024
30688WAT     H192306   5.272   8.911   6.031
30688WAT     H292307   5.275   8.765   5.958
30689WAT      O92308   4.225   5.196   1.194
30689WAT     H192309   4.152   5.247   1.239
30689WAT     H292310   4.314   5.236   1.217
30690WAT      O92311   7.783   9.136   7.856
30690WAT     H192312   7.739   9.064   7.910
30690WAT     H292313   7.746   9.134   7.763
30691WAT      O92314   6.266   4.236   9.190
30691WAT     H192315   6.291   4.251   9.286
30691WAT     H292316   6.344   4.197   9.141
30692WAT      O92317   7.474   7.583   4.232
30692WAT     H192318   7.445   7.547   4.321
30692WAT     H292319   7.462   7.512   4.162
30693WAT      O92320   2.732   5.041   9.427
30693WAT     H192321   2.732   5.138   9.451
30693WAT     H292322   2.678   4.990   9.495
30694WAT      O92323   7.170   6.245   4.065
30694WAT     H192324   7.144   6.332   4.024
30694WAT     H292325   7.142   6.170   4.005
30695WAT      O92326   4.769   9.832   4.536
30695WAT     H192327   4.833   9.760   4.564
30695WAT     H292328   4.686   9.825   4.591
30696WAT      O92329   0.281   8.419   3.372
30696WAT     H192330   0.186   8.430   3.400
30696WAT     H292331   0.334   8.380   3.447
30697WAT      O92332   9.530   8.913   5.984
30697WAT     H192333   9.527   8.964   6.070
30697WAT     H292334   9.460   8.842   5.986
30698WAT      O92335   0.034   3.276   0.944
30698WAT     H192336   0.003   3.369   0.926
30698WAT     H292337   0.133   3.270   0.930
30699WAT      O92338   4.878   2.718   7.929
30699WAT     H192339   4.852   2.628   7.966
30699WAT     H292340   4.947   2.759   7.989
30700WAT      O92341   1.221   8.644   7.777
30700WAT     H192342   1.145   8.706   7.799
30700WAT     H292343   1.307   8.686   7.805
30701WAT      O92344   8.087   4.257   4.063
30701WAT     H192345   8.025   4.180   4.056
30701WAT     H292346   8.038   4.336   4.101
30702WAT      O92347   8.052   4.925   9.116
30702WAT     H192348   8.125   4.908   9.050
30702WAT     H292349   8.091   4.936   9.207
30703WAT      O92350   5.891   2.777   0.934
30703WAT     H192351   5.954   2.806   0.862
30703WAT     H292352   5.842   2.695   0.903
30704WAT      O92353   6.012   5.638   8.845
30704WAT     H192354   6.094   5.599   8.886
30704WAT     H292355   5.986   5.721   8.894
30705WAT      O92356   1.753   6.412   4.687
30705WAT     H192357   1.815   6.342   4.721
30705WAT     H292358   1.747   6.487   4.753
30706WAT      O92359   3.254   4.138   2.205
30706WAT     H192360   3.235   4.226   2.248
30706WAT     H292361   3.174   4.110   2.151
30707WAT      O92362   9.260   6.527   9.802
30707WAT     H192363   9.245   6.604   9.740
30707WAT     H292364   9.323   6.555   9.875
30708WAT      O92365   2.002   2.738   4.228
30708WAT     H192366   2.028   2.704   4.137
30708WAT     H292367   2.043   2.828   4.242
30709WAT      O92368   2.092   4.411   2.781
30709WAT     H192369   2.163   4.455   2.835
30709WAT     H292370   2.085   4.315   2.809
30710WAT      O92371   4.533   5.953   3.357
30710WAT     H192372   4.584   6.025   3.310
30710WAT     H292373   4.454   5.992   3.404
30711WAT      O92374   2.244   3.698   9.697
30711WAT     H192375   2.329   3.660   9.732
30711WAT     H292376   2.199   3.752   9.768
30712WAT      O92377   1.064   9.282   0.072
30712WAT     H192378   1.059   9.183   0.086
30712WAT     H292379   1.022   9.329   0.150
30713WAT      O92380   1.260   7.252   9.470
30713WAT     H192381   1.269   7.316   9.393
30713WAT     H292382   1.168   7.214   9.470
30714WAT      O92383   8.008   5.788   2.584
30714WAT     H192384   8.096   5.803   2.540
30714WAT     H292385   7.938   5.773   2.515
30715WAT      O92386   4.815   9.188   2.920
30715WAT     H192387   4.900   9.196   2.972
30715WAT     H292388   4.770   9.277   2.915
30716WAT      O92389   9.214   6.962   1.386
30716WAT     H192390   9.116   6.977   1.396
30716WAT     H292391   9.259   6.974   1.474
30717WAT      O92392   6.074   7.637   0.792
30717WAT     H192393   6.109   7.727   0.765
30717WAT     H292394   6.050   7.584   0.711
30718WAT      O92395   2.286   7.692   8.630
30718WAT     H192396   2.232   7.716   8.711
30718WAT     H292397   2.311   7.775   8.581
30719WAT      O92398   9.620   6.591   3.095
30719WAT     H192399   9.719   6.596   3.099
30719WAT     H292400   9.593   6.498   3.067
30720WAT      O92401   8.810   8.292   0.220
30720WAT     H192402   8.815   8.262   0.124
30720WAT     H292403   8.846   8.385   0.228
30721WAT      O92404   8.435   9.321   5.964
30721WAT     H192405   8.360   9.371   5.921
30721WAT     H292406   8.509   9.385   5.985
30722WAT      O92407   8.846   9.633   0.459
30722WAT     H192408   8.801   9.589   0.382
30722WAT     H292409   8.892   9.716   0.429
30723WAT      O92410   3.341   7.229   1.518
30723WAT     H192411   3.301   7.171   1.447
30723WAT     H292412   3.342   7.179   1.604
30724WAT      O92413   6.032   0.409   6.883
30724WAT     H192414   5.937   0.409   6.853
30724WAT     H292415   6.087   0.352   6.822
30725WAT      O92416   1.077   4.331   4.392
30725WAT     H192417   1.087   4.233   4.407
30725WAT     H292418   1.157   4.379   4.426
30726WAT      O92419   1.528   6.234   1.201
30726WAT     H192420   1.484   6.264   1.286
30726WAT     H292421   1.459   6.191   1.142
30727WAT      O92422   4.661   1.230   2.610
30727WAT     H192423   4.563   1.232   2.633
30727WAT     H292424   4.675   1.176   2.528
30728WAT      O92425   7.866   8.948   4.604
30728WAT     H192426   7.901   8.872   4.549
30728WAT     H292427   7.837   9.022   4.545
30729WAT      O92428   2.599   5.279   1.212
30729WAT     H192429   2.620   5.196   1.262
30729WAT     H292430   2.501   5.281   1.192
30730WAT      O92431   3.427   3.411   7.714
30730WAT     H192432   3.472   3.420   7.803
30730WAT     H292433   3.475   3.343   7.659
30731WAT      O92434   2.374   0.328   1.259
30731WAT     H192435   2.457   0.358   1.214
30731WAT     H292436   2.372   0.361   1.353
30732WAT      O92437   7.423   6.315   8.407
30732WAT     H192438   7.356   6.359   8.466
30732WAT     H292439   7.469   6.241   8.457
30733WAT      O92440   2.005   2.614   3.129
30733WAT     H192441   2.080   2.673   3.157
30733WAT     H292442   1.926   2.669   3.103
30734WAT      O92443   3.979   1.347   8.372
30734WAT     H192444   3.961   1.418   8.304
30734WAT     H292445   3.920   1.361   8.452
30735WAT      O92446   6.633   7.733   8.228
30735WAT     H192447   6.612   7.655   8.287
30735WAT     H292448   6.732   7.735   8.212
30736WAT      O92449   8.870   3.043   8.023
30736WAT     H192450   8.900   2.983   8.097
30736WAT     H292451   8.923   3.022   7.940
30737WAT      O92452   6.451   2.066   3.394
30737WAT     H192453   6.514   2.133   3.353
30737WAT     H292454   6.411   2.010   3.321
30738WAT      O92455   3.296   3.784   4.447
30738WAT     H192456   3.286   3.720   4.371
30738WAT     H292457   3.291   3.734   4.534
30739WAT      O92458   7.408   5.501   3.915
30739WAT     H192459   7.412   5.420   3.974
30739WAT     H292460   7.443   5.580   3.966
30740WAT      O92461   0.355   6.241   3.156
30740WAT     H192462   0.262   6.246   3.192
30740WAT     H292463   0.369   6.314   3.090
30741WAT      O92464   1.472   5.825   4.871
30741WAT     H192465   1.549   5.887   4.856
30741WAT     H292466   1.488   5.771   4.954
30742WAT      O92467   0.099   3.941   5.089
30742WAT     H192468   0.157   3.964   5.011
30742WAT     H292469   0.098   3.841   5.102
30743WAT      O92470   2.475   2.555   9.760
30743WAT     H192471   2.392   2.554   9.817
30743WAT     H292472   2.520   2.466   9.766
30744WAT      O92473   5.148   6.332   0.967
30744WAT     H192474   5.127   6.236   0.951
30744WAT     H292475   5.178   6.374   0.881
30745WAT      O92476   3.789   1.390   8.560
30745WAT     H192477   3.719   1.357   8.497
30745WAT     H292478   3.787   1.335   8.644
30746WAT      O92479   1.696   6.584   9.047
30746WAT     H192480   1.687   6.518   9.121
30746WAT     H292481   1.739   6.667   9.081
30747WAT      O92482   0.284   2.334   2.489
30747WAT     H192483   0.204   2.306   2.541
30747WAT     H292484   0.349   2.381   2.549
30748WAT      O92485   3.007   9.343   3.646
30748WAT     H192486   3.100   9.307   3.651
30748WAT     H292487   3.009   9.443   3.656
30749WAT      O92488   2.129   1.878   7.192
30749WAT     H192489   2.214   1.838   7.227
30749WAT     H292490   2.100   1.953   7.251
30750WAT      O92491   0.098   4.021   6.616
30750WAT     H192492   0.084   4.048   6.521
30750WAT     H292493   0.185   3.971   6.624
30751WAT      O92494   6.194   4.949   4.773
30751WAT     H192495   6.182   5.038   4.728
30751WAT     H292496   6.255   4.892   4.718
30752WAT      O92497   1.808   0.788   2.358
30752WAT     H192498   1.822   0.702   2.309
30752WAT     H292499   1.740   0.843   2.309
30753WAT      O92500   8.914   3.458   6.248
30753WAT     H192501   8.870   3.528   6.193
30753WAT     H292502   8.959   3.391   6.187
30754WAT      O92503   1.828   7.412   2.640
30754WAT     H192504   1.823   7.377   2.734
30754WAT     H292505   1.920   7.398   2.604
30755WAT      O92506   5.473   9.578   9.592
30755WAT     H192507   5.472   9.507   9.663
30755WAT     H292508   5.381   9.586   9.552
30756WAT      O92509   4.943   6.678   3.731
30756WAT     H192510   4.915   6.770   3.705
30756WAT     H292511   4.879   6.641   3.798
30757WAT      O92512   9.383   3.965   8.603
30757WAT     H192513   9.354   3.870   8.603
30757WAT     H292514   9.482   3.970   8.616
30758WAT      O92515   6.971   3.026   5.807
30758WAT     H192516   6.953   2.932   5.777
30758WAT     H292517   6.968   3.087   5.729
30759WAT      O92518   9.115   5.996   2.117
30759WAT     H192519   9.212   5.991   2.139
30759WAT     H292520   9.090   6.091   2.096
30760WAT      O92521   7.853   5.550   4.688
30760WAT     H192522   7.853   5.650   4.695
30760WAT     H292523   7.821   5.523   4.597
30761WAT      O92524   8.357   2.583   2.785
30761WAT     H192525   8.310   2.668   2.807
30761WAT     H292526   8.348   2.565   2.687
30762WAT      O92527   1.352   0.291   5.932
30762WAT     H192528   1.319   0.210   5.883
30762WAT     H292529   1.350   0.274   6.030
30763WAT      O92530   8.976   8.462   7.001
30763WAT     H192531   8.973   8.472   7.100
30763WAT     H292532   9.053   8.515   6.964
30764WAT      O92533   2.494   9.059   3.619
30764WAT     H192534   2.549   9.082   3.699
30764WAT     H292535   2.498   8.960   3.603
30765WAT      O92536   6.341   1.119   0.175
30765WAT     H192537   6.430   1.091   0.210
30765WAT     H292538   6.342   1.216   0.152
30766WAT      O92539   8.566   7.660   4.405
30766WAT     H192540   8.635   7.670   4.477
30766WAT     H292541   8.539   7.751   4.373
30767WAT      O92542   7.130   6.303   4.342
30767WAT     H192543   7.140   6.282   4.245
30767WAT     H292544   7.050   6.361   4.356
30768WAT      O92545   7.203   3.675   0.865
30768WAT     H192546   7.106   3.701   0.862
30768WAT     H292547   7.237   3.666   0.772
30769WAT      O92548   5.213   7.828   7.621
30769WAT     H192549   5.180   7.832   7.527
30769WAT     H292550   5.138   7.802   7.681
30770WAT      O92551   8.988   1.903   6.441
30770WAT     H192552   8.943   1.817   6.418
30770WAT     H292553   9.046   1.890   6.522
30771WAT      O92554   7.466   9.216   2.074
30771WAT     H192555   7.476   9.197   2.171
30771WAT     H292556   7.394   9.157   2.036
30772WAT      O92557   7.300   5.546   8.492
30772WAT     H192558   7.375   5.496   8.449
30772WAT     H292559   7.213   5.504   8.467
30773WAT      O92560   2.608   0.275   1.637
30773WAT     H192561   2.649   0.188   1.609
30773WAT     H292562   2.535   0.300   1.573
30774WAT      O92563   9.696   5.121   7.537
30774WAT     H192564   9.758   5.126   7.615
30774WAT     H292565   9.690   5.027   7.505
30775WAT      O92566   3.661   8.579   8.186
30775WAT     H192567   3.666   8.480   8.200
30775WAT     H292568   3.734   8.624   8.238
30776WAT      O92569   1.438   8.385   2.977
30776WAT     H192570   1.440   8.414   3.073
30776WAT     H292571   1.422   8.464   2.918
30777WAT      O92572   1.832   6.797   7.790
30777WAT     H192573   1.782   6.880   7.814
30777WAT     H292574   1.797   6.760   7.704
30778WAT      O92575   1.185   5.380   0.772
30778WAT     H192576   1.201   5.281   0.771
30778WAT     H292577   1.133   5.404   0.854
30779WAT      O92578   7.703   0.408   0.952
30779WAT     H192579   7.717   0.458   1.038
30779WAT     H292580   7.654   0.466   0.887
30780WAT      O92581   7.079   6.256   8.500
30780WAT     H192582   7.119   6.347   8.491
30780WAT     H292583   7.041   6.245   8.592
30781WAT      O92584   0.569   8.508   9.657
30781WAT     H192585   0.565   8.608   9.658
30781WAT     H292586   0.663   8.478   9.640
30782WAT      O92587   0.276   9.485   0.829
30782WAT     H192588   0.291   9.399   0.779
30782WAT     H292589   0.352   9.499   0.893
30783WAT      O92590   3.012   0.517   1.515
30783WAT     H192591   3.008   0.481   1.422
30783WAT     H292592   3.083   0.469   1.566
30784WAT      O92593   8.802   7.544   9.384
30784WAT     H192594   8.827   7.534   9.480
30784WAT     H292595   8.703   7.545   9.375
30785WAT      O92596   4.313   0.820   3.002
30785WAT     H192597   4.234   0.760   3.011
30785WAT     H292598   4.364   0.820   3.088
30786WAT      O92599   0.549   0.666   8.634
30786WAT     H192600   0.457   0.687   8.599
30786WAT     H292601   0.610   0.744   8.615
30787WAT      O92602   9.370   0.111   7.387
30787WAT     H192603   9.282   0.097   7.432
30787WAT     H292604   9.418   0.187   7.432
30788WAT      O92605   3.551   3.800   2.669
30788WAT     H192606   3.526   3.733   2.599
30788WAT     H292607   3.642   3.836   2.649
30789WAT      O92608   9.875   6.378   1.752
30789WAT     H192609   9.942   6.357   1.822
30789WAT     H292610   9.916   6.437   1.683
30790WAT      O92611   4.719   3.274   6.464
30790WAT     H192612   4.660   3.215   6.410
30790WAT     H292613   4.707   3.369   6.436
30791WAT      O92614   4.091   1.666   6.062
30791WAT     H192615   4.005   1.619   6.042
30791WAT     H292616   4.075   1.764   6.067
30792WAT      O92617   9.097   5.768   6.852
30792WAT     H192618   9.161   5.727   6.917
30792WAT     H292619   9.067   5.699   6.787
30793WAT      O92620   9.767   4.681   5.816
30793WAT     H192621   9.852   4.628   5.819
30793WAT     H292622   9.740   4.694   5.720
30794WAT      O92623   1.839   5.839   0.127
30794WAT     H192624   1.748   5.804   0.104
30794WAT     H292625   1.831   5.930   0.166
30795WAT      O92626   4.780   3.517   1.629
30795WAT     H192627   4.719   3.582   1.675
30795WAT     H292628   4.731   3.432   1.612
30796WAT      O92629   4.263   4.133   6.651
30796WAT     H192630   4.255   4.233   6.658
30796WAT     H292631   4.348   4.104   6.695
30797WAT      O92632   6.036   4.358   6.924
30797WAT     H192633   6.087   4.312   6.852
30797WAT     H292634   5.957   4.406   6.884
30798WAT      O92635   9.695   7.966   8.887
30798WAT     H192636   9.718   7.869   8.901
30798WAT     H292637   9.692   7.985   8.789
30799WAT      O92638   9.056   0.113   4.517
30799WAT     H192639   9.150   0.144   4.507
30799WAT     H292640   9.020   0.086   4.427
30800WAT      O92641   4.923   9.502   1.248
30800WAT     H192642   4.952   9.488   1.343
30800WAT     H292643   4.965   9.586   1.214
30801WAT      O92644   0.501   1.109   8.372
30801WAT     H192645   0.588   1.139   8.332
30801WAT     H292646   0.507   1.112   8.472
30802WAT      O92647   9.237   0.794   8.284
30802WAT     H192648   9.184   0.747   8.214
30802WAT     H292649   9.324   0.825   8.245
30803WAT      O92650   3.191   8.363   1.663
30803WAT     H192651   3.290   8.348   1.667
30803WAT     H292652   3.168   8.447   1.713
30804WAT      O92653   8.220   0.734   4.513
30804WAT     H192654   8.146   0.787   4.553
30804WAT     H292655   8.184   0.677   4.439
30805WAT      O92656   0.367   5.437   3.720
30805WAT     H192657   0.300   5.382   3.670
30805WAT     H292658   0.443   5.378   3.750
30806WAT      O92659   6.216   3.396   7.622
30806WAT     H192660   6.268   3.366   7.702
30806WAT     H292661   6.122   3.361   7.628
30807WAT      O92662   7.410   8.642   5.945
30807WAT     H192663   7.403   8.739   5.923
30807WAT     H292664   7.393   8.588   5.863
30808WAT      O92665   5.572   0.180   1.068
30808WAT     H192666   5.663   0.144   1.046
30808WAT     H292667   5.522   0.113   1.122
30809WAT      O92668   3.490   9.108   8.644
30809WAT     H192669   3.528   9.141   8.730
30809WAT     H292670   3.486   9.183   8.578
30810WAT      O92671   2.200   6.430   7.571
30810WAT     H192672   2.258   6.405   7.493
30810WAT     H292673   2.258   6.464   7.646
30811WAT      O92674   7.656   8.055   2.882
30811WAT     H192675   7.727   8.114   2.843
30811WAT     H292676   7.614   8.000   2.809
30812WAT      O92677   7.110   4.258   7.557
30812WAT     H192678   7.063   4.181   7.598
30812WAT     H292679   7.133   4.236   7.462
30813WAT      O92680   7.604   3.281   3.159
30813WAT     H192681   7.643   3.245   3.244
30813WAT     H292682   7.672   3.339   3.113
30814WAT      O92683   6.113   7.782   5.861
30814WAT     H192684   6.155   7.801   5.772
30814WAT     H292685   6.076   7.689   5.861
30815WAT      O92686   8.699   2.628   9.565
30815WAT     H192687   8.614   2.675   9.539
30815WAT     H292688   8.759   2.692   9.612
30816WAT      O92689   9.635   3.928   0.441
30816WAT     H192690   9.662   4.024   0.427
30816WAT     H292691   9.672   3.871   0.368
30817WAT      O92692   3.716   4.126   2.455
30817WAT     H192693   3.769   4.044   2.479
30817WAT     H292694   3.671   4.162   2.536
30818WAT      O92695   8.733   7.473   9.056
30818WAT     H192696   8.757   7.567   9.079
30818WAT     H292697   8.812   7.426   9.017
30819WAT      O92698   7.977   3.970   9.573
30819WAT     H192699   7.996   3.912   9.494
30819WAT     H292700   7.959   3.913   9.653
30820WAT      O92701   3.866   8.145   6.068
30820WAT     H192702   3.921   8.090   6.131
30820WAT     H292703   3.789   8.185   6.117
30821WAT      O92704   5.697   7.016   2.262
30821WAT     H192705   5.678   7.049   2.170
30821WAT     H292706   5.739   6.925   2.257
30822WAT      O92707   3.804   2.673   1.660
30822WAT     H192708   3.778   2.693   1.755
30822WAT     H292709   3.897   2.706   1.644
30823WAT      O92710   2.364   3.839   0.302
30823WAT     H192711   2.310   3.834   0.218
30823WAT     H292712   2.438   3.905   0.291
30824WAT      O92713   1.167   3.729   2.605
30824WAT     H192714   1.252   3.731   2.658
30824WAT     H292715   1.090   3.720   2.667
30825WAT      O92716   8.524   8.783   4.603
30825WAT     H192717   8.520   8.883   4.604
30825WAT     H292718   8.616   8.752   4.626
30826WAT      O92719   6.617   1.851   5.196
30826WAT     H192720   6.528   1.811   5.174
30826WAT     H292721   6.683   1.778   5.212
30827WAT      O92722   8.224   5.432   1.656
30827WAT     H192723   8.300   5.447   1.594
30827WAT     H292724   8.139   5.427   1.604
30828WAT      O92725   4.233   4.816   4.427
30828WAT     H192726   4.137   4.821   4.403
30828WAT     H292727   4.243   4.785   4.522
30829WAT      O92728   4.877   2.144   3.106
30829WAT     H192729   4.843   2.118   3.016
30829WAT     H292730   4.896   2.242   3.108
30830WAT      O92731   4.912   1.961   4.923
30830WAT     H192732   4.890   1.903   5.001
30830WAT     H292733   4.848   1.942   4.848
30831WAT      O92734   6.907   7.472   3.715
30831WAT     H192735   6.875   7.524   3.795
30831WAT     H292736   7.005   7.484   3.705
30832WAT      O92737   0.077   0.238   1.666
30832WAT     H192738  -0.010   0.241   1.617
30832WAT     H292739   0.074   0.166   1.735
30833WAT      O92740   4.668   9.578   8.846
30833WAT     H192741   4.732   9.562   8.771
30833WAT     H292742   4.719   9.602   8.928
30834WAT      O92743   2.543   3.316   5.794
30834WAT     H192744   2.555   3.345   5.699
30834WAT     H292745   2.450   3.338   5.823
30835WAT      O92746   9.515   7.026   6.930
30835WAT     H192747   9.567   7.063   6.852
30835WAT     H292748   9.578   6.977   6.990
30836WAT      O92749   8.457   2.251   7.286
30836WAT     H192750   8.472   2.208   7.197
30836WAT     H292751   8.449   2.180   7.356
30837WAT      O92752   0.473   7.745   0.022
30837WAT     H192753   0.557   7.743   0.075
30837WAT     H292754   0.416   7.666   0.046
30838WAT      O92755   6.367   9.625   3.537
30838WAT     H192756   6.364   9.562   3.459
30838WAT     H292757   6.294   9.601   3.601
30839WAT      O92758   8.765   8.129   1.676
30839WAT     H192759   8.717   8.104   1.760
30839WAT     H292760   8.698   8.161   1.608
30840WAT      O92761   9.513   7.329   6.223
30840WAT     H192762   9.548   7.338   6.316
30840WAT     H292763   9.567   7.262   6.173
30841WAT      O92764   7.142   8.832   7.635
30841WAT     H192765   7.048   8.799   7.645
30841WAT     H292766   7.146   8.929   7.659
30842WAT      O92767   6.586   2.849   2.003
30842WAT     H192768   6.609   2.760   1.965
30842WAT     H292769   6.508   2.839   2.066
30843WAT      O92770   6.875   1.516   2.120
30843WAT     H192771   6.935   1.475   2.188
30843WAT     H292772   6.864   1.614   2.140
30844WAT      O92773   4.678   5.149   8.510
30844WAT     H192774   4.681   5.224   8.445
30844WAT     H292775   4.596   5.094   8.495
30845WAT      O92776   9.570   2.272   3.991
30845WAT     H192777   9.575   2.361   4.037
30845WAT     H292778   9.482   2.264   3.944
30846WAT      O92779   9.555   4.366   4.893
30846WAT     H192780   9.652   4.342   4.889
30846WAT     H292781   9.542   4.457   4.856
30847WAT      O92782   1.078   1.886   7.737
30847WAT     H192783   1.009   1.886   7.810
30847WAT     H292784   1.035   1.914   7.651
30848WAT      O92785   0.921   8.377   6.621
30848WAT     H192786   0.949   8.420   6.536
30848WAT     H292787   0.889   8.284   6.603
30849WAT      O92788   7.840   9.751   8.542
30849WAT     H192789   7.762   9.812   8.531
30849WAT     H292790   7.836   9.678   8.474
30850WAT      O92791   7.147   7.070   5.794
30850WAT     H192792   7.102   7.046   5.708
30850WAT     H292793   7.118   7.005   5.865
30851WAT      O92794   4.409   1.841   2.664
30851WAT     H192795   4.475   1.844   2.740
30851WAT     H292796   4.338   1.908   2.679
30852WAT      O92797   3.170   3.391   6.312
30852WAT     H192798   3.152   3.445   6.230
30852WAT     H292799   3.164   3.294   6.289
30853WAT      O92800   0.333   3.709   8.740
30853WAT     H192801   0.410   3.659   8.701
30853WAT     H292802   0.333   3.699   8.839
30854WAT      O92803   1.659   6.562   3.743
30854WAT     H192804   1.702   6.483   3.699
30854WAT     H292805   1.575   6.585   3.696
30855WAT      O92806   5.046   4.810   4.391
30855WAT     H192807   4.949   4.815   4.363
30855WAT     H292808   5.054   4.839   4.486
30856WAT      O92809   4.504   6.721   5.940
30856WAT     H192810   4.547   6.804   5.907
30856WAT     H292811   4.409   6.717   5.907
30857WAT      O92812   9.097   5.541  -0.004
30857WAT     H192813   9.080   5.581   0.087
30857WAT     H292814   9.083   5.442  -0.000
30858WAT      O92815   6.889   9.746   9.544
30858WAT     H192816   6.968   9.718   9.489
30858WAT     H292817   6.920   9.775   9.634
30859WAT      O92818   8.945   8.901   7.795
30859WAT     H192819   8.881   8.967   7.834
30859WAT     H292820   8.945   8.909   7.696
30860WAT      O92821   6.789   3.248   3.472
30860WAT     H192822   6.823   3.154   3.472
30860WAT     H292823   6.794   3.285   3.379
30861WAT      O92824   4.098   8.950   5.407
30861WAT     H192825   4.072   8.927   5.501
30861WAT     H292826   4.172   9.017   5.407
30862WAT      O92827   5.904   7.300   6.963
30862WAT     H192828   5.853   7.375   7.006
30862WAT     H292829   5.948   7.334   6.880
30863WAT      O92830   5.734   0.404   3.222
30863WAT     H192831   5.796   0.457   3.281
30863WAT     H292832   5.779   0.384   3.136
30864WAT      O92833   9.638   9.597   5.762
30864WAT     H192834   9.694   9.630   5.687
30864WAT     H292835   9.602   9.506   5.740
30865WAT      O92836   0.991   8.296   1.429
30865WAT     H192837   1.013   8.296   1.526
30865WAT     H292838   0.892   8.292   1.416
30866WAT      O92839   5.965   8.545   6.027
30866WAT     H192840   5.953   8.463   6.083
30866WAT     H292841   6.062   8.567   6.020
30867WAT      O92842   2.330   1.418   1.766
30867WAT     H192843   2.377   1.345   1.815
30867WAT     H292844   2.296   1.486   1.831
30868WAT      O92845   9.505   7.941   2.668
30868WAT     H192846   9.455   8.008   2.614
30868WAT     H292847   9.573   7.896   2.610
30869WAT      O92848   8.554   4.745   7.999
30869WAT     H192849   8.502   4.825   8.028
30869WAT     H292850   8.536   4.728   7.902
30870WAT      O92851   1.028   8.060   2.922
30870WAT     H192852   0.945   8.020   2.961
30870WAT     H292853   1.106   8.001   2.941
30871WAT      O92854   7.239   3.855   9.268
30871WAT     H192855   7.255   3.899   9.180
30871WAT     H292856   7.178   3.776   9.255
30872WAT      O92857   5.831   8.434   4.480
30872WAT     H192858   5.868   8.428   4.572
30872WAT     H292859   5.731   8.434   4.484
30873WAT      O92860   6.516   5.508   1.747
30873WAT     H192861   6.614   5.523   1.741
30873WAT     H292862   6.497   5.439   1.818
30874WAT      O92863   7.670   4.983   6.790
30874WAT     H192864   7.627   5.070   6.816
30874WAT     H292865   7.721   4.947   6.867
30875WAT      O92866   3.464   9.506   3.281
30875WAT     H192867   3.390   9.538   3.340
30875WAT     H292868   3.425   9.467   3.197
30876WAT      O92869   8.994   6.487   3.486
30876WAT     H192870   8.907   6.500   3.440
30876WAT     H292871   9.045   6.573   3.486
30877WAT      O92872   4.107   6.883   9.882
30877WAT     H192873   4.172   6.932   9.940
30877WAT     H292874   4.040   6.836   9.940
30878WAT      O92875   0.744   4.944   7.327
30878WAT     H192876   0.736   5.026   7.270
30878WAT     H292877   0.672   4.879   7.302
30879WAT      O92878   5.387   6.084   7.066
30879WAT     H192879   5.454   6.097   6.993
30879WAT     H292880   5.421   6.125   7.150
30880WAT      O92881   3.592   0.852   0.065
30880WAT     H192882   3.689   0.835   0.082
30880WAT     H292883   3.539   0.830   0.147
30881WAT      O92884   4.767   4.395   9.469
30881WAT     H192885   4.737   4.490   9.483
30881WAT     H292886   4.738   4.340   9.547
30882WAT      O92887   4.086   3.462   6.700
30882WAT     H192888   4.181   3.458   6.732
30882WAT     H292889   4.043   3.545   6.734
30883WAT      O92890   9.763   5.260   7.067
30883WAT     H192891   9.820   5.205   7.129
30883WAT     H292892   9.757   5.354   7.102
30884WAT      O92893   2.163   5.293   5.842
30884WAT     H192894   2.162   5.269   5.745
30884WAT     H292895   2.203   5.384   5.853
30885WAT      O92896   1.227   3.967   4.656
30885WAT     H192897   1.214   4.000   4.749
30885WAT     H292898   1.240   4.044   4.594
30886WAT      O92899   8.919   0.459   9.365
30886WAT     H192900   8.943   0.556   9.367
30886WAT     H292901   9.002   0.403   9.375
30887WAT      O92902   2.306   7.099   1.980
30887WAT     H192903   2.354   7.108   2.067
30887WAT     H292904   2.373   7.103   1.905
30888WAT      O92905   9.834   3.665   4.915
30888WAT     H192906   9.788   3.753   4.899
30888WAT     H292907   9.798   3.597   4.851
30889WAT      O92908   4.639   1.359   6.287
30889WAT     H192909   4.593   1.284   6.239
30889WAT     H292910   4.584   1.442   6.280
30890WAT      O92911   3.883   8.482   0.726
30890WAT     H192912   3.977   8.491   0.694
30890WAT     H292913   3.862   8.385   0.740
30891WAT      O92914   6.784   6.984   4.510
30891WAT     H192915   6.856   6.997   4.443
30891WAT     H292916   6.707   7.044   4.488
30892WAT      O92917   5.608   0.763   6.129
30892WAT     H192918   5.636   0.852   6.166
30892WAT     H292919   5.524   0.774   6.077
30893WAT      O92920   5.490   8.872   6.443
30893WAT     H192921   5.503   8.893   6.540
30893WAT     H292922   5.394   8.853   6.425
30894WAT      O92923   7.778   2.885   5.851
30894WAT     H192924   7.775   2.985   5.841
30894WAT     H292925   7.735   2.859   5.937
30895WAT      O92926   3.001   8.211   1.803
30895WAT     H192927   3.039   8.233   1.893
30895WAT     H292928   3.063   8.244   1.731
30896WAT      O92929   4.544   8.805   7.575
30896WAT     H192930   4.471   8.818   7.508
30896WAT     H292931   4.519   8.850   7.660
30897WAT      O92932   9.279   6.755   2.617
30897WAT     H192933   9.267   6.767   2.519
30897WAT     H292934   9.275   6.657   2.639
30898WAT      O92935   6.001   3.573   8.896
30898WAT     H192936   5.910   3.597   8.932
30898WAT     H292937   5.999   3.481   8.859
30899WAT      O92938   6.514   0.357   4.892
30899WAT     H192939   6.586   0.342   4.824
30899WAT     H292940   6.461   0.438   4.867
30900WAT      O92941   6.321   8.958   3.500
30900WAT     H192942   6.409   8.950   3.549
30900WAT     H292943   6.266   8.877   3.518
30901WAT      O92944   4.199   7.148   5.699
30901WAT     H192945   4.159   7.210   5.632
30901WAT     H292946   4.277   7.193   5.743
30902WAT      O92947   7.100   6.172   6.650
30902WAT     H192948   7.123   6.095   6.591
30902WAT     H292949   7.145   6.160   6.739
30903WAT      O92950   3.185   6.062   4.767
30903WAT     H192951   3.239   6.140   4.735
30903WAT     H292952   3.230   5.977   4.740
30904WAT      O92953   0.491   6.828   2.569
30904WAT     H192954   0.451   6.914   2.603
30904WAT     H292955   0.432   6.752   2.595
30905WAT      O92956   6.636   8.953   7.474
30905WAT     H192957   6.629   9.049   7.445
30905WAT     H292958   6.629   8.948   7.573
30906WAT      O92959   0.609   4.469   8.282
30906WAT     H192960   0.639   4.413   8.359
30906WAT     H292961   0.528   4.428   8.241
30907WAT      O92962   1.417   4.221   7.827
30907WAT     H192963   1.384   4.230   7.734
30907WAT     H292964   1.349   4.175   7.883
30908WAT      O92965   6.933   0.529   9.151
30908WAT     H192966   6.902   0.509   9.244
30908WAT     H292967   6.855   0.526   9.088
30909WAT      O92968   6.453   1.655   3.904
30909WAT     H192969   6.549   1.638   3.926
30909WAT     H292970   6.430   1.610   3.817
30910WAT      O92971   2.029   8.338   2.434
30910WAT     H192972   1.965   8.264   2.414
30910WAT     H292973   2.103   8.338   2.367
30911WAT      O92974   6.041   3.268   9.312
30911WAT     H192975   6.102   3.213   9.255
30911WAT     H292976   5.955   3.218   9.327
30912WAT      O92977   0.719   2.173   0.903
30912WAT     H192978   0.647   2.109   0.931
30912WAT     H292979   0.771   2.133   0.827
30913WAT      O92980   7.806   0.933   0.174
30913WAT     H192981   7.830   0.840   0.201
30913WAT     H292982   7.858   0.958   0.092
30914WAT      O92983   0.987   8.345   1.709
30914WAT     H192984   1.019   8.440   1.707
30914WAT     H292985   1.037   8.294   1.780
30915WAT      O92986   7.208   5.076   7.781
30915WAT     H192987   7.155   5.068   7.697
30915WAT     H292988   7.158   5.134   7.846
30916WAT      O92989   3.622   1.042   9.597
30916WAT     H192990   3.578   0.967   9.548
30916WAT     H292991   3.649   1.113   9.532
30917WAT      O92992   4.931   4.100   2.603
30917WAT     H192993   4.950   4.162   2.526
30917WAT     H292994   4.959   4.144   2.689
30918WAT      O92995   5.959   6.612   0.684
30918WAT     H192996   6.004   6.664   0.612
30918WAT     H292997   5.863   6.640   0.691
30919WAT      O92998   8.784   6.491   8.595
30919WAT     H192999   8.875   6.450   8.600
30919WAT     H293000   8.714   6.418   8.597
30920WAT      O93001   5.007   8.815   3.395
30920WAT     H193002   5.031   8.741   3.332
30920WAT     H293003   5.000   8.779   3.488
30921WAT      O93004   5.997   1.263   2.309
30921WAT     H193005   5.969   1.196   2.378
30921WAT     H293006   6.061   1.328   2.349
30922WAT      O93007   2.041   0.268   9.578
30922WAT     H193008   2.117   0.253   9.641
30922WAT     H293009   1.976   0.192   9.585
30923WAT      O93010   4.922   0.511   5.859
30923WAT     H193011   4.943   0.601   5.897
30923WAT     H293012   4.902   0.447   5.933
30924WAT      O93013   4.234   8.850   3.879
30924WAT     H193014   4.299   8.790   3.832
30924WAT     H293015   4.221   8.933   3.825
30925WAT      O93016   6.337   1.829   1.395
30925WAT     H193017   6.251   1.834   1.445
30925WAT     H293018   6.319   1.811   1.298
30926WAT      O93019   5.412   1.728   8.084
30926WAT     H193020   5.372   1.699   8.170
30926WAT     H293021   5.377   1.671   8.009
30927WAT      O93022   6.323   2.793   4.720
30927WAT     H193023   6.398   2.807   4.655
30927WAT     H293024   6.307   2.877   4.771
30928WAT      O93025   1.022   2.139   5.281
30928WAT     H193026   0.926   2.111   5.281
30928WAT     H293027   1.050   2.162   5.374
30929WAT      O93028   8.027   7.988   7.452
30929WAT     H193029   7.936   8.025   7.470
30929WAT     H293030   8.023   7.889   7.444
30930WAT      O93031   4.738   2.371   3.784
30930WAT     H193032   4.761   2.464   3.757
30930WAT     H293033   4.805   2.338   3.850
30931WAT      O93034   9.634   5.250   6.233
30931WAT     H193035   9.577   5.289   6.161
30931WAT     H293036   9.717   5.305   6.243
30932WAT      O93037   4.974   9.616   0.789
30932WAT     H193038   4.969   9.538   0.851
30932WAT     H293039   4.882   9.653   0.775
30933WAT      O93040   3.220   7.925   8.196
30933WAT     H193041   3.268   7.905   8.282
30933WAT     H293042   3.142   7.863   8.186
30934WAT      O93043   2.587   7.875   0.051
30934WAT     H193044   2.492   7.857   0.079
30934WAT     H293045   2.588   7.925  -0.035
30935WAT      O93046   2.556   9.355   0.706
30935WAT     H193047   2.531   9.258   0.703
30935WAT     H293048   2.632   9.372   0.644
30936WAT      O93049   5.707   1.389   1.261
30936WAT     H193050   5.713   1.488   1.258
30936WAT     H293051   5.660   1.361   1.345
30937WAT      O93052   2.480   4.771   3.216
30937WAT     H193053   2.403   4.800   3.159
30937WAT     H293054   2.470   4.812   3.307
30938WAT      O93055   1.868   7.396   5.795
30938WAT     H193056   1.927   7.477   5.796
30938WAT     H293057   1.777   7.422   5.830
30939WAT      O93058   7.939   9.299   4.378
30939WAT     H193059   7.863   9.240   4.406
30939WAT     H293060   7.938   9.309   4.279
30940WAT      O93061   0.649   6.166   3.840
30940WAT     H193062   0.679   6.071   3.835
30940WAT     H293063   0.704   6.222   3.779
30941WAT      O93064   3.222   9.222   7.380
30941WAT     H193065   3.276   9.290   7.330
30941WAT     H293066   3.281   9.146   7.407
30942WAT      O93067   0.426   2.102   5.915
30942WAT     H193068   0.349   2.087   5.977
30942WAT     H293069   0.512   2.093   5.966
30943WAT      O93070   8.204   4.836   2.923
30943WAT     H193071   8.131   4.769   2.912
30943WAT     H293072   8.181   4.919   2.873
30944WAT      O93073   6.941   2.224   5.838
30944WAT     H193074   6.995   2.204   5.757
30944WAT     H293075   6.879   2.300   5.819
30945WAT      O93076   4.648   9.527   5.555
30945WAT     H193077   4.704   9.448   5.531
30945WAT     H293078   4.602   9.510   5.642
30946WAT      O93079   5.830   4.417   9.675
30946WAT     H193080   5.922   4.403   9.712
30946WAT     H293081   5.805   4.339   9.617
30947WAT      O93082   6.463   4.636   3.337
30947WAT     H193083   6.522   4.595   3.407
30947WAT     H293084   6.461   4.735   3.350
30948WAT      O93085   7.095   1.736   0.966
30948WAT     H193086   7.193   1.722   0.979
30948WAT     H293087   7.056   1.782   1.046
30949WAT      O93088   4.244   8.292   2.750
30949WAT     H193089   4.205   8.359   2.813
30949WAT     H293090   4.285   8.338   2.672
30950WAT      O93091   6.303   2.557   4.099
30950WAT     H193092   6.395   2.518   4.089
30950WAT     H293093   6.276   2.554   4.195
30951WAT      O93094   0.663   2.150   6.058
30951WAT     H193095   0.651   2.078   6.127
30951WAT     H293096   0.721   2.223   6.096
30952WAT      O93097   8.583   7.153   6.292
30952WAT     H193098   8.511   7.168   6.224
30952WAT     H293099   8.630   7.240   6.310
30953WAT      O93100   0.018   1.610   1.590
30953WAT     H193101   0.067   1.543   1.535
30953WAT     H293102  -0.035   1.564   1.661
30954WAT      O93103   6.488   2.884   4.525
30954WAT     H193104   6.473   2.971   4.478
30954WAT     H293105   6.489   2.810   4.458
30955WAT      O93106   1.699   1.451   6.056
30955WAT     H193107   1.783   1.398   6.072
30955WAT     H293108   1.657   1.420   5.970
30956WAT      O93109   3.310   1.470   7.041
30956WAT     H193110   3.369   1.492   7.119
30956WAT     H293111   3.321   1.540   6.970
30957WAT      O93112   1.775   5.766   3.302
30957WAT     H193113   1.687   5.805   3.276
30957WAT     H293114   1.849   5.819   3.261
30958WAT      O93115   8.181   3.780   7.450
30958WAT     H193116   8.148   3.835   7.527
30958WAT     H293117   8.234   3.703   7.484
30959WAT      O93118   1.986   1.004   4.227
30959WAT     H193119   1.991   1.051   4.315
30959WAT     H293120   2.078   0.989   4.192
30960WAT      O93121   8.290   9.066   4.898
30960WAT     H193122   8.228   8.989   4.909
30960WAT     H293123   8.239   9.145   4.863
30961WAT      O93124   6.678   5.222   1.697
30961WAT     H193125   6.710   5.242   1.790
30961WAT     H293126   6.592   5.172   1.701
30962WAT      O93127   9.485   6.281   8.479
30962WAT     H193128   9.474   6.256   8.383
30962WAT     H293129   9.458   6.376   8.492
30963WAT      O93130   2.866   6.043   8.263
30963WAT     H193131   2.930   6.097   8.208
30963WAT     H293132   2.884   6.060   8.360
30964WAT      O93133   1.907   8.036   5.068
30964WAT     H193134   1.866   7.962   5.015
30964WAT     H293135   1.834   8.092   5.109
30965WAT      O93136   8.390   6.656   9.243
30965WAT     H193137   8.358   6.750   9.249
30965WAT     H293138   8.392   6.626   9.148
30966WAT      O93139   8.340   2.305   8.363
30966WAT     H193140   8.435   2.332   8.350
30966WAT     H293141   8.335   2.224   8.420
30967WAT      O93142   8.477   0.206   4.172
30967WAT     H193143   8.489   0.117   4.217
30967WAT     H293144   8.503   0.279   4.236
30968WAT      O93145   7.947   4.992   4.015
30968WAT     H193146   7.871   5.054   4.037
30968WAT     H293147   8.001   5.031   3.941
30969WAT      O93148   2.034   8.213   6.443
30969WAT     H193149   2.131   8.237   6.437
30969WAT     H293150   2.018   8.126   6.396
30970WAT      O93151   7.005   5.749   5.717
30970WAT     H193152   7.103   5.742   5.733
30970WAT     H293153   6.968   5.658   5.696
30971WAT      O93154   0.985   1.599   8.007
30971WAT     H193155   1.026   1.688   8.026
30971WAT     H293156   1.042   1.549   7.942
30972WAT      O93157   3.571   4.815   4.083
30972WAT     H193158   3.477   4.814   4.117
30972WAT     H293159   3.634   4.791   4.157
30973WAT      O93160   6.013   8.369   7.245
30973WAT     H193161   6.013   8.469   7.247
30973WAT     H293162   5.938   8.335   7.301
30974WAT      O93163   6.131   7.616   4.525
30974WAT     H193164   6.151   7.599   4.622
30974WAT     H293165   6.044   7.664   4.517
30975WAT      O93166   6.118   2.629   4.692
30975WAT     H193167   6.184   2.704   4.705
30975WAT     H293168   6.151   2.547   4.739
30976WAT      O93169   8.700   0.188   6.928
30976WAT     H193170   8.780   0.132   6.904
30976WAT     H293171   8.674   0.171   7.022
30977WAT      O93172   3.984   3.421   3.795
30977WAT     H193173   3.904   3.377   3.835
30977WAT     H293174   3.969   3.432   3.697
30978WAT      O93175   4.023   8.361   4.354
30978WAT     H193176   3.997   8.272   4.317
30978WAT     H293177   4.024   8.428   4.280
30979WAT      O93178   0.833   6.151   2.876
30979WAT     H193179   0.797   6.236   2.916
30979WAT     H293180   0.926   6.168   2.841
30980WAT      O93181   2.592   7.324   9.006
30980WAT     H193182   2.621   7.229   9.011
30980WAT     H293183   2.644   7.379   9.071
30981WAT      O93184   7.825   4.300   2.314
30981WAT     H193185   7.870   4.389   2.310
30981WAT     H293186   7.766   4.288   2.235
30982WAT      O93187   4.224   2.861   5.626
30982WAT     H193188   4.293   2.852   5.554
30982WAT     H293189   4.160   2.785   5.620
30983WAT      O93190   5.358   1.488   7.587
30983WAT     H193191   5.454   1.515   7.586
30983WAT     H293192   5.344   1.410   7.525
30984WAT      O93193   1.690   2.375   9.036
30984WAT     H193194   1.658   2.432   8.960
30984WAT     H293195   1.702   2.281   9.005
30985WAT      O93196   5.923   9.453   3.561
30985WAT     H193197   6.012   9.453   3.607
30985WAT     H293198   5.883   9.361   3.566
30986WAT      O93199   4.630   2.883   1.643
30986WAT     H193200   4.538   2.848   1.624
30986WAT     H293201   4.634   2.981   1.626
30987WAT      O93202   6.131   4.355   0.315
30987WAT     H193203   6.150   4.263   0.280
30987WAT     H293204   6.083   4.347   0.403
30988WAT      O93205   7.675   6.513   3.285
30988WAT     H193206   7.644   6.607   3.302
30988WAT     H293207   7.608   6.465   3.230
30989WAT      O93208   2.854   5.932   0.287
30989WAT     H193209   2.881   5.927   0.383
30989WAT     H293210   2.890   6.017   0.247
30990WAT      O93211   4.451   3.601   0.175
30990WAT     H193212   4.531   3.660   0.190
30990WAT     H293213   4.469   3.539   0.099
30991WAT      O93214   5.101   5.353   2.140
30991WAT     H193215   5.166   5.308   2.202
30991WAT     H293216   5.045   5.417   2.191
30992WAT      O93217   2.460   3.097   4.995
30992WAT     H193218   2.535   3.151   4.956
30992WAT     H293219   2.480   2.999   4.984
30993WAT      O93220   2.598   3.328   3.406
30993WAT     H193221   2.655   3.404   3.373
30993WAT     H293222   2.520   3.364   3.456
30994WAT      O93223   8.258   2.618   7.875
30994WAT     H193224   8.227   2.671   7.954
30994WAT     H293225   8.323   2.672   7.822
30995WAT      O93226   7.745   7.580   9.604
30995WAT     H193227   7.741   7.653   9.535
30995WAT     H293228   7.664   7.522   9.595
30996WAT      O93229   1.306   0.703   0.057
30996WAT     H193230   1.379   0.635   0.064
30996WAT     H293231   1.337   0.789   0.098
30997WAT      O93232   8.151   2.792   9.841
30997WAT     H193233   8.204   2.709   9.856
30997WAT     H293234   8.209   2.873   9.854
30998WAT      O93235   4.782   1.959   4.675
30998WAT     H193236   4.834   2.008   4.605
30998WAT     H293237   4.685   1.966   4.655
30999WAT      O93238   8.747   5.147   0.745
30999WAT     H193239   8.732   5.217   0.675
30999WAT     H293240   8.755   5.058   0.701
31000WAT      O93241   0.513   6.371   3.706
31000WAT     H193242   0.508   6.282   3.753
31000WAT     H293243   0.578   6.429   3.755
31001WAT      O93244   0.130   3.991   5.889
31001WAT     H193245   0.121   3.894   5.912
31001WAT     H293246   0.040   4.032   5.882
31002WAT      O93247   2.438   2.205   5.382
31002WAT     H193248   2.505   2.159   5.324
31002WAT     H293249   2.380   2.264   5.326
31003WAT      O93250   3.919   8.723   9.351
31003WAT     H193251   3.839   8.679   9.311
31003WAT     H293252   3.962   8.661   9.417
31004WAT      O93253   7.579   4.886   7.325
31004WAT     H193254   7.601   4.795   7.289
31004WAT     H293255   7.581   4.952   7.250
31005WAT      O93256   9.603   7.744   1.230
31005WAT     H193257   9.638   7.678   1.297
31005WAT     H293258   9.553   7.816   1.277
31006WAT      O93259   3.225   2.632   0.264
31006WAT     H193260   3.270   2.672   0.344
31006WAT     H293261   3.245   2.688   0.184
31007WAT      O93262   3.804   2.250   8.846
31007WAT     H193263   3.862   2.323   8.811
31007WAT     H293264   3.861   2.174   8.879
31008WAT      O93265   5.443   7.832   7.385
31008WAT     H193266   5.531   7.849   7.429
31008WAT     H293267   5.394   7.919   7.375
31009WAT      O93268   8.394   6.961   0.335
31009WAT     H193269   8.478   7.013   0.354
31009WAT     H293270   8.315   7.014   0.363
31010WAT      O93271   5.970   6.269   5.104
31010WAT     H193272   6.000   6.309   5.191
31010WAT     H293273   5.907   6.332   5.059
31011WAT      O93274   2.816   3.351   6.155
31011WAT     H193275   2.814   3.317   6.249
31011WAT     H293276   2.786   3.279   6.093
31012WAT      O93277   7.722   2.124   5.515
31012WAT     H193278   7.651   2.140   5.582
31012WAT     H293279   7.754   2.212   5.478
31013WAT      O93280   3.716   4.598   1.690
31013WAT     H193281   3.741   4.628   1.782
31013WAT     H293282   3.773   4.646   1.623
31014WAT      O93283   1.114   5.128   7.494
31014WAT     H193284   1.021   5.163   7.508
31014WAT     H293285   1.167   5.140   7.578
31015WAT      O93286   1.045   3.544   1.656
31015WAT     H193287   1.017   3.455   1.618
31015WAT     H293288   0.977   3.613   1.632
31016WAT      O93289   7.190   0.422   8.044
31016WAT     H193290   7.228   0.363   7.972
31016WAT     H293291   7.122   0.372   8.096
31017WAT      O93292   1.737   1.771   3.376
31017WAT     H193293   1.712   1.742   3.283
31017WAT     H293294   1.782   1.860   3.373
31018WAT      O93295   7.308   3.824   2.565
31018WAT     H193296   7.230   3.832   2.503
31018WAT     H293297   7.365   3.747   2.536
31019WAT      O93298   8.987   3.626   9.021
31019WAT     H193299   9.070   3.681   9.030
31019WAT     H293300   8.912   3.684   8.989
31020WAT      O93301   1.609   3.706   3.302
31020WAT     H193302   1.523   3.736   3.261
31020WAT     H293303   1.662   3.786   3.330
31021WAT      O93304   3.630   5.899   3.592
31021WAT     H193305   3.561   5.936   3.530
31021WAT     H293306   3.618   5.800   3.599
31022WAT      O93307   3.997   0.698   4.934
31022WAT     H193308   4.044   0.653   5.010
31022WAT     H293309   3.913   0.648   4.913
31023WAT      O93310   3.875   1.582   4.773
31023WAT     H193311   3.963   1.541   4.796
31023WAT     H293312   3.816   1.581   4.853
31024WAT      O93313   2.511   5.483   3.493
31024WAT     H193314   2.444   5.502   3.565
31024WAT     H293315   2.466   5.439   3.415
31025WAT      O93316   9.786   9.266   2.176
31025WAT     H193317   9.833   9.355   2.173
31025WAT     H293318   9.688   9.280   2.189
31026WAT      O93319   7.803   3.247   9.553
31026WAT     H193320   7.858   3.225   9.472
31026WAT     H293321   7.748   3.167   9.577
31027WAT      O93322   9.067   6.211   0.444
31027WAT     H193323   9.086   6.246   0.536
31027WAT     H293324   9.081   6.285   0.377
31028WAT      O93325   1.417   2.382   8.867
31028WAT     H193326   1.439   2.342   8.778
31028WAT     H293327   1.459   2.472   8.874
31029WAT      O93328   3.962   8.701   1.144
31029WAT     H193329   3.962   8.757   1.062
31029WAT     H293330   4.009   8.749   1.218
31030WAT      O93331   6.771   5.932   6.437
31030WAT     H193332   6.864   5.967   6.450
31030WAT     H293333   6.756   5.914   6.339
31031WAT      O93334   6.006   4.436   5.218
31031WAT     H193335   5.912   4.464   5.201
31031WAT     H293336   6.069   4.496   5.170
31032WAT      O93337   6.702   5.332   6.422
31032WAT     H193338   6.719   5.234   6.425
31032WAT     H293339   6.783   5.381   6.457
31033WAT      O93340   4.713   9.562   1.969
31033WAT     H193341   4.635   9.506   1.941
31033WAT     H293342   4.782   9.504   2.013
31034WAT      O93343   4.627   8.138   8.306
31034WAT     H193344   4.644   8.214   8.243
31034WAT     H293345   4.560   8.166   8.375
31035WAT      O93346   1.748   5.692   3.856
31035WAT     H193347   1.651   5.715   3.861
31035WAT     H293348   1.775   5.643   3.939
31036WAT      O93349   9.235   8.291   1.420
31036WAT     H193350   9.169   8.331   1.357
31036WAT     H293351   9.316   8.262   1.370
31037WAT      O93352   3.172   7.070   5.897
31037WAT     H193353   3.214   7.068   5.806
31037WAT     H293354   3.126   6.983   5.914
31038WAT      O93355   9.462   0.438   8.903
31038WAT     H193356   9.418   0.359   8.944
31038WAT     H293357   9.408   0.520   8.923
31039WAT      O93358   4.251   2.981   6.110
31039WAT     H193359   4.201   3.055   6.155
31039WAT     H293360   4.260   3.002   6.013
31040WAT      O93361   5.358   9.034   0.677
31040WAT     H193362   5.408   9.101   0.622
31040WAT     H293363   5.421   8.990   0.741
31041WAT      O93364   9.616   3.390   6.441
31041WAT     H193365   9.593   3.305   6.393
31041WAT     H293366   9.532   3.442   6.458
31042WAT      O93367   7.305   6.391   8.772
31042WAT     H193368   7.392   6.371   8.727
31042WAT     H293369   7.322   6.448   8.853
31043WAT      O93370   8.901   7.270   5.109
31043WAT     H193371   8.875   7.184   5.154
31043WAT     H293372   8.993   7.260   5.070
31044WAT      O93373   8.862   8.657   2.255
31044WAT     H193374   8.882   8.742   2.207
31044WAT     H293375   8.939   8.634   2.315
31045WAT      O93376   2.684   0.896   2.753
31045WAT     H193377   2.748   0.953   2.701
31045WAT     H293378   2.646   0.950   2.829
31046WAT      O93379   8.052   9.252   5.565
31046WAT     H193380   7.979   9.186   5.549
31046WAT     H293381   8.072   9.258   5.663
31047WAT      O93382   7.920   9.278   0.452
31047WAT     H193383   8.016   9.292   0.474
31047WAT     H293384   7.884   9.204   0.509
31048WAT      O93385   2.562   8.857   6.564
31048WAT     H193386   2.648   8.887   6.521
31048WAT     H293387   2.564   8.881   6.661
31049WAT      O93388   0.110   4.670   3.022
31049WAT     H193389   0.050   4.745   2.996
31049WAT     H293390   0.112   4.601   2.950
31050WAT      O93391   2.669   6.044   4.656
31050WAT     H193392   2.657   5.957   4.608
31050WAT     H293393   2.702   6.026   4.749
31051WAT      O93394   0.894   8.753   5.727
31051WAT     H193395   0.805   8.796   5.711
31051WAT     H293396   0.926   8.711   5.642
31052WAT      O93397   4.455   6.699   7.807
31052WAT     H193398   4.524   6.629   7.825
31052WAT     H293399   4.367   6.668   7.841
31053WAT      O93400   3.600   3.786   0.692
31053WAT     H193401   3.675   3.737   0.737
31053WAT     H293402   3.516   3.732   0.698
31054WAT      O93403   7.039   7.957   2.155
31054WAT     H193404   6.970   7.981   2.223
31054WAT     H293405   7.019   8.004   2.069
31055WAT      O93406   4.809   0.314   2.838
31055WAT     H193407   4.732   0.254   2.817
31055WAT     H293408   4.840   0.296   2.931
31056WAT      O93409   1.129   8.577   2.350
31056WAT     H193410   1.090   8.667   2.368
31056WAT     H293411   1.056   8.513   2.327
31057WAT      O93412   5.491   2.421   8.992
31057WAT     H193413   5.533   2.468   8.915
31057WAT     H293414   5.561   2.371   9.043
31058WAT      O93415   6.305   3.281   3.603
31058WAT     H193416   6.273   3.202   3.552
31058WAT     H293417   6.402   3.270   3.626
31059WAT      O93418   7.053   4.699   1.283
31059WAT     H193419   6.991   4.720   1.207
31059WAT     H293420   7.001   4.668   1.361
31060WAT      O93421   6.104   6.712   3.072
31060WAT     H193422   6.136   6.662   3.153
31060WAT     H293423   6.168   6.785   3.050
31061WAT      O93424   0.253   6.411   5.985
31061WAT     H193425   0.190   6.350   5.936
31061WAT     H293426   0.205   6.453   6.062
31062WAT      O93427   6.391   5.682   9.865
31062WAT     H193428   6.402   5.602   9.806
31062WAT     H293429   6.468   5.687   9.929
31063WAT      O93430   7.707   3.052   2.457
31063WAT     H193431   7.739   3.005   2.375
31063WAT     H293432   7.675   3.144   2.434
31064WAT      O93433   4.090   0.749   3.734
31064WAT     H193434   4.181   0.784   3.753
31064WAT     H293435   4.079   0.658   3.775
31065WAT      O93436   1.466   2.478   0.699
31065WAT     H193437   1.450   2.577   0.693
31065WAT     H293438   1.561   2.459   0.676
31066WAT      O93439   3.748   8.699   2.270
31066WAT     H193440   3.706   8.609   2.274
31066WAT     H293441   3.753   8.730   2.175
31067WAT      O93442   5.549   8.099   4.816
31067WAT     H193443   5.605   8.076   4.896
31067WAT     H293444   5.476   8.031   4.806
31068WAT      O93445   8.918   1.082   2.503
31068WAT     H193446   8.834   1.073   2.556
31068WAT     H293447   8.917   1.014   2.429
31069WAT      O93448   7.857   8.902   0.105
31069WAT     H193449   7.795   8.872   0.033
31069WAT     H293450   7.825   8.990   0.142
31070WAT      O93451   9.757   6.377   8.304
31070WAT     H193452   9.749   6.326   8.218
31070WAT     H293453   9.726   6.471   8.290
31071WAT      O93454   6.457   3.532   9.508
31071WAT     H193455   6.404   3.466   9.560
31071WAT     H293456   6.540   3.557   9.559
31072WAT      O93457   0.336   6.073   0.635
31072WAT     H193458   0.390   6.153   0.661
31072WAT     H293459   0.302   6.086   0.541
31073WAT      O93460   6.575   2.522   2.764
31073WAT     H193461   6.555   2.568   2.678
31073WAT     H293462   6.623   2.585   2.825
31074WAT      O93463   6.969   1.731   8.985
31074WAT     H193464   6.991   1.688   8.897
31074WAT     H293465   7.027   1.692   9.056
31075WAT      O93466   9.286   6.379   5.866
31075WAT     H193467   9.220   6.307   5.886
31075WAT     H293468   9.360   6.376   5.932
31076WAT      O93469   9.326   5.552   5.387
31076WAT     H193470   9.388   5.484   5.424
31076WAT     H293471   9.372   5.641   5.382
31077WAT      O93472   5.519   7.247   6.639
31077WAT     H193473   5.431   7.272   6.598
31077WAT     H293474   5.593   7.274   6.578
31078WAT      O93475   6.981   4.510   8.887
31078WAT     H193476   7.071   4.548   8.865
31078WAT     H293477   6.926   4.580   8.933
31079WAT      O93478   9.095   0.633   5.564
31079WAT     H193479   9.064   0.579   5.486
31079WAT     H293480   9.165   0.583   5.614
31080WAT      O93481   2.635   0.328   3.341
31080WAT     H193482   2.597   0.256   3.398
31080WAT     H293483   2.734   0.316   3.333
31081WAT      O93484   5.194   9.407   4.244
31081WAT     H193485   5.235   9.495   4.267
31081WAT     H293486   5.129   9.419   4.168
31082WAT      O93487   6.547   1.167   8.750
31082WAT     H193488   6.514   1.119   8.670
31082WAT     H293489   6.619   1.114   8.794
31083WAT      O93490   2.815   7.047   1.071
31083WAT     H193491   2.848   6.960   1.105
31083WAT     H293492   2.749   7.086   1.134
31084WAT      O93493   8.320   0.202   2.804
31084WAT     H193494   8.385   0.127   2.821
31084WAT     H293495   8.242   0.193   2.866
31085WAT      O93496   9.866   1.136   2.701
31085WAT     H193497   9.881   1.097   2.792
31085WAT     H293498   9.936   1.205   2.683
31086WAT      O93499   7.078   2.188   5.585
31086WAT     H193500   7.167   2.155   5.554
31086WAT     H293501   7.012   2.182   5.510
31087WAT      O93502   3.690   7.770   2.189
31087WAT     H193503   3.656   7.681   2.158
31087WAT     H293504   3.778   7.757   2.235
31088WAT      O93505   5.322   7.591   2.502
31088WAT     H193506   5.350   7.518   2.440
31088WAT     H293507   5.301   7.552   2.592
31089WAT      O93508   4.709   8.199   2.922
31089WAT     H193509   4.808   8.202   2.906
31089WAT     H293510   4.669   8.123   2.870
31090WAT      O93511   1.393   3.276   7.145
31090WAT     H193512   1.374   3.256   7.241
31090WAT     H293513   1.410   3.374   7.135
31091WAT      O93514   4.397   3.079   1.448
31091WAT     H193515   4.368   3.080   1.544
31091WAT     H293516   4.322   3.043   1.392
31092WAT      O93517   6.813   4.415   2.238
31092WAT     H193518   6.866   4.331   2.250
31092WAT     H293519   6.785   4.450   2.327
31093WAT      O93520   0.800   2.449   9.356
31093WAT     H193521   0.855   2.459   9.439
31093WAT     H293522   0.703   2.443   9.382
31094WAT      O93523   9.529   7.318   5.626
31094WAT     H193524   9.446   7.343   5.676
31094WAT     H293525   9.610   7.350   5.676
31095WAT      O93526   9.830   5.250   8.196
31095WAT     H193527   9.897   5.222   8.265
31095WAT     H293528   9.780   5.330   8.229
31096WAT      O93529   6.603   3.509   3.437
31096WAT     H193530   6.590   3.460   3.351
31096WAT     H293531   6.558   3.458   3.511
31097WAT      O93532   9.354   5.247   8.030
31097WAT     H193533   9.258   5.263   8.010
31097WAT     H293534   9.362   5.191   8.113
31098WAT      O93535   9.296   1.659   3.590
31098WAT     H193536   9.319   1.738   3.647
31098WAT     H293537   9.209   1.674   3.544
31099WAT      O93538   8.173   1.377   6.617
31099WAT     H193539   8.252   1.434   6.592
31099WAT     H293540   8.091   1.434   6.622
31100WAT      O93541   4.236   5.846   6.323
31100WAT     H193542   4.333   5.870   6.321
31100WAT     H293543   4.181   5.929   6.337
31101WAT      O93544   6.244   4.573   7.822
31101WAT     H193545   6.208   4.559   7.914
31101WAT     H293546   6.206   4.505   7.760
31102WAT      O93547   9.435   9.300   0.201
31102WAT     H193548   9.389   9.226   0.249
31102WAT     H293549   9.466   9.368   0.267
31103WAT      O93550   8.625   2.665   1.155
31103WAT     H193551   8.629   2.624   1.246
31103WAT     H293552   8.704   2.635   1.101
31104WAT      O93553   1.909   4.847   7.496
31104WAT     H193554   1.945   4.779   7.560
31104WAT     H293555   1.836   4.899   7.540
31105WAT      O93556   8.453   0.767   2.185
31105WAT     H193557   8.443   0.866   2.182
31105WAT     H293558   8.377   0.725   2.135
31106WAT      O93559   8.927   9.320   5.673
31106WAT     H193560   9.014   9.270   5.677
31106WAT     H293561   8.886   9.308   5.582
31107WAT      O93562   4.985   1.323   2.170
31107WAT     H193563   4.939   1.247   2.123
31107WAT     H293564   4.924   1.361   2.240
31108WAT      O93565   9.259   4.260   3.853
31108WAT     H193566   9.354   4.268   3.882
31108WAT     H293567   9.254   4.202   3.771
31109WAT      O93568   3.945   1.765   2.005
31109WAT     H193569   3.909   1.803   1.921
31109WAT     H293570   4.006   1.688   1.984
31110WAT      O93571   3.571   3.134   1.337
31110WAT     H193572   3.479   3.115   1.304
31110WAT     H293573   3.576   3.229   1.370
31111WAT      O93574   1.756   1.233   0.823
31111WAT     H193575   1.784   1.200   0.733
31111WAT     H293576   1.690   1.169   0.863
31112WAT      O93577   0.814   5.273   4.707
31112WAT     H193578   0.829   5.366   4.742
31112WAT     H293579   0.716   5.257   4.698
31113WAT      O93580   2.212   6.779   8.844
31113WAT     H193581   2.285   6.718   8.811
31113WAT     H293582   2.233   6.873   8.820
31114WAT      O93583   6.601   9.660   5.463
31114WAT     H193584   6.569   9.623   5.550
31114WAT     H293585   6.524   9.697   5.412
31115WAT      O93586   2.233   6.192   7.804
31115WAT     H193587   2.137   6.213   7.824
31115WAT     H293588   2.282   6.276   7.783
31116WAT      O93589   7.535   5.352   8.775
31116WAT     H193590   7.562   5.286   8.705
31116WAT     H293591   7.437   5.373   8.765
31117WAT      O93592   2.797   6.360   0.230
31117WAT     H193593   2.796   6.457   0.253
31117WAT     H293594   2.704   6.329   0.211
31118WAT      O93595   4.286   6.006   0.748
31118WAT     H193596   4.203   6.010   0.692
31118WAT     H293597   4.344   6.084   0.727
31119WAT      O93598   2.536   3.536   4.263
31119WAT     H193599   2.632   3.543   4.235
31119WAT     H293600   2.524   3.581   4.351
31120WAT      O93601   4.523   3.165   2.034
31120WAT     H193602   4.434   3.177   2.077
31120WAT     H293603   4.549   3.068   2.038
31121WAT      O93604   7.255   3.315   7.512
31121WAT     H193605   7.307   3.363   7.442
31121WAT     H293606   7.164   3.293   7.476
31122WAT      O93607   6.549   2.001   1.281
31122WAT     H193608   6.637   1.961   1.256
31122WAT     H293609   6.485   1.928   1.306
31123WAT      O93610   1.031   2.796   1.279
31123WAT     H193611   1.054   2.879   1.328
31123WAT     H293612   1.104   2.775   1.214
31124WAT      O93613   5.570   6.286   7.545
31124WAT     H193614   5.513   6.368   7.542
31124WAT     H293615   5.523   6.211   7.498
31125WAT      O93616   0.693   3.743   6.892
31125WAT     H193617   0.627   3.810   6.926
31125WAT     H293618   0.668   3.652   6.923
31126WAT      O93619   7.293   5.728   6.907
31126WAT     H193620   7.307   5.652   6.843
31126WAT     H293621   7.368   5.795   6.895
31127WAT      O93622   2.483   3.643   5.795
31127WAT     H193623   2.436   3.682   5.716
31127WAT     H293624   2.564   3.592   5.763
31128WAT      O93625   9.239   3.281   6.675
31128WAT     H193626   9.201   3.365   6.637
31128WAT     H293627   9.314   3.304   6.738
31129WAT      O93628   7.289   1.082   2.965
31129WAT     H193629   7.337   1.002   2.929
31129WAT     H293630   7.220   1.053   3.031
31130WAT      O93631   7.327   8.429   0.093
31130WAT     H193632   7.392   8.500   0.120
31130WAT     H293633   7.241   8.471   0.064
31131WAT      O93634   0.775   4.157   9.698
31131WAT     H193635   0.800   4.077   9.754
31131WAT     H293636   0.678   4.151   9.673
31132WAT      O93637   7.683   6.875   7.364
31132WAT     H193638   7.776   6.852   7.334
31132WAT     H293639   7.619   6.856   7.290
31133WAT      O93640   2.245   2.925   9.529
31133WAT     H193641   2.179   2.935   9.603
31133WAT     H293642   2.305   2.846   9.548
31134WAT      O93643   0.005   1.289   8.470
31134WAT     H193644   0.091   1.238   8.471
31134WAT     H293645   0.021   1.380   8.433
31135WAT      O93646   8.449   1.255   4.984
31135WAT     H193647   8.483   1.323   5.049
31135WAT     H293648   8.372   1.206   5.025
31136WAT      O93649   6.489   8.816   1.161
31136WAT     H193650   6.578   8.795   1.120
31136WAT     H293651   6.443   8.730   1.185
31137WAT      O93652   8.657   5.767   4.065
31137WAT     H193653   8.624   5.709   4.140
31137WAT     H293654   8.733   5.823   4.098
31138WAT      O93655   8.292   4.630   8.938
31138WAT     H193656   8.232   4.588   8.871
31138WAT     H293657   8.270   4.728   8.946
31139WAT      O93658   3.723   1.595   9.526
31139WAT     H193659   3.667   1.605   9.609
31139WAT     H293660   3.768   1.506   9.526
31140WAT      O93661   9.055   2.098   5.273
31140WAT     H193662   8.986   2.136   5.211
31140WAT     H293663   9.019   2.094   5.366
31141WAT      O93664   9.033   8.735   3.693
31141WAT     H193665   8.947   8.714   3.646
31141WAT     H293666   9.027   8.827   3.733
31142WAT      O93667   3.000   4.049   2.344
31142WAT     H193668   2.934   4.124   2.345
31142WAT     H293669   2.952   3.962   2.356
31143WAT      O93670   1.204   9.082   0.480
31143WAT     H193671   1.108   9.092   0.456
31143WAT     H293672   1.261   9.104   0.401
31144WAT      O93673   5.534   6.737   4.440
31144WAT     H193674   5.447   6.745   4.389
31144WAT     H293675   5.514   6.720   4.536
31145WAT      O93676   3.691   1.482   0.223
31145WAT     H193677   3.762   1.510   0.158
31145WAT     H293678   3.696   1.383   0.237
31146WAT      O93679   0.703   4.983   6.397
31146WAT     H193680   0.634   4.928   6.444
31146WAT     H293681   0.790   4.934   6.396
31147WAT      O93682   0.728   2.944   0.693
31147WAT     H193683   0.827   2.932   0.706
31147WAT     H293684   0.681   2.926   0.780
31148WAT      O93685   2.856   5.475   1.746
31148WAT     H193686   2.830   5.550   1.687
31148WAT     H293687   2.848   5.502   1.842
31149WAT      O93688   4.739   5.488   0.068
31149WAT     H193689   4.676   5.412   0.088
31149WAT     H293690   4.703   5.541  -0.008
31150WAT      O93691   4.617   7.652   9.301
31150WAT     H193692   4.682   7.577   9.290
31150WAT     H293693   4.526   7.614   9.320
31151WAT      O93694   6.605   6.464   6.295
31151WAT     H193695   6.619   6.422   6.206
31151WAT     H293696   6.630   6.400   6.367
31152WAT      O93697   0.602   3.179   1.917
31152WAT     H193698   0.698   3.155   1.931
31152WAT     H293699   0.596   3.271   1.879
31153WAT      O93700   3.790   6.101   3.095
31153WAT     H193701   3.867   6.139   3.043
31153WAT     H293702   3.706   6.148   3.070
31154WAT      O93703   8.824   7.029   0.215
31154WAT     H193704   8.899   6.963   0.217
31154WAT     H293705   8.827   7.079   0.128
31155WAT      O93706   8.394   4.680   3.518
31155WAT     H193707   8.368   4.583   3.510
31155WAT     H293708   8.346   4.720   3.596
31156WAT      O93709   3.650   3.881   9.554
31156WAT     H193710   3.657   3.785   9.580
31156WAT     H293711   3.651   3.888   9.454
31157WAT      O93712   3.589   7.870   3.985
31157WAT     H193713   3.492   7.854   3.969
31157WAT     H293714   3.608   7.863   4.083
31158WAT      O93715   3.857   7.845   8.571
31158WAT     H193716   3.915   7.823   8.493
31158WAT     H293717   3.796   7.768   8.590
31159WAT      O93718   5.073   7.678   7.991
31159WAT     H193719   5.066   7.683   8.090
31159WAT     H293720   5.167   7.697   7.963
31160WAT      O93721   3.618   9.787   4.573
31160WAT     H193722   3.665   9.701   4.594
31160WAT     H293723   3.638   9.813   4.478
31161WAT      O93724   7.290   6.434   6.655
31161WAT     H193725   7.203   6.412   6.698
31161WAT     H293726   7.324   6.354   6.605
31162WAT      O93727   3.419   6.234   8.200
31162WAT     H193728   3.514   6.256   8.180
31162WAT     H293729   3.414   6.141   8.237
31163WAT      O93730   3.651   1.954   3.953
31163WAT     H193731   3.553   1.951   3.938
31163WAT     H293732   3.688   2.040   3.916
31164WAT      O93733   7.145   8.652   3.089
31164WAT     H193734   7.226   8.681   3.140
31164WAT     H293735   7.070   8.715   3.107
31165WAT      O93736   4.397   2.897   7.880
31165WAT     H193737   4.396   2.831   7.806
31165WAT     H293738   4.472   2.877   7.943
31166WAT      O93739   9.515   7.445   6.639
31166WAT     H193740   9.572   7.526   6.655
31166WAT     H293741   9.427   7.474   6.600
31167WAT      O93742   5.090   1.816   6.231
31167WAT     H193743   4.992   1.808   6.247
31167WAT     H293744   5.108   1.812   6.132
31168WAT      O93745   1.788   4.153   7.558
31168WAT     H193746   1.851   4.231   7.557
31168WAT     H293747   1.694   4.186   7.543
31169WAT      O93748   9.407   3.319   0.632
31169WAT     H193749   9.370   3.239   0.585
31169WAT     H293750   9.380   3.316   0.728
31170WAT      O93751   3.048   3.567   5.786
31170WAT     H193752   2.996   3.651   5.802
31170WAT     H293753   3.114   3.582   5.711
31171WAT      O93754   3.274   9.272   3.675
31171WAT     H193755   3.335   9.276   3.596
31171WAT     H293756   3.328   9.263   3.758
31172WAT      O93757   1.581   5.723   9.657
31172WAT     H193758   1.621   5.681   9.576
31172WAT     H293759   1.605   5.820   9.659
31173WAT      O93760   5.117   8.709   4.485
31173WAT     H193761   5.018   8.717   4.473
31173WAT     H293762   5.153   8.640   4.422
31174WAT      O93763   2.141   9.615   9.841
31174WAT     H193764   2.061   9.567   9.876
31174WAT     H293765   2.154   9.593   9.744
31175WAT      O93766   0.583   1.616   8.182
31175WAT     H193767   0.643   1.621   8.262
31175WAT     H293768   0.487   1.619   8.212
31176WAT      O93769   7.355   4.018   6.059
31176WAT     H193770   7.259   3.999   6.039
31176WAT     H293771   7.397   4.064   5.981
31177WAT      O93772   2.083   0.884   6.625
31177WAT     H193773   2.022   0.847   6.554
31177WAT     H293774   2.168   0.830   6.626
31178WAT      O93775   4.020   4.876   2.329
31178WAT     H193776   4.006   4.934   2.248
31178WAT     H293777   3.943   4.813   2.338
31179WAT      O93778   2.407   3.911   0.553
31179WAT     H193779   2.316   3.941   0.583
31179WAT     H293780   2.404   3.886   0.457
31180WAT      O93781   9.812   6.411   4.313
31180WAT     H193782   9.839   6.354   4.235
31180WAT     H293783   9.712   6.416   4.317
31181WAT      O93784   9.328   9.271   7.267
31181WAT     H193785   9.331   9.366   7.236
31181WAT     H293786   9.236   9.235   7.251
31182WAT      O93787   4.056   3.597   7.349
31182WAT     H193788   4.130   3.533   7.370
31182WAT     H293789   3.973   3.568   7.397
31183WAT      O93790   3.341   9.673   7.682
31183WAT     H193791   3.298   9.673   7.772
31183WAT     H293792   3.283   9.724   7.618
31184WAT      O93793   7.052   6.976   6.848
31184WAT     H193794   7.092   6.931   6.768
31184WAT     H293795   7.123   7.027   6.896
31185WAT      O93796   6.541   2.659   4.375
31185WAT     H193797   6.551   2.688   4.280
31185WAT     H293798   6.602   2.582   4.393
31186WAT      O93799   8.848   8.015   5.327
31186WAT     H193800   8.835   7.917   5.310
31186WAT     H293801   8.801   8.040   5.412
31187WAT      O93802   6.967   0.536   7.192
31187WAT     H193803   6.874   0.507   7.218
31187WAT     H293804   7.033   0.496   7.256
31188WAT      O93805   0.176   6.753   8.152
31188WAT     H193806   0.192   6.687   8.079
31188WAT     H293807   0.174   6.705   8.240
31189WAT      O93808   0.044   7.324   4.668
31189WAT     H193809  -0.010   7.284   4.594
31189WAT     H293810   0.087   7.251   4.722
31190WAT      O93811   4.505   7.674   7.270
31190WAT     H193812   4.434   7.625   7.319
31190WAT     H293813   4.465   7.718   7.189
31191WAT      O93814   7.655   3.986   5.530
31191WAT     H193815   7.605   4.015   5.449
31191WAT     H293816   7.592   3.980   5.608
31192WAT      O93817   4.328   4.839   0.669
31192WAT     H193818   4.378   4.925   0.682
31192WAT     H293819   4.378   4.782   0.604
31193WAT      O93820   7.021   7.646   2.285
31193WAT     H193821   7.086   7.701   2.338
31193WAT     H293822   6.985   7.572   2.342
31194WAT      O93823   4.731   3.789   0.218
31194WAT     H193824   4.733   3.847   0.137
31194WAT     H293825   4.778   3.703   0.199
31195WAT      O93826   7.213   1.962   6.079
31195WAT     H193827   7.239   1.865   6.075
31195WAT     H293828   7.282   2.012   6.132
31196WAT      O93829   0.249   2.499   7.314
31196WAT     H193830   0.210   2.586   7.343
31196WAT     H293831   0.187   2.454   7.250
31197WAT      O93832   7.010   8.770   1.545
31197WAT     H193833   6.947   8.783   1.621
31197WAT     H293834   6.987   8.833   1.471
31198WAT      O93835   5.494   5.378   2.179
31198WAT     H193836   5.461   5.284   2.179
31198WAT     H293837   5.477   5.420   2.090
31199WAT      O93838   0.228   5.735   3.572
31199WAT     H193839   0.203   5.726   3.668
31199WAT     H293840   0.313   5.787   3.565
31200WAT      O93841   6.291   1.955   2.980
31200WAT     H193842   6.200   1.928   2.951
31200WAT     H293843   6.326   2.027   2.920
31201WAT      O93844   3.375   8.648   0.068
31201WAT     H193845   3.332   8.630  -0.020
31201WAT     H293846   3.435   8.571   0.093
31202WAT      O93847   3.955   3.659   9.131
31202WAT     H193848   4.030   3.723   9.147
31202WAT     H293849   3.909   3.639   9.218
31203WAT      O93850   6.909   8.174   1.497
31203WAT     H193851   6.838   8.186   1.427
31203WAT     H293852   6.911   8.078   1.525
31204WAT      O93853   4.245   5.730   2.306
31204WAT     H193854   4.221   5.826   2.316
31204WAT     H293855   4.188   5.675   2.367
31205WAT      O93856   5.555   0.378   4.053
31205WAT     H193857   5.523   0.387   4.147
31205WAT     H293858   5.477   0.370   3.991
31206WAT      O93859   7.387   2.081   6.520
31206WAT     H193860   7.346   2.172   6.510
31206WAT     H293861   7.318   2.011   6.501
31207WAT      O93862   0.940   3.068   7.680
31207WAT     H193863   1.033   3.092   7.704
31207WAT     H293864   0.876   3.121   7.735
31208WAT      O93865   4.462   8.769   3.759
31208WAT     H193866   4.516   8.779   3.843
31208WAT     H293867   4.502   8.826   3.687
31209WAT      O93868   7.284   7.020   4.514
31209WAT     H193869   7.338   6.941   4.543
31209WAT     H293870   7.313   7.101   4.565
31210WAT      O93871   8.916   7.401   7.173
31210WAT     H193872   8.969   7.464   7.116
31210WAT     H293873   8.867   7.452   7.243
31211WAT      O93874   0.902   3.097   2.981
31211WAT     H193875   0.979   3.062   3.036
31211WAT     H293876   0.937   3.133   2.895
31212WAT      O93877   3.853   4.343   7.620
31212WAT     H193878   3.942   4.342   7.666
31212WAT     H293879   3.830   4.251   7.590
31213WAT      O93880   5.772   5.104   8.064
31213WAT     H193881   5.689   5.114   8.120
31213WAT     H293882   5.753   5.134   7.971
31214WAT      O93883   9.666   4.653   6.831
31214WAT     H193884   9.629   4.588   6.765
31214WAT     H293885   9.757   4.681   6.802
31215WAT      O93886   9.884   3.576   3.076
31215WAT     H193887   9.910   3.608   2.985
31215WAT     H293888   9.834   3.648   3.124
31216WAT      O93889   7.794   3.022   1.077
31216WAT     H193890   7.811   3.092   1.147
31216WAT     H293891   7.862   3.031   1.004
31217WAT      O93892   1.179   2.754   9.700
31217WAT     H193893   1.104   2.706   9.656
31217WAT     H293894   1.256   2.759   9.636
31218WAT      O93895   9.043   0.852   8.499
31218WAT     H193896   9.010   0.759   8.489
31218WAT     H293897   9.110   0.873   8.428
31219WAT      O93898   4.426   4.873   7.938
31219WAT     H193899   4.496   4.944   7.948
31219WAT     H293900   4.341   4.904   7.981
31220WAT      O93901   8.616   1.008   3.087
31220WAT     H193902   8.598   1.064   3.168
31220WAT     H293903   8.617   0.911   3.113
31221WAT      O93904   0.542   4.057   2.123
31221WAT     H193905   0.511   3.970   2.084
31221WAT     H293906   0.510   4.064   2.217
31222WAT      O93907   6.342   9.460   2.272
31222WAT     H193908   6.417   9.473   2.208
31222WAT     H293909   6.342   9.366   2.305
31223WAT      O93910   4.874   7.401   4.154
31223WAT     H193911   4.808   7.438   4.220
31223WAT     H293912   4.947   7.467   4.138
31224WAT      O93913   9.157   4.167   5.008
31224WAT     H193914   9.149   4.267   5.005
31224WAT     H293915   9.236   4.139   4.953
31225WAT      O93916   2.624   5.224   7.008
31225WAT     H193917   2.654   5.152   6.946
31225WAT     H293918   2.685   5.229   7.087
31226WAT      O93919   1.567   8.274   1.544
31226WAT     H193920   1.482   8.320   1.517
31226WAT     H293921   1.564   8.179   1.514
31227WAT      O93922   3.964   5.686   2.827
31227WAT     H193923   3.974   5.732   2.915
31227WAT     H293924   4.043   5.705   2.769
31228WAT      O93925   5.344   7.749   0.443
31228WAT     H193926   5.391   7.825   0.397
31228WAT     H293927   5.412   7.680   0.470
31229WAT      O93928   1.591   2.991   5.180
31229WAT     H193929   1.660   3.062   5.195
31229WAT     H293930   1.501   3.027   5.206
31230WAT      O93931   9.886   6.058   5.797
31230WAT     H193932   9.792   6.084   5.778
31230WAT     H293933   9.947   6.130   5.763
31231WAT      O93934   1.255   4.528   7.432
31231WAT     H193935   1.240   4.582   7.350
31231WAT     H293936   1.187   4.455   7.438
31232WAT      O93937   4.798   2.587   4.156
31232WAT     H193938   4.860   2.626   4.088
31232WAT     H293939   4.839   2.598   4.247
31233WAT      O93940   3.583   2.519   5.741
31233WAT     H193941   3.537   2.457   5.804
31233WAT     H293942   3.667   2.477   5.707
31234WAT      O93943   0.955   7.085   5.256
31234WAT     H193944   0.958   7.061   5.159
31234WAT     H293945   0.860   7.086   5.287
31235WAT      O93946   3.185   2.174   7.190
31235WAT     H193947   3.088   2.155   7.175
31235WAT     H293948   3.223   2.106   7.252
31236WAT      O93949   1.417   4.640   1.381
31236WAT     H193950   1.395   4.577   1.456
31236WAT     H293951   1.333   4.662   1.331
31237WAT      O93952   4.575   7.955   9.524
31237WAT     H193953   4.642   7.990   9.589
31237WAT     H293954   4.617   7.945   9.434
31238WAT      O93955   5.827   0.088   2.260
31238WAT     H193956   5.926   0.096   2.263
31238WAT     H293957   5.801   0.025   2.187
31239WAT      O93958   2.117   5.506   5.476
31239WAT     H193959   2.210   5.533   5.453
31239WAT     H293960   2.062   5.501   5.392
31240WAT      O93961   3.470   8.199   6.437
31240WAT     H193962   3.456   8.297   6.444
31240WAT     H293963   3.382   8.152   6.435
31241WAT      O93964   2.087   2.736   7.145
31241WAT     H193965   2.076   2.802   7.071
31241WAT     H293966   2.174   2.688   7.134
31242WAT      O93967   2.664   5.318   8.165
31242WAT     H193968   2.576   5.320   8.118
31242WAT     H293969   2.662   5.383   8.241
31243WAT      O93970   6.604   6.363   6.038
31243WAT     H193971   6.533   6.342   5.971
31243WAT     H293972   6.651   6.279   6.064
31244WAT      O93973   0.204   7.840   2.625
31244WAT     H193974   0.185   7.771   2.555
31244WAT     H293975   0.127   7.903   2.632
31245WAT      O93976   3.786   5.943   2.850
31245WAT     H193977   3.876   5.959   2.808
31245WAT     H293978   3.792   5.960   2.948
31246WAT      O93979   9.742   0.555   2.960
31246WAT     H193980   9.693   0.640   2.977
31246WAT     H293981   9.818   0.572   2.897
31247WAT      O93982   4.004   2.681   4.742
31247WAT     H193983   4.070   2.606   4.736
31247WAT     H293984   4.053   2.768   4.740
31248WAT      O93985   0.686   2.374   9.020
31248WAT     H193986   0.719   2.379   9.114
31248WAT     H293987   0.730   2.297   8.974
31249WAT      O93988   8.218   3.749   3.058
31249WAT     H193989   8.305   3.707   3.084
31249WAT     H293990   8.210   3.838   3.104
31250WAT      O93991   4.953   1.267   3.151
31250WAT     H193992   4.997   1.282   3.063
31250WAT     H293993   4.859   1.235   3.138
31251WAT      O93994   1.290   3.765   5.619
31251WAT     H193995   1.319   3.669   5.623
31251WAT     H293996   1.361   3.820   5.576
31252WAT      O93997   6.582   6.853   6.989
31252WAT     H193998   6.596   6.756   7.012
31252WAT     H293999   6.655   6.883   6.928
31253WAT      O94000   2.140   6.517   8.361
31253WAT     H194001   2.049   6.529   8.323
31253WAT     H294002   2.200   6.590   8.328
31254WAT      O94003   7.171   4.400   0.539
31254WAT     H194004   7.116   4.410   0.622
31254WAT     H294005   7.256   4.352   0.561
31255WAT      O94006   7.338   7.259   5.884
31255WAT     H194007   7.423   7.231   5.927
31255WAT     H294008   7.302   7.184   5.828
31256WAT      O94009   4.552   6.544   5.040
31256WAT     H194010   4.512   6.454   5.026
31256WAT     H294011   4.622   6.561   4.971
31257WAT      O94012   0.074   2.596   8.731
31257WAT     H194013   0.043   2.609   8.637
31257WAT     H294014   0.053   2.677   8.785
31258WAT      O94015   0.499   6.810   2.309
31258WAT     H194016   0.478   6.897   2.263
31258WAT     H294017   0.522   6.828   2.405
31259WAT      O94018   0.158   8.734   1.058
31259WAT     H194019   0.071   8.771   1.090
31259WAT     H294020   0.142   8.671   0.982
31260WAT      O94021   2.244   2.645   6.646
31260WAT     H194022   2.278   2.573   6.707
31260WAT     H294023   2.258   2.735   6.689
31261WAT      O94024   6.693   8.217   0.870
31261WAT     H194025   6.688   8.141   0.805
31261WAT     H294026   6.776   8.208   0.925
31262WAT      O94027   3.207   7.681   7.920
31262WAT     H194028   3.295   7.637   7.903
31262WAT     H294029   3.218   7.780   7.915
31263WAT      O94030   9.622   8.435   8.805
31263WAT     H194031   9.569   8.364   8.758
31263WAT     H294032   9.706   8.396   8.841
31264WAT      O94033   7.241   4.608   8.814
31264WAT     H194034   7.326   4.617   8.865
31264WAT     H294035   7.262   4.587   8.718
31265WAT      O94036   1.416   2.699   4.883
31265WAT     H194037   1.376   2.748   4.961
31265WAT     H294038   1.347   2.691   4.810
31266WAT      O94039   3.554   2.754   7.409
31266WAT     H194040   3.617   2.685   7.374
31266WAT     H294041   3.473   2.710   7.447
31267WAT      O94042   4.932   1.015   0.916
31267WAT     H194043   5.023   1.049   0.938
31267WAT     H294044   4.905   0.947   0.984
31268WAT      O94045   3.223   2.991   9.614
31268WAT     H194046   3.276   2.909   9.632
31268WAT     H294047   3.252   3.032   9.528
31269WAT      O94048   9.173   4.283   7.879
31269WAT     H194049   9.207   4.233   7.799
31269WAT     H294050   9.250   4.320   7.931
31270WAT      O94051   6.566   0.482   4.020
31270WAT     H194052   6.518   0.454   3.937
31270WAT     H294053   6.512   0.549   4.070
31271WAT      O94054   2.893   6.444   5.387
31271WAT     H194055   2.928   6.437   5.480
31271WAT     H294056   2.965   6.482   5.327
31272WAT      O94057   6.866   3.244   8.096
31272WAT     H194058   6.823   3.266   8.183
31272WAT     H294059   6.926   3.165   8.108
31273WAT      O94060   5.789   0.959   2.013
31273WAT     H194061   5.812   1.030   2.079
31273WAT     H294062   5.788   0.999   1.921
31274WAT      O94063   2.443   7.384   5.893
31274WAT     H194064   2.412   7.464   5.944
31274WAT     H294065   2.474   7.411   5.802
31275WAT      O94066   0.180   8.568   8.085
31275WAT     H194067   0.099   8.627   8.085
31275WAT     H294068   0.260   8.621   8.059
31276WAT      O94069   1.301   8.361   1.531
31276WAT     H194070   1.336   8.442   1.578
31276WAT     H294071   1.253   8.389   1.448
31277WAT      O94072   7.951   3.355   8.003
31277WAT     H194073   7.940   3.353   8.103
31277WAT     H294074   8.038   3.398   7.980
31278WAT      O94075   9.374   0.128   0.239
31278WAT     H194076   9.450   0.127   0.304
31278WAT     H294077   9.373   0.043   0.186
31279WAT      O94078   1.801   3.818   6.284
31279WAT     H194079   1.730   3.749   6.274
31279WAT     H294080   1.891   3.774   6.280
31280WAT      O94081   3.592   2.738   0.228
31280WAT     H194082   3.635   2.761   0.141
31280WAT     H294083   3.643   2.780   0.303
31281WAT      O94084   5.055   8.799   1.524
31281WAT     H194085   5.044   8.706   1.489
31281WAT     H294086   4.990   8.814   1.599
31282WAT      O94087   4.262   3.986   8.406
31282WAT     H194088   4.273   4.085   8.392
31282WAT     H294089   4.188   3.970   8.471
31283WAT      O94090   8.333   1.397   0.842
31283WAT     H194091   8.417   1.429   0.886
31283WAT     H294092   8.307   1.462   0.770
31284WAT      O94093   3.752   7.165   4.168
31284WAT     H194094   3.755   7.234   4.095
31284WAT     H294095   3.800   7.201   4.249
31285WAT      O94096   6.176   9.660   9.638
31285WAT     H194097   6.209   9.754   9.651
31285WAT     H294098   6.236   9.612   9.574
31286WAT      O94099   5.769   1.501   4.953
31286WAT     H194100   5.680   1.543   4.969
31286WAT     H294101   5.796   1.450   5.034
31287WAT      O94102   6.432   9.296   5.591
31287WAT     H194103   6.502   9.257   5.652
31287WAT     H294104   6.349   9.241   5.596
31288WAT      O94105   1.340   0.018   8.945
31288WAT     H194106   1.419   0.078   8.956
31288WAT     H294107   1.337  -0.016   8.851
31289WAT      O94108   8.990   2.785   0.309
31289WAT     H194109   9.076   2.753   0.348
31289WAT     H294110   8.933   2.825   0.381
31290WAT      O94111   6.227   8.441   5.608
31290WAT     H194112   6.245   8.356   5.560
31290WAT     H294113   6.145   8.432   5.664
31291WAT      O94114   0.889   4.240   6.806
31291WAT     H194115   0.982   4.277   6.800
31291WAT     H294116   0.888   4.159   6.865
31292WAT      O94117   9.294   3.383   2.220
31292WAT     H194118   9.299   3.456   2.288
31292WAT     H294119   9.209   3.332   2.232
31293WAT      O94120   7.556   8.031   3.795
31293WAT     H194121   7.469   8.003   3.754
31293WAT     H294122   7.574   8.127   3.772
31294WAT      O94123   8.149   4.351   1.649
31294WAT     H194124   8.130   4.434   1.596
31294WAT     H294125   8.248   4.343   1.663
31295WAT      O94126   1.697   0.082   4.792
31295WAT     H194127   1.650   0.017   4.851
31295WAT     H294128   1.788   0.100   4.828
31296WAT      O94129   3.523   1.344   7.651
31296WAT     H194130   3.623   1.354   7.660
31296WAT     H294131   3.487   1.421   7.600
31297WAT      O94132   5.674   7.777   2.286
31297WAT     H194133   5.659   7.795   2.383
31297WAT     H294134   5.605   7.827   2.233
31298WAT      O94135   9.339   0.366   7.890
31298WAT     H194136   9.295   0.445   7.848
31298WAT     H294137   9.275   0.289   7.890
31299WAT      O94138   4.871   2.967   1.868
31299WAT     H194139   4.785   3.018   1.860
31299WAT     H294140   4.855   2.871   1.845
31300WAT      O94141   1.611   6.654   6.218
31300WAT     H194142   1.512   6.641   6.229
31300WAT     H294143   1.628   6.712   6.139
31301WAT      O94144   5.613   3.153   8.032
31301WAT     H194145   5.617   3.122   8.127
31301WAT     H294146   5.705   3.148   7.992
31302WAT      O94147   4.903   1.060   2.057
31302WAT     H194148   4.956   0.977   2.073
31302WAT     H294149   4.830   1.041   1.993
31303WAT      O94150   0.967   4.237   5.195
31303WAT     H194151   0.870   4.238   5.169
31303WAT     H294152   0.974   4.229   5.295
31304WAT      O94153   8.774   6.958   0.635
31304WAT     H194154   8.730   6.911   0.711
31304WAT     H294155   8.722   7.041   0.613
31305WAT      O94156   1.527   8.049   3.929
31305WAT     H194157   1.468   8.129   3.940
31305WAT     H294158   1.574   8.031   4.015
31306WAT      O94159   6.420   5.442   0.223
31306WAT     H194160   6.324   5.463   0.239
31306WAT     H294161   6.477   5.517   0.255
31307WAT      O94162   7.474   1.482   4.921
31307WAT     H194163   7.430   1.392   4.929
31307WAT     H294164   7.424   1.548   4.976
31308WAT      O94165   2.904   7.821   7.879
31308WAT     H194166   2.942   7.762   7.808
31308WAT     H294167   2.926   7.916   7.857
31309WAT      O94168   2.210   4.127   0.941
31309WAT     H194169   2.297   4.084   0.965
31309WAT     H294170   2.135   4.074   0.981
31310WAT      O94171   0.222   3.837   8.456
31310WAT     H194172   0.280   3.763   8.421
31310WAT     H294173   0.194   3.815   8.550
31311WAT      O94174   3.315   3.475   6.529
31311WAT     H194175   3.341   3.570   6.514
31311WAT     H294176   3.263   3.442   6.450
31312WAT      O94177   9.207   0.147   0.451
31312WAT     H194178   9.254   0.086   0.516
31312WAT     H294179   9.265   0.161   0.371
31313WAT      O94180   5.565   7.515   2.596
31313WAT     H194181   5.545   7.423   2.628
31313WAT     H294182   5.491   7.547   2.536
31314WAT      O94183   5.898   9.438   1.567
31314WAT     H194184   5.903   9.500   1.645
31314WAT     H294185   5.909   9.490   1.482
31315WAT      O94186   5.831   4.150   4.227
31315WAT     H194187   5.861   4.059   4.198
31315WAT     H294188   5.826   4.153   4.327
31316WAT      O94189   5.404   2.225   9.437
31316WAT     H194190   5.351   2.150   9.398
31316WAT     H294191   5.489   2.237   9.384
31317WAT      O94192   2.020   9.469   3.041
31317WAT     H194193   1.962   9.499   3.116
31317WAT     H294194   2.116   9.484   3.064
31318WAT      O94195   4.319   5.267   6.187
31318WAT     H194196   4.293   5.178   6.224
31318WAT     H294197   4.280   5.279   6.096
31319WAT      O94198   6.586   3.936   2.818
31319WAT     H194199   6.606   3.945   2.721
31319WAT     H294200   6.488   3.945   2.832
31320WAT      O94201   5.249   6.544   7.236
31320WAT     H194202   5.299   6.550   7.149
31320WAT     H294203   5.239   6.635   7.276
31321WAT      O94204   0.779   0.691   3.428
31321WAT     H194205   0.803   0.621   3.360
31321WAT     H294206   0.851   0.697   3.496
31322WAT      O94207   1.266   3.724   8.635
31322WAT     H194208   1.315   3.760   8.714
31322WAT     H294209   1.267   3.793   8.562
31323WAT      O94210   4.677   4.302   2.948
31323WAT     H194211   4.592   4.331   2.991
31323WAT     H294212   4.687   4.203   2.956
31324WAT      O94213   0.026   2.679   0.620
31324WAT     H194214   0.034   2.767   0.666
31324WAT     H294215   0.006   2.607   0.686
31325WAT      O94216   4.871   0.309   3.132
31325WAT     H194217   4.849   0.212   3.143
31325WAT     H294218   4.837   0.360   3.212
31326WAT      O94219   2.627   1.445   2.501
31326WAT     H194220   2.584   1.411   2.417
31326WAT     H294221   2.724   1.422   2.501
31327WAT      O94222   1.096   4.712   2.473
31327WAT     H194223   1.100   4.615   2.448
31327WAT     H294224   1.117   4.768   2.393
31328WAT      O94225   3.563   3.015   6.135
31328WAT     H194226   3.628   2.998   6.061
31328WAT     H294227   3.601   3.082   6.199
31329WAT      O94228   9.696   0.157   4.710
31329WAT     H194229   9.675   0.196   4.621
31329WAT     H294230   9.657   0.065   4.716
31330WAT      O94231   5.337   8.565   7.289
31330WAT     H194232   5.383   8.589   7.375
31330WAT     H294233   5.339   8.644   7.228
31331WAT      O94234   8.962   1.083   8.031
31331WAT     H194235   8.953   1.169   7.980
31331WAT     H294236   8.970   1.007   7.967
31332WAT      O94237   4.628   8.564   7.705
31332WAT     H194238   4.574   8.589   7.625
31332WAT     H294239   4.675   8.645   7.740
31333WAT      O94240   5.283   7.753   2.118
31333WAT     H194241   5.221   7.823   2.083
31333WAT     H294242   5.238   7.702   2.192
31334WAT      O94243   9.848   2.620   8.476
31334WAT     H194244   9.775   2.644   8.412
31334WAT     H294245   9.931   2.671   8.454
31335WAT      O94246   9.875   1.882   4.915
31335WAT     H194247   9.894   1.932   4.830
31335WAT     H294248   9.842   1.946   4.985
31336WAT      O94249   1.202   0.637   9.214
31336WAT     H194250   1.188   0.589   9.301
31336WAT     H294251   1.190   0.735   9.227
31337WAT      O94252   0.075   2.171   5.664
31337WAT     H194253   0.160   2.218   5.687
31337WAT     H294254   0.014   2.235   5.617
31338WAT      O94255   7.968   4.905   7.500
31338WAT     H194256   8.034   4.844   7.455
31338WAT     H294257   7.986   4.999   7.472
31339WAT      O94258   6.842   4.635   1.451
31339WAT     H194259   6.759   4.633   1.397
31339WAT     H294260   6.848   4.723   1.499
31340WAT      O94261   4.047   8.011   5.400
31340WAT     H194262   4.048   8.069   5.318
31340WAT     H294263   4.131   8.027   5.453
31341WAT      O94264   2.414   7.970   3.304
31341WAT     H194265   2.365   7.882   3.298
31341WAT     H294266   2.348   8.044   3.296
31342WAT      O94267   1.101   5.895   1.752
31342WAT     H194268   1.111   5.815   1.811
31342WAT     H294269   1.176   5.959   1.770
31343WAT      O94270   9.741   4.831   2.447
31343WAT     H194271   9.765   4.735   2.434
31343WAT     H294272   9.821   4.881   2.482
31344WAT      O94273   0.296   9.564   9.786
31344WAT     H194274   0.390   9.557   9.820
31344WAT     H294275   0.233   9.571   9.864
31345WAT      O94276   6.783   2.120   0.806
31345WAT     H194277   6.876   2.152   0.792
31345WAT     H294278   6.725   2.197   0.833
31346WAT      O94279   2.941   6.236   7.996
31346WAT     H194280   3.038   6.213   7.993
31346WAT     H294281   2.891   6.177   7.932
31347WAT      O94282   4.678   4.068   5.278
31347WAT     H194283   4.712   3.995   5.220
31347WAT     H294284   4.594   4.038   5.324
31348WAT      O94285   3.955   0.159   4.342
31348WAT     H194286   3.982   0.080   4.287
31348WAT     H294287   4.020   0.234   4.326
31349WAT      O94288   6.461   7.493   1.725
31349WAT     H194289   6.375   7.506   1.674
31349WAT     H294290   6.521   7.431   1.675
31350WAT      O94291   9.853   8.439   9.195
31350WAT     H194292   9.915   8.410   9.122
31350WAT     H294293   9.775   8.487   9.155
31351WAT      O94294   5.654   7.074   3.402
31351WAT     H194295   5.606   7.082   3.489
31351WAT     H294296   5.740   7.026   3.415
31352WAT      O94297   6.367   5.341   3.610
31352WAT     H194298   6.394   5.388   3.694
31352WAT     H294299   6.443   5.343   3.545
31353WAT      O94300   4.252   9.789   1.330
31353WAT     H194301   4.266   9.690   1.337
31353WAT     H294302   4.154   9.809   1.336
31354WAT      O94303   5.835   2.767   7.268
31354WAT     H194304   5.908   2.826   7.234
31354WAT     H294305   5.816   2.790   7.364
31355WAT      O94306   1.500   7.721   6.132
31355WAT     H194307   1.502   7.671   6.045
31355WAT     H294308   1.553   7.671   6.201
31356WAT      O94309   2.791   4.320   1.161
31356WAT     H194310   2.868   4.324   1.097
31356WAT     H294311   2.797   4.397   1.225
31357WAT      O94312   5.068   0.058   1.363
31357WAT     H194313   5.012   0.138   1.343
31357WAT     H294314   5.158   0.088   1.396
31358WAT      O94315   2.581   9.809   9.496
31358WAT     H194316   2.587   9.880   9.565
31358WAT     H294317   2.521   9.736   9.528
31359WAT      O94318   5.039   7.928   9.137
31359WAT     H194319   5.070   7.990   9.210
31359WAT     H294320   5.024   7.837   9.176
31360WAT      O94321   9.491   0.340   4.122
31360WAT     H194322   9.537   0.274   4.181
31360WAT     H294323   9.392   0.324   4.126
31361WAT      O94324   3.550   8.798   5.694
31361WAT     H194325   3.500   8.855   5.759
31361WAT     H294326   3.494   8.786   5.612
31362WAT      O94327   7.962   3.260   8.645
31362WAT     H194328   8.011   3.211   8.717
31362WAT     H294329   8.020   3.334   8.610
31363WAT      O94330   7.973   1.260   7.451
31363WAT     H194331   7.973   1.340   7.392
31363WAT     H294332   8.065   1.222   7.455
31364WAT      O94333   7.390   6.151   2.033
31364WAT     H194334   7.397   6.079   1.963
31364WAT     H294335   7.437   6.121   2.116
31365WAT      O94336   5.577   4.170   1.951
31365WAT     H194337   5.622   4.260   1.949
31365WAT     H294338   5.610   4.115   1.874
31366WAT      O94339   4.667   1.419   1.795
31366WAT     H194340   4.738   1.480   1.829
31366WAT     H294341   4.612   1.386   1.871
31367WAT      O94342   3.263   2.276   3.784
31367WAT     H194343   3.343   2.250   3.839
31367WAT     H294344   3.228   2.364   3.815
31368WAT      O94345   0.124   1.383   8.238
31368WAT     H194346   0.220   1.370   8.261
31368WAT     H294347   0.083   1.294   8.214
31369WAT      O94348   8.458   2.557   0.094
31369WAT     H194349   8.473   2.460   0.112
31369WAT     H294350   8.513   2.585   0.015
31370WAT      O94351   5.231   7.069   8.230
31370WAT     H194352   5.221   7.003   8.305
31370WAT     H294353   5.162   7.141   8.240
31371WAT      O94354   8.745   4.903   6.366
31371WAT     H194355   8.840   4.923   6.344
31371WAT     H294356   8.736   4.806   6.388
31372WAT      O94357   3.630   4.900   9.592
31372WAT     H194358   3.601   4.995   9.596
31372WAT     H294359   3.729   4.894   9.588
31373WAT      O94360   3.146   6.265   1.488
31373WAT     H194361   3.212   6.190   1.484
31373WAT     H294362   3.053   6.228   1.491
31374WAT      O94363   4.389   7.113   3.808
31374WAT     H194364   4.312   7.138   3.867
31374WAT     H294365   4.424   7.024   3.835
31375WAT      O94366   6.525   8.156   9.563
31375WAT     H194367   6.482   8.067   9.583
31375WAT     H294368   6.611   8.163   9.614
31376WAT      O94369   3.318   5.091   9.018
31376WAT     H194370   3.379   5.164   8.987
31376WAT     H294371   3.225   5.127   9.028
31377WAT      O94372   1.090   0.182   3.289
31377WAT     H194373   1.067   0.279   3.300
31377WAT     H294374   1.029   0.142   3.220
31378WAT      O94375   8.563   1.488   4.188
31378WAT     H194376   8.542   1.442   4.274
31378WAT     H294377   8.480   1.530   4.151
31379WAT      O94378   1.498   9.560   9.663
31379WAT     H194379   1.505   9.655   9.634
31379WAT     H294380   1.589   9.524   9.683
31380WAT      O94381   1.566   7.747   8.658
31380WAT     H194382   1.644   7.716   8.603
31380WAT     H294383   1.539   7.674   8.721
31381WAT      O94384   5.913   3.038   3.844
31381WAT     H194385   5.847   2.977   3.800
31381WAT     H294386   6.001   3.030   3.799
31382WAT      O94387   6.025   9.276   4.576
31382WAT     H194388   5.946   9.248   4.521
31382WAT     H294389   6.084   9.336   4.521
31383WAT      O94390   5.548   8.334   8.169
31383WAT     H194391   5.526   8.351   8.073
31383WAT     H294392   5.511   8.245   8.196
31384WAT      O94393   9.195   2.687   6.531
31384WAT     H194394   9.225   2.610   6.474
31384WAT     H294395   9.195   2.659   6.628
31385WAT      O94396   4.889   6.216   9.087
31385WAT     H194397   4.969   6.265   9.122
31385WAT     H294398   4.806   6.267   9.111
31386WAT      O94399   9.822   7.505   3.584
31386WAT     H194400   9.785   7.488   3.676
31386WAT     H294401   9.856   7.599   3.579
31387WAT      O94402   0.878   1.726   6.789
31387WAT     H194403   0.949   1.697   6.854
31387WAT     H294404   0.915   1.723   6.696
31388WAT      O94405   2.159   7.384   2.223
31388WAT     H194406   2.221   7.420   2.153
31388WAT     H294407   2.071   7.360   2.181
31389WAT      O94408   9.441   9.131   4.005
31389WAT     H194409   9.531   9.154   4.040
31389WAT     H294410   9.398   9.214   3.968
31390WAT      O94411   7.068   7.102   8.708
31390WAT     H194412   7.113   7.126   8.794
31390WAT     H294413   6.979   7.062   8.727
31391WAT      O94414   7.160   1.409   1.115
31391WAT     H194415   7.083   1.390   1.055
31391WAT     H294416   7.214   1.326   1.128
31392WAT      O94417   9.874   8.444   4.750
31392WAT     H194418   9.852   8.365   4.694
31392WAT     H294419   9.938   8.503   4.701
31393WAT      O94420   5.619   2.878   2.715
31393WAT     H194421   5.633   2.974   2.693
31393WAT     H294422   5.702   2.840   2.756
31394WAT      O94423   2.722   3.850   8.376
31394WAT     H194424   2.758   3.928   8.428
31394WAT     H294425   2.782   3.830   8.298
31395WAT      O94426   8.891   1.192   8.265
31395WAT     H194427   8.866   1.123   8.333
31395WAT     H294428   8.901   1.148   8.175
31396WAT      O94429   3.854   8.998   8.086
31396WAT     H194430   3.842   9.014   8.184
31396WAT     H294431   3.935   8.941   8.072
31397WAT      O94432   3.984   9.839   0.165
31397WAT     H194433   4.057   9.804   0.105
31397WAT     H294434   3.895   9.822   0.123
31398WAT      O94435   8.874   0.133   6.304
31398WAT     H194436   8.777   0.110   6.309
31398WAT     H294437   8.907   0.122   6.211
31399WAT      O94438   9.686   0.604   7.159
31399WAT     H194439   9.743   0.654   7.224
31399WAT     H294440   9.667   0.512   7.195
31400WAT      O94441   8.419   8.105   4.180
31400WAT     H194442   8.353   8.112   4.105
31400WAT     H294443   8.423   8.011   4.213
31401WAT      O94444   2.958   5.086   6.340
31401WAT     H194445   2.987   4.999   6.299
31401WAT     H294446   3.037   5.134   6.376
31402WAT      O94447   7.543   5.917   9.128
31402WAT     H194448   7.489   5.926   9.044
31402WAT     H294449   7.483   5.928   9.207
31403WAT      O94450   1.393   9.476   4.957
31403WAT     H194451   1.320   9.543   4.966
31403WAT     H294452   1.393   9.439   4.864
31404WAT      O94453   9.723   1.446   7.452
31404WAT     H194454   9.684   1.525   7.499
31404WAT     H294455   9.778   1.393   7.517
31405WAT      O94456   1.742   3.940   0.273
31405WAT     H194457   1.698   3.885   0.202
31405WAT     H294458   1.676   3.957   0.347
31406WAT      O94459   3.651   3.455   0.270
31406WAT     H194460   3.728   3.485   0.214
31406WAT     H294461   3.684   3.432   0.362
31407WAT      O94462   4.226   7.050   7.136
31407WAT     H194463   4.287   6.971   7.139
31407WAT     H294464   4.190   7.067   7.228
31408WAT      O94465   9.209   6.811   2.300
31408WAT     H194466   9.148   6.745   2.257
31408WAT     H294467   9.300   6.804   2.258
31409WAT      O94468   8.113   1.312   9.084
31409WAT     H194469   8.039   1.373   9.113
31409WAT     H294470   8.073   1.228   9.045
31410WAT      O94471   2.017   7.279   4.121
31410WAT     H194472   1.939   7.246   4.174
31410WAT     H294473   2.061   7.354   4.170
31411WAT      O94474   2.517   7.096   3.793
31411WAT     H194475   2.519   7.025   3.864
31411WAT     H294476   2.609   7.134   3.782
31412WAT      O94477   7.923   8.017   4.453
31412WAT     H194478   7.897   8.110   4.426
31412WAT     H294479   7.845   7.956   4.442
31413WAT      O94480   1.481   0.590   9.689
31413WAT     H194481   1.562   0.623   9.641
31413WAT     H294482   1.505   0.570   9.785
31414WAT      O94483   0.664   2.350   5.220
31414WAT     H194484   0.608   2.326   5.140
31414WAT     H294485   0.694   2.267   5.266
31415WAT      O94486   0.728   3.139   1.636
31415WAT     H194487   0.643   3.166   1.682
31415WAT     H294488   0.715   3.050   1.592
31416WAT      O94489   4.900   6.545   9.337
31416WAT     H194490   4.944   6.553   9.427
31416WAT     H294491   4.802   6.560   9.346
31417WAT      O94492   5.534   9.796   3.031
31417WAT     H194493   5.615   9.843   2.997
31417WAT     H294494   5.561   9.726   3.097
31418WAT      O94495   8.115   8.143   0.265
31418WAT     H194496   8.068   8.055   0.270
31418WAT     H294497   8.103   8.191   0.352
31419WAT      O94498   8.656   2.673   5.276
31419WAT     H194499   8.626   2.757   5.321
31419WAT     H294500   8.578   2.611   5.265
31420WAT      O94501   0.193   2.465   6.569
31420WAT     H194502   0.163   2.377   6.607
31420WAT     H294503   0.270   2.499   6.623
31421WAT      O94504   7.009   8.019   4.195
31421WAT     H194505   6.933   8.001   4.134
31421WAT     H294506   7.074   8.082   4.151
31422WAT      O94507   4.335   6.783   7.191
31422WAT     H194508   4.384   6.845   7.252
31422WAT     H294509   4.390   6.701   7.175
31423WAT      O94510   9.691   7.754   3.906
31423WAT     H194511   9.676   7.668   3.858
31423WAT     H294512   9.787   7.763   3.930
31424WAT      O94513   8.013   7.516   0.912
31424WAT     H194514   8.034   7.594   0.971
31424WAT     H294515   7.924   7.477   0.938
31425WAT      O94516   6.188   4.192   9.614
31425WAT     H194517   6.236   4.214   9.528
31425WAT     H294518   6.197   4.095   9.633
31426WAT      O94519   9.206   9.054   3.278
31426WAT     H194520   9.168   8.965   3.252
31426WAT     H294521   9.304   9.045   3.293
31427WAT      O94522   4.558   6.098   0.034
31427WAT     H194523   4.571   6.013  -0.016
31427WAT     H294524   4.645   6.127   0.075
31428WAT      O94525   1.909   9.812   2.054
31428WAT     H194526   1.961   9.885   2.100
31428WAT     H294527   1.973   9.749   2.011
31429WAT      O94528   0.817   8.062   2.682
31429WAT     H194529   0.771   8.150   2.694
31429WAT     H294530   0.830   8.019   2.771
31430WAT      O94531   8.933   7.332   1.588
31430WAT     H194532   8.984   7.247   1.585
31430WAT     H294533   8.990   7.407   1.555
31431WAT      O94534   0.681   9.236   0.255
31431WAT     H194535   0.596   9.221   0.305
31431WAT     H294536   0.713   9.149   0.216
31432WAT      O94537   4.693   4.663   9.455
31432WAT     H194538   4.622   4.687   9.521
31432WAT     H294539   4.709   4.741   9.395
31433WAT      O94540   3.985   5.287   7.013
31433WAT     H194541   3.923   5.361   6.986
31433WAT     H294542   4.008   5.232   6.932
31434WAT      O94543   5.903   0.348   1.553
31434WAT     H194544   5.865   0.314   1.467
31434WAT     H294545   5.829   0.386   1.609
31435WAT      O94546   0.415   5.326   4.216
31435WAT     H194547   0.320   5.355   4.224
31435WAT     H294548   0.432   5.289   4.125
31436WAT      O94549   9.020   1.596   5.647
31436WAT     H194550   9.089   1.616   5.578
31436WAT     H294551   8.934   1.641   5.623
31437WAT      O94552   8.343   0.603   6.577
31437WAT     H194553   8.272   0.673   6.588
31437WAT     H294554   8.419   0.622   6.638
31438WAT      O94555   9.150   7.494   5.514
31438WAT     H194556   9.057   7.458   5.504
31438WAT     H294557   9.194   7.452   5.593
31439WAT      O94558   3.288   2.613   9.000
31439WAT     H194559   3.228   2.572   8.932
31439WAT     H294560   3.246   2.606   9.091
31440WAT      O94561   4.516   0.443   3.188
31440WAT     H194562   4.495   0.415   3.095
31440WAT     H294563   4.449   0.403   3.251
31441WAT      O94564   2.233   0.398   6.440
31441WAT     H194565   2.237   0.318   6.500
31441WAT     H294566   2.318   0.407   6.389
31442WAT      O94567   3.989   8.060   4.923
31442WAT     H194568   4.045   8.110   4.989
31442WAT     H294569   4.025   7.968   4.910
31443WAT      O94570   1.792   2.813   9.000
31443WAT     H194571   1.886   2.847   8.998
31443WAT     H294572   1.732   2.883   9.037
31444WAT      O94573   9.864   0.217   5.209
31444WAT     H194574   9.873   0.297   5.150
31444WAT     H294575   9.933   0.222   5.281
31445WAT      O94576   6.192   3.794   8.269
31445WAT     H194577   6.214   3.799   8.366
31445WAT     H294578   6.275   3.776   8.217
31446WAT      O94579   1.424   0.172   4.365
31446WAT     H194580   1.332   0.140   4.386
31446WAT     H294581   1.451   0.140   4.274
31447WAT      O94582   9.772   2.319   1.746
31447WAT     H194583   9.854   2.301   1.692
31447WAT     H294584   9.710   2.378   1.694
31448WAT      O94585   7.240   7.208   9.571
31448WAT     H194586   7.182   7.136   9.534
31448WAT     H294587   7.184   7.289   9.593
31449WAT      O94588   7.554   3.026   8.033
31449WAT     H194589   7.640   2.995   7.995
31449WAT     H294590   7.489   3.046   7.959
31450WAT      O94591   0.743   7.119   0.948
31450WAT     H194592   0.708   7.194   0.891
31450WAT     H294593   0.676   7.046   0.952
31451WAT      O94594   9.821   6.734   5.124
31451WAT     H194595   9.891   6.793   5.085
31451WAT     H294596   9.807   6.654   5.064
31452WAT      O94597   1.846   7.765   9.386
31452WAT     H194598   1.936   7.808   9.384
31452WAT     H294599   1.781   7.826   9.431
31453WAT      O94600   4.108   9.511   0.621
31453WAT     H194601   4.085   9.594   0.570
31453WAT     H294602   4.043   9.438   0.597
31454WAT      O94603   2.573   2.327   0.278
31454WAT     H194604   2.571   2.422   0.249
31454WAT     H294605   2.482   2.287   0.271
31455WAT      O94606   4.147   0.477   7.628
31455WAT     H194607   4.078   0.414   7.664
31455WAT     H294608   4.104   0.563   7.602
31456WAT      O94609   7.687   8.239   0.990
31456WAT     H194610   7.774   8.234   1.040
31456WAT     H294611   7.640   8.325   1.014
31457WAT      O94612   0.289   0.751   3.378
31457WAT     H194613   0.218   0.681   3.379
31457WAT     H294614   0.322   0.764   3.284
31458WAT      O94615   0.990   9.159   4.620
31458WAT     H194616   1.011   9.233   4.684
31458WAT     H294617   1.075   9.122   4.583
31459WAT      O94618   5.771   8.198   5.789
31459WAT     H194619   5.752   8.247   5.704
31459WAT     H294620   5.855   8.145   5.779
31460WAT      O94621   3.550   1.047   4.349
31460WAT     H194622   3.501   1.045   4.436
31460WAT     H294623   3.527   0.965   4.296
31461WAT      O94624   5.819   9.653   3.971
31461WAT     H194625   5.902   9.598   3.958
31461WAT     H294626   5.739   9.593   3.970
31462WAT      O94627   3.094   6.800   9.188
31462WAT     H194628   3.030   6.731   9.155
31462WAT     H294629   3.150   6.761   9.261
31463WAT      O94630   2.767   2.965   5.047
31463WAT     H194631   2.683   2.911   5.057
31463WAT     H294632   2.775   3.028   5.124
31464WAT      O94633   5.489   7.513   0.483
31464WAT     H194634   5.578   7.510   0.436
31464WAT     H294635   5.427   7.447   0.440
31465WAT      O94636   6.890   3.133   4.462
31465WAT     H194637   6.858   3.047   4.501
31465WAT     H294638   6.812   3.193   4.446
31466WAT      O94639   1.843   7.141   2.045
31466WAT     H194640   1.751   7.102   2.046
31466WAT     H294641   1.904   7.083   1.991
31467WAT      O94642   8.856   3.839   7.724
31467WAT     H194643   8.908   3.833   7.638
31467WAT     H294644   8.920   3.851   7.800
31468WAT      O94645   3.148   9.311   4.711
31468WAT     H194646   3.139   9.246   4.636
31468WAT     H294647   3.104   9.274   4.794
31469WAT      O94648   8.545   6.707   5.034
31469WAT     H194649   8.481   6.708   5.110
31469WAT     H294650   8.568   6.801   5.009
31470WAT      O94651   6.760   7.273   5.968
31470WAT     H194652   6.847   7.282   5.920
31470WAT     H294653   6.749   7.348   6.033
31471WAT      O94654   2.599   8.557   0.798
31471WAT     H194655   2.628   8.473   0.843
31471WAT     H294656   2.596   8.542   0.699
31472WAT      O94657   0.996   3.710   2.839
31472WAT     H194658   0.993   3.616   2.874
31472WAT     H294659   0.903   3.742   2.822
31473WAT      O94660   7.445   9.803   7.323
31473WAT     H194661   7.351   9.809   7.357
31473WAT     H294662   7.481   9.711   7.343
31474WAT      O94663   0.286   8.355   3.800
31474WAT     H194664   0.316   8.307   3.882
31474WAT     H294665   0.187   8.363   3.800
31475WAT      O94666   0.566   1.753   1.890
31475WAT     H194667   0.586   1.748   1.988
31475WAT     H294668   0.518   1.838   1.870
31476WAT      O94669   6.788   2.447   5.802
31476WAT     H194670   6.699   2.489   5.819
31476WAT     H294671   6.833   2.492   5.725
31477WAT      O94672   1.882   0.075   9.605
31477WAT     H194673   1.882   0.060   9.704
31477WAT     H294674   1.844  -0.004   9.559
31478WAT      O94675   2.284   2.936   4.064
31478WAT     H194676   2.317   2.862   4.123
31478WAT     H294677   2.327   3.022   4.091
31479WAT      O94678   8.338   7.313   3.933
31479WAT     H194679   8.279   7.302   3.853
31479WAT     H294680   8.294   7.372   4.000
31480WAT      O94681   4.516   7.741   2.089
31480WAT     H194682   4.561   7.804   2.026
31480WAT     H294683   4.450   7.686   2.038
31481WAT      O94684   4.370   5.280   8.313
31481WAT     H194685   4.298   5.246   8.253
31481WAT     H294686   4.419   5.203   8.353
31482WAT      O94687   2.888   8.153   8.479
31482WAT     H194688   2.977   8.197   8.481
31482WAT     H294689   2.823   8.211   8.429
31483WAT      O94690   3.477   3.307   6.077
31483WAT     H194691   3.571   3.340   6.090
31483WAT     H294692   3.437   3.285   6.166
31484WAT      O94693   4.511   1.393   0.588
31484WAT     H194694   4.543   1.396   0.493
31484WAT     H294695   4.418   1.357   0.590
31485WAT      O94696   4.455   2.538   2.398
31485WAT     H194697   4.400   2.551   2.481
31485WAT     H294698   4.513   2.457   2.409
31486WAT      O94699   4.946   8.564   4.836
31486WAT     H194700   4.997   8.640   4.798
31486WAT     H294701   4.861   8.598   4.877
31487WAT      O94702   3.201   6.306   2.005
31487WAT     H194703   3.299   6.323   2.014
31487WAT     H294704   3.179   6.216   2.044
31488WAT      O94705   8.175   0.605   3.188
31488WAT     H194706   8.076   0.599   3.177
31488WAT     H294707   8.213   0.673   3.126
31489WAT      O94708   9.566   6.521   1.724
31489WAT     H194709   9.590   6.612   1.688
31489WAT     H294710   9.642   6.485   1.777
31490WAT      O94711   5.891   2.673   7.936
31490WAT     H194712   5.798   2.682   7.901
31490WAT     H294713   5.948   2.629   7.866
31491WAT      O94714   8.492   7.137   4.048
31491WAT     H194715   8.592   7.137   4.055
31491WAT     H294716   8.463   7.200   3.977
31492WAT      O94717   5.137   7.522   4.481
31492WAT     H194718   5.176   7.506   4.572
31492WAT     H294719   5.194   7.588   4.432
31493WAT      O94720   5.774   2.303   5.666
31493WAT     H194721   5.687   2.317   5.619
31493WAT     H294722   5.844   2.276   5.600
31494WAT      O94723   2.862   5.034   0.670
31494WAT     H194724   2.766   5.031   0.643
31494WAT     H294725   2.914   5.083   0.600
31495WAT      O94726   9.877   2.684   5.937
31495WAT     H194727   9.928   2.616   5.883
31495WAT     H294728   9.826   2.744   5.875
31496WAT      O94729   4.296   3.940   7.802
31496WAT     H194730   4.315   4.032   7.769
31496WAT     H294731   4.217   3.902   7.753
31497WAT      O94732   6.832   2.305   9.823
31497WAT     H194733   6.766   2.379   9.809
31497WAT     H294734   6.858   2.303   9.920
31498WAT      O94735   2.480   8.969   1.899
31498WAT     H194736   2.418   8.891   1.893
31498WAT     H294737   2.432   9.053   1.874
31499WAT      O94738   9.596   8.010   6.634
31499WAT     H194739   9.570   8.028   6.729
31499WAT     H294740   9.677   8.063   6.611
31500WAT      O94741   2.925   9.507   0.994
31500WAT     H194742   2.883   9.417   1.007
31500WAT     H294743   2.894   9.546   0.907
31501WAT      O94744   7.358   7.935   3.638
31501WAT     H194745   7.360   7.846   3.592
31501WAT     H294746   7.299   7.929   3.719
31502WAT      O94747   3.222   1.855   9.670
31502WAT     H194748   3.134   1.817   9.642
31502WAT     H294749   3.270   1.790   9.729
31503WAT      O94750   9.637   0.257   4.458
31503WAT     H194751   9.651   0.217   4.367
31503WAT     H294752   9.602   0.350   4.448
31504WAT      O94753   3.339   0.555   7.893
31504WAT     H194754   3.378   0.637   7.851
31504WAT     H294755   3.249   0.537   7.853
31505WAT      O94756   0.102   3.610   6.591
31505WAT     H194757   0.021   3.553   6.604
31505WAT     H294758   0.151   3.580   6.509
31506WAT      O94759   1.446   7.387   9.699
31506WAT     H194760   1.457   7.475   9.654
31506WAT     H294761   1.478   7.314   9.638
31507WAT      O94762   5.237   7.949   6.335
31507WAT     H194763   5.275   8.024   6.390
31507WAT     H294764   5.187   7.987   6.258
31508WAT      O94765   0.953   6.578   5.488
31508WAT     H194766   0.887   6.553   5.558
31508WAT     H294767   1.008   6.655   5.521
31509WAT      O94768   8.476   7.657   6.753
31509WAT     H194769   8.467   7.645   6.654
31509WAT     H294770   8.497   7.569   6.796
31510WAT      O94771   2.788   4.557   8.513
31510WAT     H194772   2.828   4.518   8.595
31510WAT     H294773   2.821   4.650   8.499
31511WAT      O94774   8.306   4.739   3.789
31511WAT     H194775   8.290   4.715   3.885
31511WAT     H294776   8.333   4.835   3.783
31512WAT      O94777   5.304   8.653   2.550
31512WAT     H194778   5.374   8.618   2.612
31512WAT     H294779   5.348   8.696   2.471
31513WAT      O94780   6.156   9.798   7.412
31513WAT     H194781   6.202   9.884   7.390
31513WAT     H294782   6.216   9.721   7.391
31514WAT      O94783   3.495   5.538   1.325
31514WAT     H194784   3.503   5.560   1.422
31514WAT     H294785   3.446   5.611   1.278
31515WAT      O94786   8.596   5.553   9.256
31515WAT     H194787   8.554   5.526   9.342
31515WAT     H294788   8.528   5.597   9.197
31516WAT      O94789   2.912   5.685   0.050
31516WAT     H194790   2.949   5.736   0.128
31516WAT     H294791   2.942   5.728  -0.035
31517WAT      O94792   2.896   7.433   5.324
31517WAT     H194793   2.932   7.526   5.332
31517WAT     H294794   2.808   7.427   5.370
31518WAT      O94795   1.905   7.648   8.839
31518WAT     H194796   1.836   7.602   8.784
31518WAT     H294797   1.865   7.727   8.885
31519WAT      O94798   6.611   3.859   4.184
31519WAT     H194799   6.602   3.764   4.214
31519WAT     H294800   6.631   3.862   4.087
31520WAT      O94801   4.656   2.055   6.885
31520WAT     H194802   4.716   1.991   6.932
31520WAT     H294803   4.621   2.122   6.951
31521WAT      O94804   6.094   1.339   1.985
31521WAT     H194805   6.038   1.421   1.997
31521WAT     H294806   6.062   1.267   2.048
31522WAT      O94807   7.251   1.971   8.408
31522WAT     H194808   7.179   2.026   8.451
31522WAT     H294809   7.336   2.023   8.407
31523WAT      O94810   5.331   4.031   5.520
31523WAT     H194811   5.293   3.980   5.598
31523WAT     H294812   5.418   4.071   5.546
31524WAT      O94813   7.344   2.982   9.086
31524WAT     H194814   7.430   2.938   9.059
31524WAT     H294815   7.281   2.982   9.009
31525WAT      O94816   4.556   7.445   1.063
31525WAT     H194817   4.476   7.389   1.080
31525WAT     H294818   4.617   7.399   0.999
31526WAT      O94819   7.500   9.447   4.426
31526WAT     H194820   7.492   9.445   4.526
31526WAT     H294821   7.491   9.542   4.395
31527WAT      O94822   2.351   2.690   9.135
31527WAT     H194823   2.390   2.740   9.059
31527WAT     H294824   2.423   2.667   9.201
31528WAT      O94825   7.482   4.710   1.377
31528WAT     H194826   7.573   4.739   1.407
31528WAT     H294827   7.413   4.769   1.417
31529WAT      O94828   6.961   7.499   1.503
31529WAT     H194829   7.016   7.582   1.513
31529WAT     H294830   6.957   7.452   1.591
31530WAT      O94831   4.255   4.022   4.832
31530WAT     H194832   4.163   4.002   4.867
31530WAT     H294833   4.322   4.005   4.904
31531WAT      O94834   0.331   7.307   2.523
31531WAT     H194835   0.319   7.217   2.481
31531WAT     H294836   0.348   7.375   2.452
31532WAT      O94837   7.454   2.357   5.891
31532WAT     H194838   7.482   2.452   5.882
31532WAT     H294839   7.495   2.318   5.973
31533WAT      O94840   4.495   4.357   8.507
31533WAT     H194841   4.586   4.371   8.469
31533WAT     H294842   4.483   4.415   8.588
31534WAT      O94843   3.559   0.336   3.417
31534WAT     H194844   3.558   0.412   3.482
31534WAT     H294845   3.476   0.340   3.360
31535WAT      O94846   9.486   8.024   4.211
31535WAT     H194847   9.406   8.083   4.209
31535WAT     H294848   9.556   8.064   4.270
31536WAT      O94849   7.202   5.991   5.536
31536WAT     H194850   7.302   5.996   5.538
31536WAT     H294851   7.164   6.049   5.608
31537WAT      O94852   7.226   3.671   6.910
31537WAT     H194853   7.300   3.705   6.852
31537WAT     H294854   7.172   3.604   6.859
31538WAT      O94855   6.898   3.627   0.232
31538WAT     H194856   6.963   3.554   0.251
31538WAT     H294857   6.895   3.689   0.311
31539WAT      O94858   2.412   1.326   7.763
31539WAT     H194859   2.454   1.351   7.851
31539WAT     H294860   2.434   1.395   7.695
31540WAT      O94861   2.604   7.410   5.644
31540WAT     H194862   2.639   7.324   5.607
31540WAT     H294863   2.568   7.467   5.570
31541WAT      O94864   1.641   0.912   0.505
31541WAT     H194865   1.591   0.876   0.427
31541WAT     H294866   1.733   0.873   0.508
31542WAT      O94867   6.072   5.430   5.522
31542WAT     H194868   6.011   5.498   5.563
31542WAT     H294869   6.119   5.469   5.443
31543WAT      O94870   3.616   8.981   7.808
31543WAT     H194871   3.598   8.986   7.906
31543WAT     H294872   3.663   9.064   7.778
31544WAT      O94873   5.557   8.361   4.502
31544WAT     H194874   5.493   8.294   4.540
31544WAT     H294875   5.515   8.452   4.503
31545WAT      O94876   7.127   1.563   8.817
31545WAT     H194877   7.170   1.501   8.883
31545WAT     H294878   7.176   1.559   8.730
31546WAT      O94879   5.073   8.667   1.129
31546WAT     H194880   5.163   8.685   1.089
31546WAT     H294881   5.002   8.680   1.060
31547WAT      O94882   3.567   7.542   7.419
31547WAT     H194883   3.503   7.577   7.487
31547WAT     H294884   3.518   7.522   7.334
31548WAT      O94885   3.634   4.092   7.647
31548WAT     H194886   3.713   4.042   7.610
31548WAT     H294887   3.555   4.079   7.587
31549WAT      O94888   5.360   0.372   7.343
31549WAT     H194889   5.261   0.376   7.350
31549WAT     H294890   5.386   0.343   7.251
31550WAT      O94891   4.905   9.463   0.425
31550WAT     H194892   4.871   9.542   0.375
31550WAT     H294893   4.997   9.481   0.459
31551WAT      O94894   6.401   9.825   1.306
31551WAT     H194895   6.479   9.886   1.321
31551WAT     H294896   6.358   9.803   1.394
31552WAT      O94897   7.833   1.959   0.794
31552WAT     H194898   7.769   2.033   0.771
31552WAT     H294899   7.827   1.939   0.892
31553WAT      O94900   2.808   9.274   7.643
31553WAT     H194901   2.726   9.327   7.623
31553WAT     H294902   2.878   9.293   7.574
31554WAT      O94903   1.591   2.243   3.943
31554WAT     H194904   1.533   2.286   3.874
31554WAT     H294905   1.675   2.210   3.901
31555WAT      O94906   0.528   0.864   4.657
31555WAT     H194907   0.618   0.878   4.699
31555WAT     H294908   0.486   0.952   4.637
31556WAT      O94909   3.294   0.345   0.844
31556WAT     H194910   3.388   0.365   0.870
31556WAT     H294911   3.274   0.388   0.756
31557WAT      O94912   2.150   5.054   3.110
31557WAT     H194913   2.192   5.127   3.057
31557WAT     H294914   2.211   4.975   3.112
31558WAT      O94915   8.934   8.072   0.284
31558WAT     H194916   9.032   8.056   0.268
31558WAT     H294917   8.917   8.170   0.289
31559WAT      O94918   5.112   4.694   8.916
31559WAT     H194919   5.165   4.759   8.971
31559WAT     H294920   5.170   4.618   8.888
31560WAT      O94921   0.706   4.022   3.877
31560WAT     H194922   0.717   3.927   3.846
31560WAT     H294923   0.663   4.076   3.805
31561WAT      O94924   5.477   3.441   2.999
31561WAT     H194925   5.536   3.432   2.919
31561WAT     H294926   5.465   3.538   3.021
31562WAT      O94927   9.673   0.883   7.337
31562WAT     H194928   9.692   0.842   7.427
31562WAT     H294929   9.582   0.854   7.306
31563WAT      O94930   2.014   6.753   3.974
31563WAT     H194931   1.925   6.790   3.949
31563WAT     H294932   2.048   6.800   4.056
31564WAT      O94933   8.338   7.595   8.491
31564WAT     H194934   8.379   7.515   8.448
31564WAT     H294935   8.409   7.646   8.539
31565WAT      O94936   4.396   5.705   9.326
31565WAT     H194937   4.317   5.659   9.285
31565WAT     H294938   4.447   5.753   9.255
31566WAT      O94939   9.298   8.065   3.086
31566WAT     H194940   9.331   7.985   3.136
31566WAT     H294941   9.198   8.069   3.092
31567WAT      O94942   4.770   0.968   6.195
31567WAT     H194943   4.821   0.921   6.124
31567WAT     H294944   4.715   0.902   6.246
31568WAT      O94945   4.606   9.583   4.015
31568WAT     H194946   4.702   9.557   4.030
31568WAT     H294947   4.589   9.592   3.917
31569WAT      O94948   5.345   6.569   6.996
31569WAT     H194949   5.351   6.503   6.921
31569WAT     H294950   5.437   6.599   7.021
31570WAT      O94951   7.799   9.510   8.399
31570WAT     H194952   7.824   9.439   8.465
31570WAT     H294953   7.821   9.479   8.306
31571WAT      O94954   8.083   0.683   0.040
31571WAT     H194955   8.138   0.705  -0.040
31571WAT     H294956   8.047   0.590   0.031
31572WAT      O94957   1.319   8.886   9.611
31572WAT     H194958   1.384   8.895   9.535
31572WAT     H294959   1.242   8.828   9.582
31573WAT      O94960   2.501   0.236   2.650
31573WAT     H194961   2.508   0.238   2.750
31573WAT     H294962   2.405   0.250   2.623
31574WAT      O94963   3.308   5.712   4.731
31574WAT     H194964   3.292   5.689   4.827
31574WAT     H294965   3.406   5.718   4.714
31575WAT      O94966   1.910   4.562   0.043
31575WAT     H194967   1.871   4.533  -0.045
31575WAT     H294968   1.907   4.485   0.106
31576WAT      O94969   0.476   6.833   9.844
31576WAT     H194970   0.496   6.927   9.869
31576WAT     H294971   0.530   6.771   9.902
31577WAT      O94972   0.482   1.479   3.164
31577WAT     H194973   0.435   1.529   3.091
31577WAT     H294974   0.422   1.472   3.243
31578WAT      O94975   4.707   4.266   1.103
31578WAT     H194976   4.684   4.222   1.017
31578WAT     H294977   4.628   4.315   1.139
31579WAT      O94978   6.225   6.923   2.638
31579WAT     H194979   6.290   6.981   2.686
31579WAT     H294980   6.262   6.895   2.550
31580WAT      O94981   2.010   1.795   2.014
31580WAT     H194982   1.978   1.880   1.971
31580WAT     H294983   2.058   1.817   2.099
31581WAT      O94984   8.510   3.964   4.078
31581WAT     H194985   8.558   3.981   3.991
31581WAT     H294986   8.470   4.049   4.112
31582WAT      O94987   0.423   5.445   5.203
31582WAT     H194988   0.417   5.456   5.302
31582WAT     H294989   0.487   5.513   5.166
31583WAT      O94990   2.965   1.732   3.577
31583WAT     H194991   2.875   1.692   3.591
31583WAT     H294992   3.002   1.702   3.489
31584WAT      O94993   1.469   4.329   0.607
31584WAT     H194994   1.504   4.359   0.518
31584WAT     H294995   1.412   4.400   0.647
31585WAT      O94996   3.686   5.123   0.063
31585WAT     H194997   3.765   5.126   0.002
31585WAT     H294998   3.607   5.086   0.013
31586WAT      O94999   2.014   0.881   1.082
31586WAT     H195000   2.016   0.790   1.122
31586WAT     H295001   2.095   0.932   1.111
31587WAT      O95002   5.250   3.625   3.720
31587WAT     H195003   5.311   3.702   3.703
31587WAT     H295004   5.174   3.628   3.656
31588WAT      O95005   0.724   8.657   9.428
31588WAT     H195006   0.640   8.673   9.377
31588WAT     H295007   0.723   8.564   9.465
31589WAT      O95008   9.821   0.477   6.617
31589WAT     H195009   9.919   0.470   6.599
31589WAT     H295010   9.772   0.414   6.556
31590WAT      O95011   6.107   7.169   4.618
31590WAT     H195012   6.012   7.183   4.648
31590WAT     H295013   6.127   7.231   4.543
31591WAT      O95014   5.988   3.252   7.650
31591WAT     H195015   5.987   3.175   7.714
31591WAT     H295016   5.905   3.249   7.594
31592WAT      O95017   9.166   5.215   3.742
31592WAT     H195018   9.195   5.291   3.800
31592WAT     H295019   9.148   5.135   3.799
31593WAT      O95020   7.057   9.113   5.004
31593WAT     H195021   6.957   9.120   5.012
31593WAT     H295022   7.085   9.142   4.912
31594WAT      O95023   6.556   7.685   6.807
31594WAT     H195024   6.515   7.648   6.723
31594WAT     H295025   6.486   7.736   6.857
31595WAT      O95026   3.343   0.774   6.285
31595WAT     H195027   3.283   0.810   6.213
31595WAT     H295028   3.307   0.799   6.374
31596WAT      O95029   2.989   6.759   3.880
31596WAT     H195030   3.013   6.680   3.937
31596WAT     H295031   2.890   6.764   3.869
31597WAT      O95032   5.611   7.195   6.156
31597WAT     H195033   5.618   7.286   6.114
31597WAT     H295034   5.515   7.172   6.170
31598WAT      O95035   7.833   6.087   9.348
31598WAT     H195036   7.932   6.075   9.336
31598WAT     H295037   7.815   6.137   9.432
31599WAT      O95038   8.869   5.318   3.011
31599WAT     H195039   8.920   5.263   2.945
31599WAT     H295040   8.812   5.258   3.068
31600WAT      O95041   8.902   9.701   5.472
31600WAT     H195042   8.976   9.683   5.406
31600WAT     H295043   8.917   9.647   5.554
31601WAT      O95044   2.721   6.718   1.625
31601WAT     H195045   2.667   6.738   1.543
31601WAT     H295046   2.768   6.631   1.614
31602WAT      O95047   4.823   3.127   9.683
31602WAT     H195048   4.826   3.107   9.781
31602WAT     H295049   4.835   3.225   9.669
31603WAT      O95050   9.252   7.062   6.987
31603WAT     H195051   9.235   7.137   7.050
31603WAT     H295052   9.350   7.051   6.972
31604WAT      O95053   0.577   3.061   0.007
31604WAT     H195054   0.488   3.016   0.000
31604WAT     H295055   0.623   3.058  -0.082
31605WAT      O95056   6.729   8.330   8.681
31605WAT     H195057   6.714   8.282   8.595
31605WAT     H295058   6.805   8.288   8.730
31606WAT      O95059   5.295   5.159   5.632
31606WAT     H195060   5.319   5.176   5.537
31606WAT     H295061   5.295   5.060   5.650
31607WAT      O95062   7.847   0.566   2.868
31607WAT     H195063   7.752   0.548   2.894
31607WAT     H295064   7.890   0.479   2.842
31608WAT      O95065   0.938   2.025   5.676
31608WAT     H195066   0.981   2.020   5.766
31608WAT     H295067   0.971   2.106   5.628
31609WAT      O95068   2.244   6.468   6.599
31609WAT     H195069   2.209   6.388   6.648
31609WAT     H295070   2.305   6.520   6.660
31610WAT      O95071   5.952   4.322   6.576
31610WAT     H195072   5.865   4.315   6.626
31610WAT     H295073   5.958   4.247   6.509
31611WAT      O95074   2.139   9.463   7.621
31611WAT     H195075   2.132   9.552   7.577
31611WAT     H295076   2.106   9.392   7.559
31612WAT      O95077   8.300   9.135   7.686
31612WAT     H195078   8.244   9.088   7.617
31612WAT     H295079   8.249   9.214   7.722
31613WAT      O95080   7.707   5.402   2.109
31613WAT     H195081   7.676   5.479   2.165
31613WAT     H295082   7.707   5.319   2.166
31614WAT      O95083   3.503   0.617   4.759
31614WAT     H195084   3.403   0.623   4.751
31614WAT     H295085   3.544   0.706   4.740
31615WAT      O95086   1.941   7.595   3.392
31615WAT     H195087   1.887   7.544   3.459
31615WAT     H295088   2.035   7.562   3.392
31616WAT      O95089   2.706   1.932   3.864
31616WAT     H195090   2.725   1.836   3.887
31616WAT     H295091   2.790   1.985   3.871
31617WAT      O95092   3.092   5.163   4.205
31617WAT     H195093   3.031   5.104   4.151
31617WAT     H295094   3.140   5.107   4.273
31618WAT      O95095   1.078   8.326   9.588
31618WAT     H195096   1.112   8.338   9.495
31618WAT     H295097   1.142   8.368   9.653
31619WAT      O95098   2.756   0.934   0.974
31619WAT     H195099   2.741   0.966   1.067
31619WAT     H295100   2.815   0.998   0.925
31620WAT      O95101   2.606   4.241   0.973
31620WAT     H195102   2.639   4.277   1.060
31620WAT     H295103   2.555   4.156   0.989
31621WAT      O95104   4.338   5.468   3.260
31621WAT     H195105   4.375   5.510   3.178
31621WAT     H295106   4.386   5.504   3.340
31622WAT      O95107   8.845   0.527   2.521
31622WAT     H195108   8.925   0.490   2.473
31622WAT     H295109   8.843   0.627   2.511
31623WAT      O95110   0.099   2.266   5.131
31623WAT     H195111   0.067   2.333   5.198
31623WAT     H295112   0.037   2.187   5.131
31624WAT      O95113   7.079   2.102   8.579
31624WAT     H195114   7.157   2.143   8.627
31624WAT     H295115   7.011   2.071   8.646
31625WAT      O95116   8.960   7.241   0.357
31625WAT     H195117   8.965   7.201   0.448
31625WAT     H295118   8.935   7.171   0.291
31626WAT      O95119   5.202   0.368   1.449
31626WAT     H195120   5.294   0.353   1.412
31626WAT     H295121   5.193   0.464   1.475
31627WAT      O95122   8.993   0.108   8.722
31627WAT     H195123   9.040   0.056   8.651
31627WAT     H295124   8.931   0.049   8.772
31628WAT      O95125   4.988   6.491   5.552
31628WAT     H195126   4.896   6.491   5.513
31628WAT     H295127   5.043   6.562   5.509
31629WAT      O95128   7.570   5.894   7.470
31629WAT     H195129   7.634   5.909   7.545
31629WAT     H295130   7.490   5.844   7.504
31630WAT      O95131   1.909   8.329   8.952
31630WAT     H195132   1.911   8.390   9.030
31630WAT     H295133   1.995   8.278   8.947
31631WAT      O95134   2.061   2.351   7.877
31631WAT     H195135   1.967   2.339   7.846
31631WAT     H295136   2.064   2.345   7.977
31632WAT      O95137   7.661   4.306   2.052
31632WAT     H195138   7.700   4.326   1.962
31632WAT     H295139   7.606   4.384   2.082
31633WAT      O95140   6.441   1.157   4.601
31633WAT     H195141   6.368   1.211   4.559
31633WAT     H295142   6.484   1.209   4.674
31634WAT      O95143   8.782   6.020   3.660
31634WAT     H195144   8.703   6.061   3.705
31634WAT     H295145   8.754   5.982   3.572
31635WAT      O95146   4.413   1.914   9.654
31635WAT     H195147   4.364   1.838   9.695
31635WAT     H295148   4.456   1.968   9.726
31636WAT      O95149   5.504   8.016   1.799
31636WAT     H195150   5.450   8.095   1.826
31636WAT     H295151   5.556   8.038   1.716
31637WAT      O95152   5.665   8.615   5.700
31637WAT     H195153   5.670   8.553   5.779
31637WAT     H295154   5.576   8.661   5.700
31638WAT      O95155   0.006   5.142   7.725
31638WAT     H195156   0.083   5.100   7.773
31638WAT     H295157  -0.039   5.208   7.786
31639WAT      O95158   6.482   5.568   5.398
31639WAT     H195159   6.461   5.589   5.494
31639WAT     H295160   6.581   5.565   5.385
31640WAT      O95161   3.038   4.319   3.718
31640WAT     H195162   3.023   4.394   3.782
31640WAT     H295163   2.965   4.318   3.650
31641WAT      O95164   7.314   8.322   9.094
31641WAT     H195165   7.402   8.309   9.048
31641WAT     H295166   7.245   8.349   9.027
31642WAT      O95167   4.505   0.750   5.744
31642WAT     H195168   4.568   0.675   5.720
31642WAT     H295169   4.558   0.833   5.763
31643WAT      O95170   8.205   4.724   1.717
31643WAT     H195171   8.155   4.729   1.804
31643WAT     H295172   8.139   4.720   1.642
31644WAT      O95173   5.778   3.223   8.717
31644WAT     H195174   5.718   3.196   8.642
31644WAT     H295175   5.762   3.318   8.741
31645WAT      O95176   4.483   0.306   5.382
31645WAT     H195177   4.569   0.331   5.427
31645WAT     H295178   4.496   0.221   5.331
31646WAT      O95179   3.145   1.416   4.124
31646WAT     H195180   3.104   1.449   4.209
31646WAT     H295181   3.075   1.410   4.053
31647WAT      O95182   3.906   8.306   3.624
31647WAT     H195183   3.831   8.360   3.584
31647WAT     H295184   3.991   8.328   3.577
31648WAT      O95185   8.504   9.783   5.720
31648WAT     H195186   8.575   9.720   5.750
31648WAT     H295187   8.540   9.840   5.645
31649WAT      O95188   1.875   3.721   4.634
31649WAT     H195189   1.849   3.813   4.662
31649WAT     H295190   1.832   3.654   4.696
31650WAT      O95191   2.531   4.769   7.605
31650WAT     H195192   2.621   4.813   7.600
31650WAT     H295193   2.476   4.813   7.676
31651WAT      O95194   9.420   3.875   7.401
31651WAT     H195195   9.387   3.819   7.477
31651WAT     H295196   9.453   3.816   7.328
31652WAT      O95197   5.520   4.241   2.208
31652WAT     H195198   5.511   4.241   2.108
31652WAT     H295199   5.518   4.335   2.242
31653WAT      O95200   9.189   0.584   7.842
31653WAT     H195201   9.175   0.650   7.769
31653WAT     H295202   9.102   0.565   7.887
31654WAT      O95203   3.535   2.774   5.657
31654WAT     H195204   3.618   2.829   5.644
31654WAT     H295205   3.561   2.681   5.684
31655WAT      O95206   9.871   4.283   5.414
31655WAT     H195207   9.888   4.212   5.346
31655WAT     H295208   9.803   4.251   5.480
31656WAT      O95209   0.222   9.502   2.110
31656WAT     H195210   0.191   9.505   2.015
31656WAT     H295211   0.318   9.476   2.113
31657WAT      O95212   5.453   3.444   1.143
31657WAT     H195213   5.537   3.451   1.198
31657WAT     H295214   5.382   3.398   1.197
31658WAT      O95215   1.299   6.701   3.101
31658WAT     H195216   1.289   6.724   3.197
31658WAT     H295217   1.382   6.647   3.088
31659WAT      O95218   9.577   6.779   1.117
31659WAT     H195219   9.667   6.756   1.155
31659WAT     H295220   9.578   6.761   1.019
31660WAT      O95221   7.631   0.904   5.780
31660WAT     H195222   7.591   0.922   5.871
31660WAT     H295223   7.710   0.963   5.766
31661WAT      O95224   3.394   7.267   4.451
31661WAT     H195225   3.356   7.251   4.542
31661WAT     H295226   3.397   7.365   4.433
31662WAT      O95227   8.586   1.221   0.364
31662WAT     H195228   8.587   1.303   0.306
31662WAT     H295229   8.540   1.147   0.314
31663WAT      O95230   1.942   4.197   2.326
31663WAT     H195231   1.893   4.284   2.333
31663WAT     H295232   2.032   4.213   2.284
31664WAT      O95233   3.756   1.867   0.351
31664WAT     H195234   3.779   1.823   0.438
31664WAT     H295235   3.772   1.966   0.358
31665WAT      O95236   6.229   1.318   9.710
31665WAT     H195237   6.158   1.389   9.707
31665WAT     H295238   6.189   1.230   9.685
31666WAT      O95239   7.640   1.240   7.951
31666WAT     H195240   7.694   1.324   7.957
31666WAT     H295241   7.674   1.174   8.017
31667WAT      O95242   6.072   3.475   1.057
31667WAT     H195243   6.114   3.474   0.966
31667WAT     H295244   5.979   3.511   1.052
31668WAT      O95245   3.202   7.577   2.765
31668WAT     H195246   3.148   7.567   2.681
31668WAT     H295247   3.277   7.511   2.764
31669WAT      O95248   8.334   3.541   0.151
31669WAT     H195249   8.312   3.637   0.134
31669WAT     H295250   8.279   3.483   0.092
31670WAT      O95251   9.417   0.838   7.219
31670WAT     H195252   9.414   0.937   7.201
31670WAT     H295253   9.414   0.789   7.133
31671WAT      O95254   3.543   0.605   5.330
31671WAT     H195255   3.555   0.658   5.414
31671WAT     H295256   3.459   0.636   5.284
31672WAT      O95257   8.964   8.067   8.943
31672WAT     H195258   8.937   7.977   8.909
31672WAT     H295259   8.993   8.124   8.867
31673WAT      O95260   8.847   5.616   7.118
31673WAT     H195261   8.831   5.671   7.200
31673WAT     H295262   8.937   5.574   7.124
31674WAT      O95263   1.028   6.196   8.381
31674WAT     H195264   1.089   6.252   8.326
31674WAT     H295265   0.969   6.256   8.436
31675WAT      O95266   2.135   1.451   0.631
31675WAT     H195267   2.095   1.541   0.614
31675WAT     H295268   2.063   1.384   0.644
31676WAT      O95269   5.721   0.806   4.006
31676WAT     H195270   5.652   0.868   3.969
31676WAT     H295271   5.812   0.837   3.977
31677WAT      O95272   7.878   6.815   2.173
31677WAT     H195273   7.908   6.798   2.267
31677WAT     H295274   7.865   6.728   2.127
31678WAT      O95275   4.763   3.069   3.827
31678WAT     H195276   4.859   3.047   3.843
31678WAT     H295277   4.705   3.019   3.892
31679WAT      O95278   0.225   4.941   9.695
31679WAT     H195279   0.183   4.917   9.607
31679WAT     H295280   0.169   4.906   9.770
31680WAT      O95281   5.849   4.250   5.412
31680WAT     H195282   5.910   4.270   5.488
31680WAT     H295283   5.813   4.335   5.375
31681WAT      O95284   0.236   5.841   2.656
31681WAT     H195285   0.313   5.904   2.657
31681WAT     H295286   0.226   5.799   2.747
31682WAT      O95287   1.869   5.856   5.209
31682WAT     H195288   1.880   5.949   5.244
31682WAT     H295289   1.850   5.860   5.111
31683WAT      O95290   1.828   6.185   3.230
31683WAT     H195291   1.876   6.113   3.181
31683WAT     H295292   1.781   6.145   3.309
31684WAT      O95293   4.847   5.559   5.520
31684WAT     H195294   4.782   5.499   5.567
31684WAT     H295295   4.803   5.646   5.498
31685WAT      O95296   2.148   0.436   5.860
31685WAT     H195297   2.154   0.362   5.793
31685WAT     H295298   2.174   0.522   5.817
31686WAT      O95299   8.918   6.121   7.091
31686WAT     H195300   9.009   6.163   7.090
31686WAT     H295301   8.926   6.024   7.068
31687WAT      O95302   8.929   9.645   3.803
31687WAT     H195303   8.922   9.548   3.779
31687WAT     H295304   8.939   9.699   3.720
31688WAT      O95305   1.169   1.186   3.172
31688WAT     H195306   1.108   1.228   3.106
31688WAT     H295307   1.259   1.171   3.130
31689WAT      O95308   6.874   2.763   2.303
31689WAT     H195309   6.822   2.689   2.259
31689WAT     H295310   6.888   2.837   2.237
31690WAT      O95311   7.222   3.479   1.437
31690WAT     H195312   7.306   3.527   1.462
31690WAT     H295313   7.161   3.476   1.516
31691WAT      O95314   2.872   6.118   0.063
31691WAT     H195315   2.780   6.079   0.062
31691WAT     H295316   2.871   6.206   0.110
31692WAT      O95317   8.297   0.158   4.689
31692WAT     H195318   8.303   0.066   4.728
31692WAT     H295319   8.386   0.203   4.695
31693WAT      O95320   4.204   6.747   2.152
31693WAT     H195321   4.105   6.755   2.157
31693WAT     H295322   4.229   6.661   2.107
31694WAT      O95323   9.454   7.882   1.736
31694WAT     H195324   9.460   7.843   1.828
31694WAT     H295325   9.460   7.808   1.668
31695WAT      O95326   3.759   1.213   2.530
31695WAT     H195327   3.809   1.289   2.490
31695WAT     H295328   3.671   1.245   2.565
31696WAT      O95329   8.548   6.335   2.174
31696WAT     H195330   8.589   6.306   2.260
31696WAT     H295331   8.619   6.354   2.107
31697WAT      O95332   2.233   2.947   6.492
31697WAT     H195333   2.293   2.989   6.560
31697WAT     H295334   2.286   2.928   6.409
31698WAT      O95335   0.410   1.905   0.128
31698WAT     H195336   0.355   1.829   0.092
31698WAT     H295337   0.366   1.943   0.209
31699WAT      O95338   3.519   1.169   2.236
31699WAT     H195339   3.492   1.095   2.298
31699WAT     H295340   3.485   1.256   2.272
31700WAT      O95341   4.987   7.029   3.978
31700WAT     H195342   4.904   7.084   3.965
31700WAT     H295343   5.007   6.980   3.893
31701WAT      O95344   4.036   2.574   4.105
31701WAT     H195345   4.021   2.573   4.204
31701WAT     H295346   3.952   2.544   4.059
31702WAT      O95347   4.887   1.194   7.463
31702WAT     H195348   4.791   1.186   7.438
31702WAT     H295349   4.937   1.242   7.390
31703WAT      O95350   7.469   4.675   8.999
31703WAT     H195351   7.519   4.758   9.025
31703WAT     H295352   7.456   4.617   9.080
31704WAT      O95353   1.095   5.922   8.444
31704WAT     H195354   1.075   6.018   8.428
31704WAT     H295355   1.021   5.865   8.408
31705WAT      O95356   3.427   2.409   7.370
31705WAT     H195357   3.355   2.452   7.425
31705WAT     H295358   3.412   2.310   7.367
31706WAT      O95359   7.661   5.135   1.899
31706WAT     H195360   7.728   5.062   1.885
31706WAT     H295361   7.592   5.104   1.965
31707WAT      O95362   4.193   8.934   8.742
31707WAT     H195363   4.256   9.002   8.778
31707WAT     H295364   4.101   8.953   8.776
31708WAT      O95365   0.150   4.366   1.149
31708WAT     H195366   0.217   4.332   1.215
31708WAT     H295367   0.179   4.455   1.115
31709WAT      O95368   9.679   9.123   7.622
31709WAT     H195369   9.586   9.131   7.587
31709WAT     H295370   9.677   9.086   7.715
31710WAT      O95371   1.407   5.204   7.602
31710WAT     H195372   1.369   5.165   7.686
31710WAT     H295373   1.385   5.301   7.597
31711WAT      O95374   7.545   4.413   4.359
31711WAT     H195375   7.557   4.341   4.428
31711WAT     H295376   7.600   4.492   4.384
31712WAT      O95377   5.199   1.503   8.131
31712WAT     H195378   5.141   1.423   8.116
31712WAT     H295379   5.212   1.517   8.229
31713WAT      O95380   3.701   4.551   5.377
31713WAT     H195381   3.766   4.480   5.351
31713WAT     H295382   3.705   4.626   5.312
31714WAT      O95383   0.122   1.515   4.028
31714WAT     H195384   0.218   1.486   4.021
31714WAT     H295385   0.063   1.436   4.018
31715WAT      O95386   1.414   2.103   0.059
31715WAT     H195387   1.442   2.187   0.014
31715WAT     H295388   1.350   2.053   0.000
31716WAT      O95389   5.292   0.387   3.251
31716WAT     H195390   5.371   0.447   3.238
31716WAT     H295391   5.223   0.432   3.307
31717WAT      O95392   5.971   8.629   8.066
31717WAT     H195393   5.899   8.603   8.130
31717WAT     H295394   6.048   8.565   8.073
31718WAT      O95395   0.897   9.689   4.286
31718WAT     H195396   0.916   9.654   4.194
31718WAT     H295397   0.943   9.777   4.299
31719WAT      O95398   9.320   6.179   4.114
31719WAT     H195399   9.243   6.242   4.112
31719WAT     H295400   9.396   6.219   4.164
31720WAT      O95401   0.332   7.943   0.179
31720WAT     H195402   0.245   7.978   0.145
31720WAT     H295403   0.370   7.877   0.114
31721WAT      O95404   5.279   8.947   5.403
31721WAT     H195405   5.190   8.985   5.377
31721WAT     H295406   5.289   8.951   5.502
31722WAT      O95407   1.822   4.625   8.156
31722WAT     H195408   1.891   4.627   8.228
31722WAT     H295409   1.780   4.534   8.152
31723WAT      O95410   4.907   6.583   7.355
31723WAT     H195411   4.943   6.591   7.448
31723WAT     H295412   4.906   6.487   7.328
31724WAT      O95413   7.320   5.031   7.004
31724WAT     H195414   7.304   5.110   6.946
31724WAT     H295415   7.296   5.053   7.098
31725WAT      O95416   7.420   6.044   9.878
31725WAT     H195417   7.326   6.028   9.908
31725WAT     H295418   7.474   5.961   9.893
31726WAT      O95419   5.520   8.311   7.908
31726WAT     H195420   5.515   8.212   7.894
31726WAT     H295421   5.530   8.357   7.820
31727WAT      O95422   1.176   5.873   7.018
31727WAT     H195423   1.090   5.844   7.060
31727WAT     H295424   1.200   5.965   7.050
31728WAT      O95425   9.307   3.502   9.038
31728WAT     H195426   9.342   3.442   8.966
31728WAT     H295427   9.209   3.484   9.051
31729WAT      O95428   1.270   8.962   3.960
31729WAT     H195429   1.307   8.894   4.023
31729WAT     H295430   1.286   9.054   3.997
31730WAT      O95431   6.663   4.864   2.971
31730WAT     H195432   6.740   4.873   3.034
31730WAT     H295433   6.613   4.779   2.992
31731WAT      O95434   2.367   7.757   6.976
31731WAT     H195435   2.421   7.776   7.058
31731WAT     H295436   2.387   7.665   6.943
31732WAT      O95437   6.039   0.250   4.065
31732WAT     H195438   6.069   0.263   4.159
31732WAT     H295439   6.117   0.229   4.007
31733WAT      O95440   4.780   7.339   7.857
31733WAT     H195441   4.708   7.316   7.923
31733WAT     H295442   4.760   7.295   7.769
31734WAT      O95443   7.844   3.673   8.250
31734WAT     H195444   7.774   3.603   8.260
31734WAT     H295445   7.835   3.740   8.323
31735WAT      O95446   0.809   6.601   9.747
31735WAT     H195447   0.734   6.624   9.810
31735WAT     H295448   0.888   6.569   9.799
31736WAT      O95449   5.980   6.248   4.228
31736WAT     H195450   6.038   6.321   4.263
31736WAT     H295451   6.032   6.163   4.225
31737WAT      O95452   8.495   3.669   4.065
31737WAT     H195453   8.544   3.601   4.119
31737WAT     H295454   8.489   3.755   4.117
31738WAT      O95455   7.215   1.740   5.779
31738WAT     H195456   7.156   1.660   5.773
31738WAT     H295457   7.185   1.809   5.713
31739WAT      O95458   6.270   8.016   4.176
31739WAT     H195459   6.197   8.084   4.182
31739WAT     H295460   6.268   7.958   4.258
31740WAT      O95461   0.205   4.572   9.352
31740WAT     H195462   0.183   4.544   9.259
31740WAT     H295463   0.122   4.574   9.407
31741WAT      O95464   0.992   2.614   0.685
31741WAT     H195465   0.932   2.558   0.627
31741WAT     H295466   0.939   2.651   0.761
31742WAT      O95467   3.835   5.296   8.146
31742WAT     H195468   3.851   5.377   8.203
31742WAT     H295469   3.736   5.284   8.133
31743WAT      O95470   4.955   4.563   0.817
31743WAT     H195471   4.968   4.501   0.740
31743WAT     H295472   5.023   4.637   0.811
31744WAT      O95473   9.383   5.450   8.304
31744WAT     H195474   9.423   5.461   8.213
31744WAT     H295475   9.304   5.512   8.313
31745WAT      O95476   7.576   8.258   3.074
31745WAT     H195477   7.554   8.182   3.013
31745WAT     H295478   7.662   8.240   3.122
31746WAT      O95479   7.790   0.455   4.792
31746WAT     H195480   7.762   0.397   4.868
31746WAT     H295481   7.870   0.509   4.819
31747WAT      O95482   3.393   6.495   7.883
31747WAT     H195483   3.341   6.521   7.964
31747WAT     H295484   3.348   6.417   7.838
31748WAT      O95485   9.609   0.345   9.263
31748WAT     H195486   9.647   0.285   9.334
31748WAT     H295487   9.680   0.408   9.231
31749WAT      O95488   4.815   0.774   6.656
31749WAT     H195489   4.731   0.730   6.624
31749WAT     H295490   4.864   0.712   6.717
31750WAT      O95491   1.290   9.313   8.068
31750WAT     H195492   1.211   9.321   8.129
31750WAT     H295493   1.343   9.398   8.072
31751WAT      O95494   9.296   4.645   2.704
31751WAT     H195495   9.392   4.630   2.682
31751WAT     H295496   9.266   4.732   2.664
31752WAT      O95497   4.313   2.290   4.396
31752WAT     H195498   4.235   2.281   4.458
31752WAT     H295499   4.315   2.213   4.332
31753WAT      O95500   0.971   7.092   9.741
31753WAT     H195501   1.071   7.095   9.732
31753WAT     H295502   0.936   7.014   9.689
31754WAT      O95503   7.273   1.729   5.285
31754WAT     H195504   7.236   1.669   5.355
31754WAT     H295505   7.203   1.794   5.256
31755WAT      O95506   6.550   3.419   8.028
31755WAT     H195507   6.566   3.375   8.116
31755WAT     H295508   6.624   3.395   7.965
31756WAT      O95509   5.272   2.959   3.593
31756WAT     H195510   5.174   2.981   3.587
31756WAT     H295511   5.302   2.969   3.688
31757WAT      O95512   2.451   5.818   2.690
31757WAT     H195513   2.480   5.910   2.717
31757WAT     H295514   2.503   5.789   2.610
31758WAT      O95515   5.185   5.249   0.888
31758WAT     H195516   5.110   5.188   0.863
31758WAT     H295517   5.152   5.343   0.889
31759WAT      O95518   5.490   8.876   7.619
31759WAT     H195519   5.446   8.850   7.705
31759WAT     H295520   5.429   8.935   7.567
31760WAT      O95521   2.557   0.708   7.295
31760WAT     H195522   2.610   0.771   7.238
31760WAT     H295523   2.508   0.643   7.237
31761WAT      O95524   8.521   5.880   8.765
31761WAT     H195525   8.591   5.902   8.832
31761WAT     H295526   8.434   5.864   8.811
31762WAT      O95527   5.806   2.813   2.434
31762WAT     H195528   5.724   2.866   2.459
31762WAT     H295529   5.792   2.772   2.344
31763WAT      O95530   7.188   3.372   6.086
31763WAT     H195531   7.254   3.420   6.028
31763WAT     H295532   7.100   3.419   6.083
31764WAT      O95533   7.715   5.032   6.298
31764WAT     H195534   7.752   4.951   6.251
31764WAT     H295535   7.757   5.039   6.388
31765WAT      O95536   8.753   5.432   6.289
31765WAT     H195537   8.653   5.429   6.284
31765WAT     H295538   8.790   5.361   6.229
31766WAT      O95539   6.504   2.355   2.351
31766WAT     H195540   6.497   2.447   2.312
31766WAT     H295541   6.415   2.325   2.384
31767WAT      O95542   4.546   3.456   4.419
31767WAT     H195543   4.574   3.426   4.328
31767WAT     H295544   4.609   3.526   4.452
31768WAT      O95545   7.623   4.358   0.681
31768WAT     H195546   7.646   4.432   0.744
31768WAT     H295547   7.663   4.272   0.714
31769WAT      O95548   8.571   4.422   1.194
31769WAT     H195549   8.518   4.494   1.148
31769WAT     H295550   8.580   4.343   1.133
31770WAT      O95551   5.437   9.374   3.740
31770WAT     H195552   5.436   9.338   3.646
31770WAT     H295553   5.351   9.353   3.784
31771WAT      O95554   7.310   1.421   4.035
31771WAT     H195555   7.300   1.457   3.942
31771WAT     H295556   7.238   1.457   4.093
31772WAT      O95557   1.761   7.882   5.907
31772WAT     H195558   1.680   7.837   5.868
31772WAT     H295559   1.842   7.854   5.856
31773WAT      O95560   5.008   2.331   0.205
31773WAT     H195561   5.047   2.424   0.207
31773WAT     H295562   4.975   2.311   0.113
31774WAT      O95563   3.427   1.633   2.309
31774WAT     H195564   3.389   1.716   2.349
31774WAT     H295565   3.522   1.650   2.280
31775WAT      O95566   7.209   2.937   5.926
31775WAT     H195567   7.125   2.962   5.878
31775WAT     H295568   7.229   3.005   5.996
31776WAT      O95569   1.731   8.764   5.260
31776WAT     H195570   1.705   8.779   5.355
31776WAT     H295571   1.723   8.667   5.237
31777WAT      O95572   7.775   9.007   1.734
31777WAT     H195573   7.838   9.041   1.665
31777WAT     H295574   7.717   9.082   1.767
31778WAT      O95575   1.738   0.105   7.416
31778WAT     H195576   1.733   0.023   7.359
31778WAT     H295577   1.708   0.084   7.508
31779WAT      O95578   6.057   5.726   7.447
31779WAT     H195579   5.962   5.712   7.419
31779WAT     H295580   6.058   5.760   7.541
31780WAT      O95581   5.566   2.751   3.155
31780WAT     H195582   5.474   2.788   3.145
31780WAT     H295583   5.589   2.744   3.252
31781WAT      O95584   8.878   9.524   4.111
31781WAT     H195585   8.878   9.571   4.023
31781WAT     H295586   8.785   9.513   4.144
31782WAT      O95587   4.206   9.073   9.114
31782WAT     H195588   4.173   9.066   9.208
31782WAT     H295589   4.186   8.988   9.065
31783WAT      O95590   3.037   3.979   6.160
31783WAT     H195591   2.981   3.898   6.180
31783WAT     H295592   3.062   3.979   6.063
31784WAT      O95593   8.669   7.453   6.110
31784WAT     H195594   8.740   7.410   6.166
31784WAT     H295595   8.662   7.404   6.022
31785WAT      O95596   6.799   6.652   2.985
31785WAT     H195597   6.847   6.713   2.921
31785WAT     H295598   6.717   6.697   3.019
31786WAT      O95599   8.370   6.894   5.311
31786WAT     H195600   8.280   6.866   5.278
31786WAT     H295601   8.403   6.826   5.377
31787WAT      O95602   6.349   4.270   3.197
31787WAT     H195603   6.259   4.227   3.192
31787WAT     H295604   6.416   4.213   3.151
31788WAT      O95605   8.883   9.470   7.242
31788WAT     H195606   8.951   9.543   7.252
31788WAT     H295607   8.826   9.465   7.324
31789WAT      O95608   3.601   6.887   7.385
31789WAT     H195609   3.650   6.896   7.472
31789WAT     H295610   3.528   6.820   7.395
31790WAT      O95611   4.598   1.773   1.021
31790WAT     H195612   4.665   1.704   1.046
31790WAT     H295613   4.643   1.846   0.970
31791WAT      O95614   1.396   1.728   2.118
31791WAT     H195615   1.435   1.804   2.066
31791WAT     H295616   1.466   1.691   2.180
31792WAT      O95617   1.734   3.026   0.265
31792WAT     H195618   1.731   2.928   0.242
31792WAT     H295619   1.651   3.051   0.314
31793WAT      O95620   8.231   9.643   2.383
31793WAT     H195621   8.135   9.645   2.412
31793WAT     H295622   8.238   9.591   2.297
31794WAT      O95623   0.215   7.748   8.103
31794WAT     H195624   0.150   7.818   8.073
31794WAT     H295625   0.231   7.684   8.028
31795WAT      O95626   0.608   7.981   9.190
31795WAT     H195627   0.592   7.890   9.154
31795WAT     H295628   0.542   8.000   9.263
31796WAT      O95629   1.722   1.499   1.539
31796WAT     H195630   1.676   1.411   1.531
31796WAT     H295631   1.811   1.487   1.584
31797WAT      O95632   0.534   1.228   3.190
31797WAT     H195633   0.499   1.320   3.174
31797WAT     H295634   0.605   1.207   3.122
31798WAT      O95635   2.039   4.566   8.941
31798WAT     H195636   2.065   4.610   9.027
31798WAT     H295637   2.075   4.473   8.939
31799WAT      O95638   8.358   9.684   9.884
31799WAT     H195639   8.360   9.779   9.916
31799WAT     H295640   8.346   9.623   9.963
31800WAT      O95641   7.350   7.212   7.275
31800WAT     H195642   7.381   7.192   7.368
31800WAT     H295643   7.416   7.175   7.209
31801WAT      O95644   9.275   2.625   3.157
31801WAT     H195645   9.317   2.543   3.196
31801WAT     H295646   9.185   2.639   3.197
31802WAT      O95647   8.855   8.618   1.172
31802WAT     H195648   8.852   8.531   1.222
31802WAT     H295649   8.946   8.629   1.130
31803WAT      O95650   7.085   6.563   1.411
31803WAT     H195651   6.995   6.562   1.368
31803WAT     H295652   7.150   6.515   1.352
31804WAT      O95653   2.203   0.623   5.680
31804WAT     H195654   2.172   0.655   5.591
31804WAT     H295655   2.298   0.649   5.694
31805WAT      O95656   0.013   9.665   1.559
31805WAT     H195657   0.077   9.676   1.483
31805WAT     H295658  -0.005   9.567   1.572
31806WAT      O95659   5.715   0.970   6.571
31806WAT     H195660   5.813   0.991   6.572
31806WAT     H295661   5.700   0.886   6.519
31807WAT      O95662   5.283   8.306   7.249
31807WAT     H195663   5.304   8.402   7.270
31807WAT     H295664   5.184   8.292   7.253
31808WAT      O95665   8.570   0.917   5.884
31808WAT     H195666   8.610   0.828   5.861
31808WAT     H295667   8.514   0.949   5.808
31809WAT      O95668   8.271   4.278   6.955
31809WAT     H195669   8.370   4.280   6.940
31809WAT     H295670   8.224   4.275   6.866
31810WAT      O95671   2.652   4.902   1.004
31810WAT     H195672   2.592   4.834   1.044
31810WAT     H295673   2.597   4.977   0.966
31811WAT      O95674   9.444   5.529   5.902
31811WAT     H195675   9.425   5.487   5.813
31811WAT     H295676   9.469   5.625   5.889
31812WAT      O95677   6.835   2.345   5.271
31812WAT     H195678   6.917   2.314   5.223
31812WAT     H295679   6.768   2.271   5.275
31813WAT      O95680   3.376   3.778   7.246
31813WAT     H195681   3.418   3.690   7.225
31813WAT     H295682   3.442   3.837   7.293
31814WAT      O95683   5.223   6.631   4.731
31814WAT     H195684   5.321   6.623   4.750
31814WAT     H295685   5.190   6.545   4.693
31815WAT      O95686   5.694   9.528   5.467
31815WAT     H195687   5.625   9.484   5.524
31815WAT     H295688   5.673   9.514   5.371
31816WAT      O95689   7.711   6.947   4.475
31816WAT     H195690   7.671   7.036   4.455
31816WAT     H295691   7.679   6.879   4.409
31817WAT      O95692   8.269   7.703   6.120
31817WAT     H195693   8.301   7.773   6.184
31817WAT     H295694   8.272   7.614   6.165
31818WAT      O95695   4.146   7.585   8.529
31818WAT     H195696   4.221   7.622   8.585
31818WAT     H295697   4.071   7.558   8.589
31819WAT      O95698   2.464   1.732   3.528
31819WAT     H195699   2.366   1.722   3.512
31819WAT     H295700   2.481   1.812   3.585
31820WAT      O95701   8.055   9.098   6.865
31820WAT     H195702   8.062   9.042   6.782
31820WAT     H295703   8.071   9.194   6.842
31821WAT      O95704   9.005   5.859   1.758
31821WAT     H195705   8.941   5.933   1.776
31821WAT     H295706   9.026   5.811   1.843
31822WAT      O95707   4.148   0.830   1.101
31822WAT     H195708   4.133   0.741   1.145
31822WAT     H295709   4.142   0.903   1.169
31823WAT      O95710   3.911   8.132   4.130
31823WAT     H195711   3.929   8.145   4.033
31823WAT     H295712   3.834   8.190   4.158
31824WAT      O95713   6.094   5.082   2.481
31824WAT     H195714   6.089   5.017   2.556
31824WAT     H295715   6.062   5.038   2.397
31825WAT      O95716   6.202   6.185   2.425
31825WAT     H195717   6.158   6.188   2.335
31825WAT     H295718   6.296   6.218   2.417
31826WAT      O95719   4.307   2.123   4.870
31826WAT     H195720   4.351   2.213   4.876
31826WAT     H295721   4.287   2.102   4.774
31827WAT      O95722   3.169   5.650   9.587
31827WAT     H195723   3.263   5.658   9.556
31827WAT     H295724   3.140   5.555   9.584
31828WAT      O95725   0.938   8.985   1.074
31828WAT     H195726   0.942   8.979   0.974
31828WAT     H295727   0.959   8.895   1.113
31829WAT      O95728   0.567   9.107   7.459
31829WAT     H195729   0.666   9.101   7.468
31829WAT     H295730   0.530   9.018   7.434
31830WAT      O95731   0.575   9.556   2.528
31830WAT     H195732   0.485   9.598   2.515
31830WAT     H295733   0.593   9.491   2.455
31831WAT      O95734   2.211   5.078   6.797
31831WAT     H195735   2.257   5.102   6.883
31831WAT     H295736   2.204   4.979   6.789
31832WAT      O95737   1.580   6.837   3.543
31832WAT     H195738   1.563   6.892   3.626
31832WAT     H295739   1.535   6.748   3.552
31833WAT      O95740   2.049   6.895   6.934
31833WAT     H195741   1.961   6.878   6.978
31833WAT     H295742   2.042   6.979   6.879
31834WAT      O95743   9.411   1.028   0.600
31834WAT     H195744   9.339   1.017   0.531
31834WAT     H295745   9.463   1.111   0.581
31835WAT      O95746   5.783   7.518   3.254
31835WAT     H195747   5.749   7.480   3.167
31835WAT     H295748   5.880   7.495   3.265
31836WAT      O95749   2.864   8.711   6.964
31836WAT     H195750   2.881   8.810   6.966
31836WAT     H295751   2.848   8.678   7.057
31837WAT      O95752   2.722   6.766   3.929
31837WAT     H195753   2.737   6.667   3.924
31837WAT     H295754   2.647   6.785   3.992
31838WAT      O95755   8.520   5.904   1.257
31838WAT     H195756   8.560   5.909   1.349
31838WAT     H295757   8.452   5.976   1.247
31839WAT      O95758   6.997   2.032   7.518
31839WAT     H195759   7.059   2.107   7.494
31839WAT     H295760   6.914   2.037   7.463
31840WAT      O95761   9.820   9.405   1.782
31840WAT     H195762   9.856   9.389   1.691
31840WAT     H295763   9.798   9.318   1.826
31841WAT      O95764   9.713   0.230   3.280
31841WAT     H195765   9.760   0.181   3.353
31841WAT     H295766   9.697   0.167   3.203
31842WAT      O95767   5.999   2.296   0.221
31842WAT     H195768   5.906   2.333   0.227
31842WAT     H295769   6.030   2.269   0.312
31843WAT      O95770   5.146   5.419   7.799
31843WAT     H195771   5.191   5.344   7.750
31843WAT     H295772   5.063   5.446   7.751
31844WAT      O95773   4.631   3.269   6.725
31844WAT     H195774   4.689   3.254   6.645
31844WAT     H295775   4.688   3.294   6.804
31845WAT      O95776   0.070   6.609   4.210
31845WAT     H195777   0.128   6.588   4.132
31845WAT     H295778   0.031   6.525   4.247
31846WAT      O95779   4.529   8.478   5.469
31846WAT     H195780   4.621   8.489   5.431
31846WAT     H295781   4.480   8.407   5.419
31847WAT      O95782   7.454   3.333   9.464
31847WAT     H195783   7.423   3.389   9.388
31847WAT     H295784   7.521   3.385   9.518
31848WAT      O95785   9.077   8.207   0.649
31848WAT     H195786   9.113   8.210   0.741
31848WAT     H295787   8.994   8.263   0.643
31849WAT      O95788   8.752   8.665   6.018
31849WAT     H195789   8.803   8.621   6.091
31849WAT     H295790   8.665   8.699   6.054
31850WAT      O95791   4.806   6.310   2.167
31850WAT     H195792   4.787   6.255   2.248
31850WAT     H295793   4.900   6.344   2.171
31851WAT      O95794   9.762   1.151   6.251
31851WAT     H195795   9.712   1.238   6.252
31851WAT     H295796   9.792   1.129   6.344
31852WAT      O95797   7.650   8.832   1.415
31852WAT     H195798   7.574   8.857   1.475
31852WAT     H295799   7.649   8.890   1.334
31853WAT      O95800   7.073   8.763   7.924
31853WAT     H195801   7.082   8.665   7.907
31853WAT     H295802   7.136   8.791   7.997
31854WAT      O95803   9.238   4.199   0.817
31854WAT     H195804   9.312   4.225   0.755
31854WAT     H295805   9.151   4.230   0.780
31855WAT      O95806   3.005   8.727   2.723
31855WAT     H195807   2.935   8.677   2.774
31855WAT     H295808   3.051   8.664   2.660
31856WAT      O95809   3.048   4.637   9.749
31856WAT     H195810   3.116   4.567   9.726
31856WAT     H295811   2.959   4.593   9.761
31857WAT      O95812   1.324   9.382   9.582
31857WAT     H195813   1.373   9.463   9.614
31857WAT     H295814   1.331   9.310   9.650
31858WAT      O95815   8.312   5.127   3.270
31858WAT     H195816   8.243   5.056   3.252
31858WAT     H295817   8.371   5.098   3.346
31859WAT      O95818   5.584   3.041   6.447
31859WAT     H195819   5.633   3.052   6.360
31859WAT     H295820   5.545   2.949   6.450
31860WAT      O95821   6.219   4.705   0.788
31860WAT     H195822   6.281   4.692   0.711
31860WAT     H295823   6.259   4.664   0.870
31861WAT      O95824   8.534   5.740   6.880
31861WAT     H195825   8.508   5.821   6.827
31861WAT     H295826   8.621   5.705   6.845
31862WAT      O95827   2.609   2.974   6.141
31862WAT     H195828   2.655   3.053   6.101
31862WAT     H295829   2.605   2.901   6.073
31863WAT      O95830   1.710   2.786   0.090
31863WAT     H195831   1.745   2.863   0.036
31863WAT     H295832   1.785   2.726   0.116
31864WAT      O95833   8.406   4.010   9.535
31864WAT     H195834   8.462   4.002   9.452
31864WAT     H295835   8.463   4.043   9.610
31865WAT      O95836   0.069   0.934   0.563
31865WAT     H195837   0.148   0.873   0.573
31865WAT     H295838  -0.014   0.879   0.553
31866WAT      O95839   6.072   4.940   7.443
31866WAT     H195840   6.066   5.030   7.487
31866WAT     H295841   6.162   4.901   7.458
31867WAT      O95842   0.707   0.532   5.636
31867WAT     H195843   0.807   0.535   5.635
31867WAT     H295844   0.673   0.597   5.704
31868WAT      O95845   5.664   5.939   5.678
31868WAT     H195846   5.629   6.029   5.651
31868WAT     H295847   5.742   5.915   5.620
31869WAT      O95848   1.437   2.589   7.602
31869WAT     H195849   1.465   2.508   7.653
31869WAT     H295850   1.407   2.562   7.510
31870WAT      O95851   8.723   6.116   5.965
31870WAT     H195852   8.721   6.026   5.921
31870WAT     H295853   8.635   6.133   6.009
31871WAT      O95854   1.916   7.889   3.529
31871WAT     H195855   1.842   7.903   3.596
31871WAT     H295856   1.884   7.826   3.458
31872WAT      O95857   6.426   0.150   8.102
31872WAT     H195858   6.333   0.177   8.077
31872WAT     H295859   6.492   0.198   8.043
31873WAT      O95860   6.526   8.034   5.589
31873WAT     H195861   6.504   8.030   5.491
31873WAT     H295862   6.556   7.945   5.620
31874WAT      O95863   0.117   1.631   5.377
31874WAT     H195864   0.184   1.558   5.387
31874WAT     H295865   0.053   1.608   5.304
31875WAT      O95866   2.850   1.315   5.925
31875WAT     H195867   2.860   1.285   6.020
31875WAT     H295868   2.939   1.310   5.880
31876WAT      O95869   0.611   6.004   7.728
31876WAT     H195870   0.703   5.984   7.762
31876WAT     H295871   0.589   5.941   7.653
31877WAT      O95872   2.519   3.514   4.527
31877WAT     H195873   2.608   3.547   4.558
31877WAT     H295874   2.488   3.440   4.586
31878WAT      O95875   0.844   0.087   8.257
31878WAT     H195876   0.852   0.185   8.275
31878WAT     H295877   0.785   0.072   8.178
31879WAT      O95878   9.064   1.582   5.115
31879WAT     H195879   9.055   1.620   5.207
31879WAT     H295880   9.008   1.636   5.051
31880WAT      O95881   6.490   0.091   3.785
31880WAT     H195882   6.442   0.087   3.873
31880WAT     H295883   6.425   0.078   3.711
31881WAT      O95884   5.441   8.833   8.356
31881WAT     H195885   5.421   8.743   8.316
31881WAT     H295886   5.501   8.884   8.295
31882WAT      O95887   2.703   7.173   6.836
31882WAT     H195888   2.754   7.187   6.921
31882WAT     H295889   2.675   7.261   6.798
31883WAT      O95890   6.871   4.374   3.432
31883WAT     H195891   6.872   4.327   3.343
31883WAT     H295892   6.944   4.442   3.434
31884WAT      O95893   7.775   2.133   4.912
31884WAT     H195894   7.817   2.111   4.824
31884WAT     H295895   7.846   2.134   4.983
31885WAT      O95896   1.005   7.101   4.618
31885WAT     H195897   1.036   7.196   4.614
31885WAT     H295898   1.084   7.041   4.631
31886WAT      O95899   3.127   7.772   3.395
31886WAT     H195900   3.225   7.786   3.384
31886WAT     H295901   3.092   7.832   3.467
31887WAT      O95902   1.338   8.503   6.759
31887WAT     H195903   1.334   8.407   6.788
31887WAT     H295904   1.399   8.511   6.680
31888WAT      O95905   5.481   7.553   1.007
31888WAT     H195906   5.552   7.618   0.981
31888WAT     H295907   5.391   7.597   1.001
31889WAT      O95908   2.101   5.580   8.632
31889WAT     H195909   2.076   5.509   8.565
31889WAT     H295910   2.184   5.627   8.601
31890WAT      O95911   2.313   0.518   2.040
31890WAT     H195912   2.350   0.585   2.104
31890WAT     H295913   2.344   0.426   2.065
31891WAT      O95914   7.496   3.193   7.617
31891WAT     H195915   7.563   3.140   7.565
31891WAT     H295916   7.414   3.207   7.562
31892WAT      O95917   7.764   8.009   9.147
31892WAT     H195918   7.791   8.047   9.058
31892WAT     H295919   7.756   8.083   9.214
31893WAT      O95920   4.428   6.180   8.688
31893WAT     H195921   4.502   6.172   8.621
31893WAT     H295922   4.461   6.232   8.767
31894WAT      O95923   9.000   5.116   4.128
31894WAT     H195924   9.032   5.169   4.207
31894WAT     H295925   8.907   5.085   4.145
31895WAT      O95926   7.575   5.448   9.224
31895WAT     H195927   7.557   5.495   9.137
31895WAT     H295928   7.510   5.373   9.235
31896WAT      O95929   9.714   0.885   4.438
31896WAT     H195930   9.622   0.905   4.405
31896WAT     H295931   9.721   0.789   4.462
31897WAT      O95932   7.523   0.303   0.577
31897WAT     H195933   7.439   0.348   0.549
31897WAT     H295934   7.599   0.367   0.573
31898WAT      O95935   5.506   9.421   0.379
31898WAT     H195936   5.495   9.450   0.284
31898WAT     H295937   5.516   9.501   0.438
31899WAT      O95938   8.746   3.821   0.748
31899WAT     H195939   8.811   3.811   0.672
31899WAT     H295940   8.732   3.918   0.766
   9.88928    9.84380    9.89279 
